Title t= 129.00000 step= 64500
44463
    1GLY      N    1   2.857   3.162   3.672
    1GLY    HT1    2   2.819   3.172   3.576
    1GLY    HT2    3   2.960   3.148   3.668
    1GLY    HT3    4   2.838   3.252   3.720
    1GLY     CA    5   2.768   3.052   3.722
    1GLY    HA1    6   2.756   2.977   3.645
    1GLY    HA2    7   2.678   3.103   3.755
    1GLY      C    8   2.819   2.980   3.846
    1GLY      O    9   2.908   3.028   3.911
    2PRO      N   10   2.763   2.865   3.884
    2PRO     CD   11   2.639   2.811   3.829
    2PRO    HD1   12   2.658   2.778   3.724
    2PRO    HD2   13   2.569   2.897   3.826
    2PRO     CA   14   2.804   2.781   3.995
    2PRO     HA   15   2.768   2.826   4.087
    2PRO     CB   16   2.725   2.645   3.984
    2PRO    HB1   17   2.718   2.598   4.084
    2PRO    HB2   18   2.791   2.585   3.918
    2PRO     CG   19   2.594   2.691   3.920
    2PRO    HG1   20   2.556   2.615   3.849
    2PRO    HG2   21   2.514   2.712   3.995
    2PRO      C   22   2.954   2.752   4.018
    2PRO      O   23   3.036   2.750   3.923
    3GLY      N   24   2.992   2.741   4.147
    3GLY     HN   25   2.920   2.725   4.215
    3GLY     CA   26   3.132   2.723   4.189
    3GLY    HA1   27   3.129   2.759   4.291
    3GLY    HA2   28   3.199   2.787   4.133
    3GLY      C   29   3.186   2.579   4.182
    3GLY      O   30   3.144   2.497   4.104
    4ASP      N   31   3.293   2.544   4.259
    4ASP     HN   32   3.338   2.605   4.324
    4ASP     CA   33   3.361   2.420   4.247
    4ASP     HA   34   3.410   2.428   4.151
    4ASP     CB   35   3.486   2.410   4.347
    4ASP    HB1   36   3.536   2.312   4.328
    4ASP    HB2   37   3.449   2.399   4.452
    4ASP     CG   38   3.593   2.522   4.342
    4ASP    OD1   39   3.671   2.526   4.438
    4ASP    OD2   40   3.596   2.600   4.246
    4ASP      C   41   3.283   2.289   4.246
    4ASP      O   42   3.198   2.269   4.332
    5PRO      N   43   3.302   2.203   4.144
    5PRO     CD   44   3.386   2.227   4.027
    5PRO    HD1   45   3.496   2.220   4.044
    5PRO    HD2   46   3.370   2.333   3.996
    5PRO     CA   47   3.271   2.060   4.158
    5PRO     HA   48   3.165   2.054   4.141
    5PRO     CB   49   3.345   2.003   4.031
    5PRO    HB1   50   3.300   1.909   3.993
    5PRO    HB2   51   3.447   1.967   4.058
    5PRO     CG   52   3.354   2.114   3.931
    5PRO    HG1   53   3.444   2.103   3.868
    5PRO    HG2   54   3.257   2.121   3.878
    5PRO      C   55   3.294   1.988   4.289
    5PRO      O   56   3.399   2.006   4.352
    6GLY      N   57   3.195   1.915   4.329
    6GLY     HN   58   3.113   1.920   4.271
    6GLY     CA   59   3.170   1.851   4.453
    6GLY    HA1   60   3.086   1.783   4.447
    6GLY    HA2   61   3.162   1.926   4.530
    6GLY      C   62   3.268   1.751   4.496
    6GLY      O   63   3.333   1.695   4.407
    7PRO      N   64   3.291   1.719   4.625
    7PRO     CD   65   3.250   1.806   4.739
    7PRO    HD1   66   3.142   1.785   4.754
    7PRO    HD2   67   3.263   1.914   4.717
    7PRO     CA   68   3.349   1.596   4.680
    7PRO     HA   69   3.455   1.606   4.661
    7PRO     CB   70   3.322   1.603   4.825
    7PRO    HB1   71   3.401   1.542   4.873
    7PRO    HB2   72   3.228   1.558   4.862
    7PRO     CG   73   3.326   1.752   4.858
    7PRO    HG1   74   3.282   1.775   4.958
    7PRO    HG2   75   3.432   1.786   4.857
    7PRO      C   76   3.301   1.460   4.623
    7PRO      O   77   3.181   1.450   4.595
    8GLY      N   78   3.383   1.356   4.605
    8GLY     HN   79   3.474   1.362   4.646
    8GLY     CA   80   3.339   1.228   4.554
    8GLY    HA1   81   3.250   1.201   4.610
    8GLY    HA2   82   3.416   1.155   4.570
    8GLY      C   83   3.289   1.237   4.411
    8GLY      O   84   3.329   1.328   4.337
    9ASP      N   85   3.206   1.143   4.366
    9ASP     HN   86   3.180   1.072   4.432
    9ASP     CA   87   3.157   1.113   4.240
    9ASP     HA   88   3.237   1.099   4.170
    9ASP     CB   89   3.081   0.973   4.245
    9ASP    HB1   90   3.016   0.949   4.157
    9ASP    HB2   91   3.015   0.963   4.333
    9ASP     CG   92   3.176   0.862   4.259
    9ASP    OD1   93   3.297   0.881   4.280
    9ASP    OD2   94   3.134   0.740   4.253
    9ASP      C   95   3.056   1.221   4.190
    9ASP      O   96   2.976   1.263   4.268
   10PRO      N   97   3.050   1.262   4.067
   10PRO     CD   98   3.113   1.189   3.958
   10PRO    HD1   99   3.076   1.084   3.960
   10PRO    HD2  100   3.223   1.181   3.966
   10PRO     CA  101   3.005   1.397   4.024
   10PRO     HA  102   3.048   1.456   4.104
   10PRO     CB  103   3.085   1.414   3.893
   10PRO    HB1  104   3.186   1.435   3.933
   10PRO    HB2  105   3.040   1.494   3.830
   10PRO     CG  106   3.083   1.277   3.834
   10PRO    HG1  107   2.982   1.261   3.791
   10PRO    HG2  108   3.163   1.256   3.760
   10PRO      C  109   2.850   1.404   4.017
   10PRO      O  110   2.805   1.516   3.992
   11GLY      N  111   2.771   1.296   4.033
   11GLY     HN  112   2.809   1.204   4.034
   11GLY     CA  113   2.625   1.298   4.040
   11GLY    HA1  114   2.595   1.195   4.045
   11GLY    HA2  115   2.594   1.357   3.955
   11GLY      C  116   2.569   1.372   4.159
   11GLY      O  117   2.645   1.408   4.254
   12PRO      N  118   2.438   1.391   4.161
   12PRO     CD  119   2.350   1.365   4.047
   12PRO    HD1  120   2.349   1.254   4.034
   12PRO    HD2  121   2.394   1.406   3.954
   12PRO     CA  122   2.366   1.406   4.284
   12PRO     HA  123   2.375   1.511   4.308
   12PRO     CB  124   2.219   1.379   4.251
   12PRO    HB1  125   2.140   1.434   4.307
   12PRO    HB2  126   2.196   1.272   4.274
   12PRO     CG  127   2.210   1.407   4.096
   12PRO    HG1  128   2.129   1.344   4.055
   12PRO    HG2  129   2.181   1.514   4.085
   12PRO      C  130   2.407   1.333   4.417
   12PRO      O  131   2.440   1.217   4.422
   13GLY      N  132   2.421   1.414   4.529
   13GLY     HN  133   2.414   1.513   4.525
   13GLY     CA  134   2.447   1.351   4.664
   13GLY    HA1  135   2.465   1.434   4.731
   13GLY    HA2  136   2.530   1.287   4.642
   13GLY      C  137   2.331   1.282   4.734
   13GLY      O  138   2.231   1.254   4.671
   14ASP      N  139   2.338   1.254   4.863
   14ASP     HN  140   2.417   1.284   4.916
   14ASP     CA  141   2.241   1.169   4.932
   14ASP     HA  142   2.199   1.097   4.863
   14ASP     CB  143   2.314   1.100   5.045
   14ASP    HB1  144   2.251   1.038   5.112
   14ASP    HB2  145   2.365   1.171   5.114
   14ASP     CG  146   2.417   0.997   4.998
   14ASP    OD1  147   2.499   0.948   5.079
   14ASP    OD2  148   2.429   0.975   4.875
   14ASP      C  149   2.127   1.248   5.006
   14ASP      O  150   2.150   1.352   5.054
   15PRO      N  151   2.003   1.201   5.025
   15PRO     CD  152   1.949   1.081   4.957
   15PRO    HD1  153   2.018   0.996   4.974
   15PRO    HD2  154   1.944   1.110   4.850
   15PRO     CA  155   1.904   1.275   5.104
   15PRO     HA  156   1.903   1.379   5.073
   15PRO     CB  157   1.766   1.201   5.081
   15PRO    HB1  158   1.709   1.247   4.997
   15PRO    HB2  159   1.706   1.188   5.173
   15PRO     CG  160   1.807   1.060   5.013
   15PRO    HG1  161   1.795   0.984   5.093
   15PRO    HG2  162   1.729   1.032   4.938
   15PRO      C  163   1.943   1.270   5.244
   15PRO    OT1  164   1.962   1.165   5.309
   15PRO    OT2  165   1.945   1.382   5.305
   16LIT    LIT  166   1.980   1.279   5.461
   17LIT    LIT  167   1.523   2.395   6.024
   18LIT    LIT  168   3.386   7.312   2.958
   19LIT    LIT  169   5.824   4.886   1.586
   20LIT    LIT  170   1.577   5.339   3.482
   21LIT    LIT  171   7.739   2.700   3.073
   22LIT    LIT  172   0.076   2.006   5.052
   23LIT    LIT  173   1.274   2.583   2.897
   24LIT    LIT  174   1.708   0.531   4.417
   25LIT    LIT  175   1.450   7.296   4.572
   26LIT    LIT  176   7.131   2.381   2.995
   27LIT    LIT  177   3.928   7.092   0.548
   28LIT    LIT  178   5.950   0.647   5.294
   29LIT    LIT  179   2.245   5.058   1.431
   30LIT    LIT  180   4.197   2.642   0.461
   31LIT    LIT  181   6.615   6.247   6.430
   32LIT    LIT  182   4.819   4.392   0.059
   33LIT    LIT  183   7.666   2.565   0.340
   34LIT    LIT  184   5.035   7.783   2.940
   35LIT    LIT  185   1.203   4.176   1.546
   36LIT    LIT  186   3.238   0.584   4.233
   37LIT    LIT  187   0.549   5.079   1.087
   38LIT    LIT  188   5.064   6.683   4.345
   39LIT    LIT  189   2.825   0.466   1.765
   40LIT    LIT  190   6.310   7.378   1.053
   41LIT    LIT  191   1.663   6.372   3.308
   42LIT    LIT  192   0.595   4.600   5.802
   43LIT    LIT  193   6.489   2.633   0.190
   44LIT    LIT  194   6.768   2.502   5.037
   45LIT    LIT  195   7.058   5.892   3.926
   46LIT    LIT  196   6.666   5.761   2.353
   47LIT    LIT  197   0.921   4.739   3.197
   48LIT    LIT  198   6.408   3.843   4.804
   49LIT    LIT  199   2.876   5.951   1.120
   50LIT    LIT  200   5.851   7.782   3.885
   51LIT    LIT  201   2.507   0.276   3.449
   52LIT    LIT  202   6.754   5.289   1.080
   53LIT    LIT  203   8.260   2.277   2.471
   54LIT    LIT  204   0.990   2.480   1.892
   55LIT    LIT  205   1.059   1.227   3.150
   56LIT    LIT  206   4.488   6.388   1.907
   57LIT    LIT  207   5.663   4.555   3.222
   58LIT    LIT  208   2.622   0.925   4.934
   59LIT    LIT  209   1.718   6.305   4.424
   60LIT    LIT  210   4.720   4.144   4.942
   61CLA    CLA  211   0.898   5.324   4.076
   62CLA    CLA  212   1.718   4.779   4.673
   63CLA    CLA  213   1.989   1.119   1.907
   64CLA    CLA  214   4.965   3.579   0.398
   65CLA    CLA  215   4.312   6.607   2.820
   66CLA    CLA  216   0.105   0.877   3.737
   67CLA    CLA  217   1.132   0.447   5.701
   68CLA    CLA  218   3.563   6.869   4.721
   69CLA    CLA  219   2.106   1.984   5.794
   70CLA    CLA  220   4.926   6.537   6.374
   71CLA    CLA  221   0.508   5.069   5.916
   72CLA    CLA  222   2.557   5.538   1.082
   73CLA    CLA  223   2.253   7.417   6.103
   74CLA    CLA  224   7.483   7.087   2.503
   75CLA    CLA  225   8.170   1.549   4.613
   76CLA    CLA  226   2.507   7.823   0.123
   77CLA    CLA  227   3.254   4.532   4.173
   78CLA    CLA  228   4.313   4.442   0.329
   79CLA    CLA  229   7.564   5.602   0.437
   80CLA    CLA  230   8.168   4.102   2.007
   81CLA    CLA  231   5.542   6.287   5.778
   82CLA    CLA  232   0.590   1.467   6.027
   83CLA    CLA  233   2.258   4.323   0.907
   84CLA    CLA  234   0.759   7.257   0.455
   85CLA    CLA  235   3.671   7.567   6.106
   86CLA    CLA  236   7.188   4.412   5.354
   87CLA    CLA  237   3.771   7.012   3.209
   88CLA    CLA  238   5.372   5.489   0.937
   89CLA    CLA  239   6.422   4.458   5.264
   90CLA    CLA  240   3.126   0.411   6.121
   91CLA    CLA  241   3.195   3.207   3.609
   92CLA    CLA  242   7.634   7.454   4.377
   93CLA    CLA  243   4.498   1.420   5.057
   94CLA    CLA  244   4.364   6.956   0.605
   95CLA    CLA  245   3.184   5.089   5.191
   96CLA    CLA  246   1.165   1.513   1.898
   97CLA    CLA  247   6.338   1.783   3.869
   98CLA    CLA  248   1.081   5.612   3.274
   99CLA    CLA  249   7.542   2.432   0.457
  100CLA    CLA  250   0.645   4.135   4.038
  101CLA    CLA  251   7.656   2.640   3.279
  102CLA    CLA  252   0.066   2.277   4.492
  103TIP3   OH2  253   1.694   4.736   3.069
  103TIP3    H1  254   1.684   4.651   3.026
  103TIP3    H2  255   1.767   4.777   3.023
  104TIP3   OH2  256   5.306   6.413   6.511
  104TIP3    H1  257   5.312   6.322   6.542
  104TIP3    H2  258   5.284   6.404   6.418
  105TIP3   OH2  259   7.777   4.045   3.484
  105TIP3    H1  260   7.838   4.109   3.446
  105TIP3    H2  261   7.817   4.021   3.567
  106TIP3   OH2  262   5.411   4.997   2.283
  106TIP3    H1  263   5.447   5.074   2.240
  106TIP3    H2  264   5.478   4.970   2.345
  107TIP3   OH2  265   1.902   5.516   4.410
  107TIP3    H1  266   1.831   5.512   4.474
  107TIP3    H2  267   1.918   5.609   4.397
  108TIP3   OH2  268   0.494   4.436   1.135
  108TIP3    H1  269   0.416   4.388   1.163
  108TIP3    H2  270   0.564   4.370   1.136
  109TIP3   OH2  271   0.970   4.018   2.107
  109TIP3    H1  272   1.023   3.996   2.184
  109TIP3    H2  273   0.951   3.933   2.067
  110TIP3   OH2  274   5.987   4.069   3.652
  110TIP3    H1  275   6.033   3.991   3.685
  110TIP3    H2  276   5.899   4.038   3.632
  111TIP3   OH2  277   0.946   6.516   4.717
  111TIP3    H1  278   0.872   6.456   4.705
  111TIP3    H2  279   0.936   6.580   4.646
  112TIP3   OH2  280   1.304   4.013   4.074
  112TIP3    H1  281   1.302   4.094   4.023
  112TIP3    H2  282   1.363   3.955   4.026
  113TIP3   OH2  283   7.438   1.300   3.922
  113TIP3    H1  284   7.503   1.275   3.856
  113TIP3    H2  285   7.368   1.235   3.914
  114TIP3   OH2  286   1.076   0.377   1.327
  114TIP3    H1  287   1.104   0.467   1.343
  114TIP3    H2  288   0.981   0.383   1.319
  115TIP3   OH2  289   6.466   5.760   1.985
  115TIP3    H1  290   6.488   5.851   2.005
  115TIP3    H2  291   6.550   5.717   1.975
  116TIP3   OH2  292   1.396   2.522   5.949
  116TIP3    H1  293   1.395   2.609   5.909
  116TIP3    H2  294   1.314   2.482   5.922
  117TIP3   OH2  295   5.130   5.296   5.020
  117TIP3    H1  296   5.165   5.360   4.958
  117TIP3    H2  297   5.105   5.221   4.965
  118TIP3   OH2  298   2.866   6.859   0.368
  118TIP3    H1  299   2.911   6.785   0.328
  118TIP3    H2  300   2.796   6.880   0.307
  119TIP3   OH2  301   6.755   5.619   1.362
  119TIP3    H1  302   6.695   5.606   1.435
  119TIP3    H2  303   6.724   5.559   1.294
  120TIP3   OH2  304   3.790   3.462   2.001
  120TIP3    H1  305   3.820   3.528   2.064
  120TIP3    H2  306   3.713   3.423   2.043
  121TIP3   OH2  307   0.951   1.915   5.706
  121TIP3    H1  308   1.025   1.873   5.662
  121TIP3    H2  309   0.875   1.892   5.653
  122TIP3   OH2  310   4.525   6.754   5.428
  122TIP3    H1  311   4.493   6.787   5.344
  122TIP3    H2  312   4.608   6.711   5.407
  123TIP3   OH2  313   5.341   5.529   0.625
  123TIP3    H1  314   5.416   5.482   0.588
  123TIP3    H2  315   5.335   5.498   0.715
  124TIP3   OH2  316   2.823   0.449   4.001
  124TIP3    H1  317   2.730   0.469   3.992
  124TIP3    H2  318   2.862   0.483   3.920
  125TIP3   OH2  319   8.160   4.705   2.381
  125TIP3    H1  320   8.233   4.693   2.441
  125TIP3    H2  321   8.116   4.785   2.412
  126TIP3   OH2  322   1.318   1.794   1.851
  126TIP3    H1  323   1.308   1.827   1.762
  126TIP3    H2  324   1.267   1.713   1.852
  127TIP3   OH2  325   2.161   2.925   6.753
  127TIP3    H1  326   2.096   2.911   6.684
  127TIP3    H2  327   2.163   3.020   6.765
  128TIP3   OH2  328   6.510   6.591   5.218
  128TIP3    H1  329   6.538   6.526   5.153
  128TIP3    H2  330   6.546   6.674   5.186
  129TIP3   OH2  331   7.679   5.076   2.433
  129TIP3    H1  332   7.678   5.157   2.484
  129TIP3    H2  333   7.763   5.035   2.454
  130TIP3   OH2  334   1.205   1.183   2.713
  130TIP3    H1  335   1.274   1.234   2.756
  130TIP3    H2  336   1.136   1.247   2.696
  131TIP3   OH2  337   4.146   0.720   0.965
  131TIP3    H1  338   4.086   0.794   0.975
  131TIP3    H2  339   4.233   0.760   0.963
  132TIP3   OH2  340   4.051   5.145   6.247
  132TIP3    H1  341   4.016   5.227   6.212
  132TIP3    H2  342   4.132   5.131   6.198
  133TIP3   OH2  343   8.168   6.578   4.651
  133TIP3    H1  344   8.160   6.662   4.697
  133TIP3    H2  345   8.088   6.571   4.600
  134TIP3   OH2  346   4.442   0.573   4.890
  134TIP3    H1  347   4.360   0.623   4.887
  134TIP3    H2  348   4.435   0.511   4.818
  135TIP3   OH2  349   7.541   6.676   5.399
  135TIP3    H1  350   7.536   6.696   5.492
  135TIP3    H2  351   7.470   6.728   5.360
  136TIP3   OH2  352   1.321   2.683   2.305
  136TIP3    H1  353   1.251   2.627   2.338
  136TIP3    H2  354   1.401   2.636   2.325
  137TIP3   OH2  355   1.491   4.079   1.618
  137TIP3    H1  356   1.407   4.044   1.587
  137TIP3    H2  357   1.471   4.114   1.705
  138TIP3   OH2  358   1.953   5.927   6.084
  138TIP3    H1  359   1.880   5.972   6.127
  138TIP3    H2  360   1.934   5.834   6.097
  139TIP3   OH2  361   5.871   1.427   5.141
  139TIP3    H1  362   5.791   1.457   5.182
  139TIP3    H2  363   5.909   1.505   5.101
  140TIP3   OH2  364   3.852   0.067   0.537
  140TIP3    H1  365   3.937   0.030   0.560
  140TIP3    H2  366   3.871   0.156   0.508
  141TIP3   OH2  367   3.040   2.073   1.904
  141TIP3    H1  368   3.097   2.082   1.828
  141TIP3    H2  369   3.018   2.163   1.928
  142TIP3   OH2  370   6.169   4.864   3.605
  142TIP3    H1  371   6.195   4.906   3.523
  142TIP3    H2  372   6.076   4.888   3.615
  143TIP3   OH2  373   5.498   3.156   5.456
  143TIP3    H1  374   5.560   3.091   5.490
  143TIP3    H2  375   5.457   3.113   5.381
  144TIP3   OH2  376   1.086   6.912   3.616
  144TIP3    H1  377   1.142   6.912   3.539
  144TIP3    H2  378   1.091   6.823   3.650
  145TIP3   OH2  379   5.884   5.269   3.903
  145TIP3    H1  380   5.935   5.217   3.965
  145TIP3    H2  381   5.936   5.349   3.890
  146TIP3   OH2  382   5.682   4.372   2.600
  146TIP3    H1  383   5.607   4.396   2.546
  146TIP3    H2  384   5.741   4.447   2.596
  147TIP3   OH2  385   2.101   2.575   3.098
  147TIP3    H1  386   2.119   2.548   3.188
  147TIP3    H2  387   2.164   2.525   3.045
  148TIP3   OH2  388   6.268   1.288   3.046
  148TIP3    H1  389   6.200   1.265   3.110
  148TIP3    H2  390   6.313   1.363   3.085
  149TIP3   OH2  391   0.868   6.492   0.800
  149TIP3    H1  392   0.870   6.587   0.810
  149TIP3    H2  393   0.787   6.474   0.752
  150TIP3   OH2  394   5.187   5.525   0.005
  150TIP3    H1  395   5.232   5.562   0.081
  150TIP3    H2  396   5.095   5.548   0.018
  151TIP3   OH2  397   0.033   4.718   5.609
  151TIP3    H1  398  -0.030   4.661   5.564
  151TIP3    H2  399   0.030   4.800   5.561
  152TIP3   OH2  400   2.171   7.359   5.520
  152TIP3    H1  401   2.160   7.432   5.459
  152TIP3    H2  402   2.103   7.374   5.587
  153TIP3   OH2  403   6.075   7.273   1.894
  153TIP3    H1  404   6.003   7.337   1.898
  153TIP3    H2  405   6.031   7.188   1.892
  154TIP3   OH2  406   5.602   6.864   4.721
  154TIP3    H1  407   5.631   6.953   4.744
  154TIP3    H2  408   5.508   6.872   4.706
  155TIP3   OH2  409   1.961   0.152   0.855
  155TIP3    H1  410   1.962   0.061   0.882
  155TIP3    H2  411   1.893   0.157   0.788
  156TIP3   OH2  412   2.194   3.750   2.972
  156TIP3    H1  413   2.152   3.787   3.049
  156TIP3    H2  414   2.283   3.784   2.974
  157TIP3   OH2  415   3.845   1.160   2.021
  157TIP3    H1  416   3.800   1.241   2.043
  157TIP3    H2  417   3.882   1.175   1.934
  158TIP3   OH2  418   3.389   1.935   0.961
  158TIP3    H1  419   3.362   2.017   1.002
  158TIP3    H2  420   3.342   1.867   1.009
  159TIP3   OH2  421   6.246   0.407   0.326
  159TIP3    H1  422   6.219   0.439   0.240
  159TIP3    H2  423   6.304   0.476   0.360
  160TIP3   OH2  424   2.025   3.100   2.074
  160TIP3    H1  425   2.118   3.092   2.096
  160TIP3    H2  426   2.016   3.188   2.037
  161TIP3   OH2  427   4.252   5.041   0.098
  161TIP3    H1  428   4.222   5.017   0.185
  161TIP3    H2  429   4.180   5.091   0.060
  162TIP3   OH2  430   5.695   0.197   5.495
  162TIP3    H1  431   5.698   0.197   5.591
  162TIP3    H2  432   5.748   0.122   5.468
  163TIP3   OH2  433   7.910   1.359   2.035
  163TIP3    H1  434   7.897   1.318   1.949
  163TIP3    H2  435   7.858   1.306   2.095
  164TIP3   OH2  436   6.499   5.616   0.499
  164TIP3    H1  437   6.428   5.559   0.473
  164TIP3    H2  438   6.529   5.657   0.418
  165TIP3   OH2  439   5.200   1.732   5.644
  165TIP3    H1  440   5.267   1.766   5.704
  165TIP3    H2  441   5.249   1.674   5.586
  166TIP3   OH2  442   4.487   5.798   0.990
  166TIP3    H1  443   4.510   5.817   1.080
  166TIP3    H2  444   4.434   5.873   0.962
  167TIP3   OH2  445   5.889   3.124   4.687
  167TIP3    H1  446   5.913   3.032   4.674
  167TIP3    H2  447   5.870   3.130   4.781
  168TIP3   OH2  448   7.220   3.636   2.409
  168TIP3    H1  449   7.164   3.713   2.409
  168TIP3    H2  450   7.168   3.569   2.365
  169TIP3   OH2  451   5.777   5.379   3.580
  169TIP3    H1  452   5.744   5.442   3.516
  169TIP3    H2  453   5.802   5.433   3.656
  170TIP3   OH2  454   0.827   4.290   5.680
  170TIP3    H1  455   0.839   4.198   5.705
  170TIP3    H2  456   0.915   4.325   5.671
  171TIP3   OH2  457   2.718   4.885   5.660
  171TIP3    H1  458   2.757   4.824   5.597
  171TIP3    H2  459   2.695   4.962   5.608
  172TIP3   OH2  460   5.440   3.144   2.228
  172TIP3    H1  461   5.534   3.134   2.243
  172TIP3    H2  462   5.408   3.191   2.305
  173TIP3   OH2  463   4.449   5.219   4.914
  173TIP3    H1  464   4.403   5.221   4.831
  173TIP3    H2  465   4.435   5.306   4.952
  174TIP3   OH2  466   8.158   4.573   4.233
  174TIP3    H1  467   8.091   4.590   4.167
  174TIP3    H2  468   8.160   4.654   4.285
  175TIP3   OH2  469   6.273   0.632   4.663
  175TIP3    H1  470   6.295   0.556   4.718
  175TIP3    H2  471   6.301   0.707   4.715
  176TIP3   OH2  472   5.308   5.896   3.686
  176TIP3    H1  473   5.280   5.837   3.616
  176TIP3    H2  474   5.285   5.850   3.767
  177TIP3   OH2  475   7.908   7.814   3.845
  177TIP3    H1  476   8.003   7.825   3.837
  177TIP3    H2  477   7.896   7.760   3.922
  178TIP3   OH2  478   7.962   0.555   4.909
  178TIP3    H1  479   8.011   0.633   4.936
  178TIP3    H2  480   8.026   0.503   4.861
  179TIP3   OH2  481   3.614   0.026   3.177
  179TIP3    H1  482   3.690   0.064   3.134
  179TIP3    H2  483   3.554   0.099   3.191
  180TIP3   OH2  484   5.561   7.279   4.200
  180TIP3    H1  485   5.506   7.251   4.273
  180TIP3    H2  486   5.557   7.374   4.202
  181TIP3   OH2  487   7.733   5.665   2.178
  181TIP3    H1  488   7.667   5.622   2.233
  181TIP3    H2  489   7.770   5.733   2.233
  182TIP3   OH2  490   7.378   1.977   6.741
  182TIP3    H1  491   7.432   1.899   6.757
  182TIP3    H2  492   7.317   1.978   6.815
  183TIP3   OH2  493   2.158   5.701   6.523
  183TIP3    H1  494   2.215   5.691   6.447
  183TIP3    H2  495   2.153   5.796   6.537
  184TIP3   OH2  496   7.257   7.630   2.727
  184TIP3    H1  497   7.290   7.550   2.769
  184TIP3    H2  498   7.329   7.659   2.671
  185TIP3   OH2  499   3.041   5.262   1.460
  185TIP3    H1  500   2.997   5.347   1.455
  185TIP3    H2  501   3.133   5.283   1.473
  186TIP3   OH2  502   7.495   0.917   4.445
  186TIP3    H1  503   7.476   0.827   4.471
  186TIP3    H2  504   7.437   0.933   4.370
  187TIP3   OH2  505   4.245   7.322   4.030
  187TIP3    H1  506   4.296   7.363   3.959
  187TIP3    H2  507   4.298   7.247   4.057
  188TIP3   OH2  508   5.065   1.015   5.684
  188TIP3    H1  509   5.083   1.108   5.695
  188TIP3    H2  510   5.057   1.003   5.590
  189TIP3   OH2  511   2.319   3.371   1.412
  189TIP3    H1  512   2.285   3.348   1.498
  189TIP3    H2  513   2.270   3.316   1.351
  190TIP3   OH2  514   3.330   6.990   0.534
  190TIP3    H1  515   3.247   6.969   0.490
  190TIP3    H2  516   3.383   6.911   0.522
  191TIP3   OH2  517   1.967   7.329   6.754
  191TIP3    H1  518   1.935   7.402   6.701
  191TIP3    H2  519   1.963   7.253   6.696
  192TIP3   OH2  520   4.943   4.775   6.390
  192TIP3    H1  521   4.920   4.821   6.471
  192TIP3    H2  522   4.894   4.822   6.321
  193TIP3   OH2  523   6.468   7.659   1.331
  193TIP3    H1  524   6.429   7.725   1.388
  193TIP3    H2  525   6.545   7.629   1.378
  194TIP3   OH2  526   6.353   5.480   4.105
  194TIP3    H1  527   6.428   5.420   4.099
  194TIP3    H2  528   6.338   5.490   4.199
  195TIP3   OH2  529   6.297   7.260   1.756
  195TIP3    H1  530   6.297   7.349   1.720
  195TIP3    H2  531   6.222   7.259   1.816
  196TIP3   OH2  532   1.598   2.633   1.631
  196TIP3    H1  533   1.693   2.635   1.649
  196TIP3    H2  534   1.583   2.711   1.578
  197TIP3   OH2  535   6.303   6.841   0.365
  197TIP3    H1  536   6.213   6.817   0.387
  197TIP3    H2  537   6.325   6.910   0.428
  198TIP3   OH2  538   5.619   6.487   2.255
  198TIP3    H1  539   5.576   6.413   2.212
  198TIP3    H2  540   5.570   6.500   2.336
  199TIP3   OH2  541   2.768   3.130   0.650
  199TIP3    H1  542   2.734   3.122   0.561
  199TIP3    H2  543   2.763   3.041   0.685
  200TIP3   OH2  544   3.029   5.502   4.406
  200TIP3    H1  545   2.937   5.511   4.380
  200TIP3    H2  546   3.026   5.473   4.497
  201TIP3   OH2  547   7.652   6.253   5.547
  201TIP3    H1  548   7.694   6.339   5.546
  201TIP3    H2  549   7.708   6.198   5.491
  202TIP3   OH2  550   7.356   6.888   5.339
  202TIP3    H1  551   7.393   6.968   5.301
  202TIP3    H2  552   7.317   6.916   5.422
  203TIP3   OH2  553   0.737   5.264   1.588
  203TIP3    H1  554   0.822   5.278   1.548
  203TIP3    H2  555   0.686   5.217   1.522
  204TIP3   OH2  556   3.614   4.837   5.074
  204TIP3    H1  557   3.603   4.907   5.137
  204TIP3    H2  558   3.531   4.789   5.075
  205TIP3   OH2  559   0.882   5.571   2.073
  205TIP3    H1  560   0.923   5.543   1.991
  205TIP3    H2  561   0.955   5.602   2.127
  206TIP3   OH2  562   4.412   4.595   6.494
  206TIP3    H1  563   4.475   4.591   6.422
  206TIP3    H2  564   4.454   4.549   6.566
  207TIP3   OH2  565   4.015   6.737   5.895
  207TIP3    H1  566   4.094   6.790   5.881
  207TIP3    H2  567   4.043   6.648   5.873
  208TIP3   OH2  568   6.849   3.350   4.118
  208TIP3    H1  569   6.799   3.422   4.158
  208TIP3    H2  570   6.851   3.370   4.025
  209TIP3   OH2  571   2.151   4.241   2.664
  209TIP3    H1  572   2.239   4.224   2.698
  209TIP3    H2  573   2.110   4.154   2.659
  210TIP3   OH2  574   0.321   4.796   4.687
  210TIP3    H1  575   0.352   4.709   4.662
  210TIP3    H2  576   0.226   4.786   4.695
  211TIP3   OH2  577   6.620   4.664   0.740
  211TIP3    H1  578   6.692   4.727   0.745
  211TIP3    H2  579   6.568   4.694   0.665
  212TIP3   OH2  580   1.231   7.052   0.620
  212TIP3    H1  581   1.144   7.088   0.636
  212TIP3    H2  582   1.274   7.054   0.705
  213TIP3   OH2  583   5.436   7.289   2.573
  213TIP3    H1  584   5.375   7.340   2.626
  213TIP3    H2  585   5.520   7.334   2.584
  214TIP3   OH2  586   7.196   2.567   6.576
  214TIP3    H1  587   7.286   2.585   6.547
  214TIP3    H2  588   7.149   2.649   6.561
  215TIP3   OH2  589   8.199   5.832   1.271
  215TIP3    H1  590   8.144   5.879   1.208
  215TIP3    H2  591   8.268   5.794   1.218
  216TIP3   OH2  592   1.578   2.368   3.548
  216TIP3    H1  593   1.526   2.385   3.469
  216TIP3    H2  594   1.557   2.440   3.607
  217TIP3   OH2  595   0.781   6.465   5.129
  217TIP3    H1  596   0.795   6.546   5.080
  217TIP3    H2  597   0.848   6.406   5.097
  218TIP3   OH2  598   0.224   2.143   2.987
  218TIP3    H1  599   0.223   2.239   2.988
  218TIP3    H2  600   0.250   2.118   3.076
  219TIP3   OH2  601   4.092   3.895   3.062
  219TIP3    H1  602   4.105   3.820   3.121
  219TIP3    H2  603   4.104   3.858   2.975
  220TIP3   OH2  604   2.130   3.568   1.762
  220TIP3    H1  605   2.093   3.618   1.689
  220TIP3    H2  606   2.219   3.601   1.770
  221TIP3   OH2  607   7.705   2.008   2.706
  221TIP3    H1  608   7.786   1.959   2.719
  221TIP3    H2  609   7.653   1.953   2.647
  222TIP3   OH2  610   0.862   0.122   4.898
  222TIP3    H1  611   0.879   0.033   4.931
  222TIP3    H2  612   0.932   0.175   4.937
  223TIP3   OH2  613   8.122   0.175   3.623
  223TIP3    H1  614   8.081   0.260   3.609
  223TIP3    H2  615   8.208   0.182   3.580
  224TIP3   OH2  616   1.684   5.237   4.855
  224TIP3    H1  617   1.754   5.291   4.818
  224TIP3    H2  618   1.684   5.259   4.948
  225TIP3   OH2  619   5.322   2.036   5.974
  225TIP3    H1  620   5.380   2.111   5.983
  225TIP3    H2  621   5.349   1.994   5.892
  226TIP3   OH2  622   1.036   6.008   5.846
  226TIP3    H1  623   1.070   5.937   5.792
  226TIP3    H2  624   1.098   6.015   5.918
  227TIP3   OH2  625   2.106   1.695   1.159
  227TIP3    H1  626   2.117   1.779   1.205
  227TIP3    H2  627   2.188   1.649   1.174
  228TIP3   OH2  628   0.361   6.453   3.210
  228TIP3    H1  629   0.399   6.455   3.298
  228TIP3    H2  630   0.412   6.388   3.163
  229TIP3   OH2  631   0.290   1.848   3.575
  229TIP3    H1  632   0.195   1.856   3.577
  229TIP3    H2  633   0.306   1.767   3.527
  230TIP3   OH2  634   7.225   2.805   2.506
  230TIP3    H1  635   7.163   2.744   2.546
  230TIP3    H2  636   7.299   2.806   2.567
  231TIP3   OH2  637   4.288   3.331   4.959
  231TIP3    H1  638   4.330   3.247   4.939
  231TIP3    H2  639   4.260   3.365   4.874
  232TIP3   OH2  640   1.728   3.857   2.568
  232TIP3    H1  641   1.658   3.792   2.576
  232TIP3    H2  642   1.721   3.909   2.648
  233TIP3   OH2  643   4.034   2.164   6.238
  233TIP3    H1  644   4.007   2.138   6.150
  233TIP3    H2  645   4.084   2.244   6.224
  234TIP3   OH2  646   2.200   2.364   3.905
  234TIP3    H1  647   2.139   2.298   3.873
  234TIP3    H2  648   2.286   2.329   3.883
  235TIP3   OH2  649   2.848   1.898   0.650
  235TIP3    H1  650   2.769   1.864   0.691
  235TIP3    H2  651   2.820   1.978   0.605
  236TIP3   OH2  652   5.635   3.701   2.600
  236TIP3    H1  653   5.634   3.797   2.605
  236TIP3    H2  654   5.699   3.674   2.665
  237TIP3   OH2  655   6.780   5.202   3.843
  237TIP3    H1  656   6.687   5.216   3.859
  237TIP3    H2  657   6.811   5.157   3.921
  238TIP3   OH2  658   0.855   3.395   4.370
  238TIP3    H1  659   0.823   3.443   4.447
  238TIP3    H2  660   0.947   3.421   4.363
  239TIP3   OH2  661   5.478   6.794   2.058
  239TIP3    H1  662   5.480   6.867   2.119
  239TIP3    H2  663   5.507   6.831   1.974
  240TIP3   OH2  664   0.638   3.341   3.538
  240TIP3    H1  665   0.582   3.265   3.527
  240TIP3    H2  666   0.654   3.346   3.633
  241TIP3   OH2  667   7.514   6.510   0.370
  241TIP3    H1  668   7.571   6.569   0.321
  241TIP3    H2  669   7.522   6.426   0.326
  242TIP3   OH2  670   4.524   7.279   4.461
  242TIP3    H1  671   4.571   7.358   4.485
  242TIP3    H2  672   4.467   7.306   4.389
  243TIP3   OH2  673   6.054   0.020   1.681
  243TIP3    H1  674   6.134   0.045   1.636
  243TIP3    H2  675   6.082  -0.003   1.770
  244TIP3   OH2  676   0.637   1.322   1.142
  244TIP3    H1  677   0.589   1.262   1.199
  244TIP3    H2  678   0.728   1.314   1.172
  245TIP3   OH2  679   1.383   1.593   6.160
  245TIP3    H1  680   1.376   1.587   6.256
  245TIP3    H2  681   1.369   1.686   6.141
  246TIP3   OH2  682   0.880   3.433   5.884
  246TIP3    H1  683   0.879   3.480   5.967
  246TIP3    H2  684   0.797   3.457   5.842
  247TIP3   OH2  685   7.980   1.879   0.771
  247TIP3    H1  686   8.004   1.959   0.725
  247TIP3    H2  687   7.995   1.809   0.706
  248TIP3   OH2  688   3.491   1.917   3.248
  248TIP3    H1  689   3.536   1.912   3.164
  248TIP3    H2  690   3.414   1.862   3.237
  249TIP3   OH2  691   1.458   2.384   5.034
  249TIP3    H1  692   1.451   2.292   5.009
  249TIP3    H2  693   1.510   2.424   4.964
  250TIP3   OH2  694   4.371   2.426   5.634
  250TIP3    H1  695   4.364   2.497   5.698
  250TIP3    H2  696   4.462   2.397   5.641
  251TIP3   OH2  697   6.664   5.913   0.149
  251TIP3    H1  698   6.722   5.921   0.226
  251TIP3    H2  699   6.592   5.858   0.179
  252TIP3   OH2  700   7.253   5.010   3.041
  252TIP3    H1  701   7.345   5.025   3.019
  252TIP3    H2  702   7.205   5.037   2.963
  253TIP3   OH2  703   2.127   1.863   0.232
  253TIP3    H1  704   2.094   1.773   0.225
  253TIP3    H2  705   2.100   1.890   0.320
  254TIP3   OH2  706   3.106   5.716   5.919
  254TIP3    H1  707   3.178   5.768   5.956
  254TIP3    H2  708   3.149   5.644   5.873
  255TIP3   OH2  709   6.156   1.068   3.237
  255TIP3    H1  710   6.062   1.056   3.253
  255TIP3    H2  711   6.190   1.102   3.320
  256TIP3   OH2  712   5.733   5.107   1.978
  256TIP3    H1  713   5.693   5.186   1.944
  256TIP3    H2  714   5.790   5.137   2.049
  257TIP3   OH2  715   1.025   1.930   2.749
  257TIP3    H1  716   1.014   1.914   2.843
  257TIP3    H2  717   1.096   1.995   2.744
  258TIP3   OH2  718   7.280   7.663   5.832
  258TIP3    H1  719   7.280   7.570   5.808
  258TIP3    H2  720   7.240   7.708   5.757
  259TIP3   OH2  721   1.924   3.401   0.101
  259TIP3    H1  722   1.941   3.327   0.159
  259TIP3    H2  723   2.003   3.454   0.106
  260TIP3   OH2  724   3.755   2.417   6.136
  260TIP3    H1  725   3.745   2.414   6.232
  260TIP3    H2  726   3.667   2.438   6.104
  261TIP3   OH2  727   6.183   1.306   6.042
  261TIP3    H1  728   6.115   1.357   6.085
  261TIP3    H2  729   6.264   1.331   6.086
  262TIP3   OH2  730   2.767   4.503   1.307
  262TIP3    H1  731   2.826   4.436   1.273
  262TIP3    H2  732   2.687   4.456   1.330
  263TIP3   OH2  733   4.546   2.016   3.046
  263TIP3    H1  734   4.639   1.994   3.048
  263TIP3    H2  735   4.506   1.944   2.996
  264TIP3   OH2  736   3.742   0.294   6.202
  264TIP3    H1  737   3.817   0.250   6.243
  264TIP3    H2  738   3.666   0.247   6.236
  265TIP3   OH2  739   0.914   5.721   5.315
  265TIP3    H1  740   0.928   5.812   5.341
  265TIP3    H2  741   0.931   5.671   5.394
  266TIP3   OH2  742   4.427   4.346   2.551
  266TIP3    H1  743   4.375   4.426   2.543
  266TIP3    H2  744   4.371   4.278   2.511
  267TIP3   OH2  745   0.664   0.934   3.717
  267TIP3    H1  746   0.634   0.910   3.805
  267TIP3    H2  747   0.598   0.995   3.685
  268TIP3   OH2  748   6.296   3.064   4.532
  268TIP3    H1  749   6.371   3.088   4.587
  268TIP3    H2  750   6.330   2.997   4.473
  269TIP3   OH2  751   6.340   6.894   2.329
  269TIP3    H1  752   6.390   6.816   2.303
  269TIP3    H2  753   6.291   6.866   2.406
  270TIP3   OH2  754   8.069   3.958   4.179
  270TIP3    H1  755   8.113   3.886   4.133
  270TIP3    H2  756   8.139   4.003   4.226
  271TIP3   OH2  757   2.772   6.095   4.826
  271TIP3    H1  758   2.684   6.061   4.812
  271TIP3    H2  759   2.821   6.020   4.861
  272TIP3   OH2  760   1.833   7.377   5.215
  272TIP3    H1  761   1.889   7.350   5.288
  272TIP3    H2  762   1.861   7.467   5.195
  273TIP3   OH2  763   3.317   7.423   4.781
  273TIP3    H1  764   3.370   7.434   4.861
  273TIP3    H2  765   3.355   7.486   4.720
  274TIP3   OH2  766   7.860   1.150   4.133
  274TIP3    H1  767   7.792   1.095   4.096
  274TIP3    H2  768   7.824   1.239   4.130
  275TIP3   OH2  769   4.828   5.168   5.749
  275TIP3    H1  770   4.763   5.175   5.819
  275TIP3    H2  771   4.783   5.203   5.671
  276TIP3   OH2  772   3.219   4.772   3.214
  276TIP3    H1  773   3.162   4.786   3.138
  276TIP3    H2  774   3.212   4.854   3.264
  277TIP3   OH2  775   6.278   5.497   0.811
  277TIP3    H1  776   6.200   5.530   0.766
  277TIP3    H2  777   6.348   5.559   0.786
  278TIP3   OH2  778   6.288   6.811   2.575
  278TIP3    H1  779   6.282   6.890   2.629
  278TIP3    H2  780   6.312   6.742   2.637
  279TIP3   OH2  781   3.771   2.543   1.379
  279TIP3    H1  782   3.866   2.541   1.391
  279TIP3    H2  783   3.758   2.596   1.301
  280TIP3   OH2  784   3.796   7.759   2.049
  280TIP3    H1  785   3.806   7.850   2.077
  280TIP3    H2  786   3.706   7.737   2.072
  281TIP3   OH2  787   4.834   0.062   5.727
  281TIP3    H1  788   4.910   0.032   5.677
  281TIP3    H2  789   4.817   0.150   5.694
  282TIP3   OH2  790   0.760   2.667   0.367
  282TIP3    H1  791   0.804   2.747   0.340
  282TIP3    H2  792   0.728   2.685   0.455
  283TIP3   OH2  793   4.960   3.827   1.264
  283TIP3    H1  794   5.012   3.801   1.340
  283TIP3    H2  795   4.907   3.750   1.243
  284TIP3   OH2  796   1.935   1.893   4.312
  284TIP3    H1  797   1.918   1.987   4.318
  284TIP3    H2  798   1.943   1.864   4.403
  285TIP3   OH2  799   3.626   7.135   4.874
  285TIP3    H1  800   3.605   7.052   4.830
  285TIP3    H2  801   3.711   7.120   4.914
  286TIP3   OH2  802   3.066   2.774   5.035
  286TIP3    H1  803   3.065   2.682   5.062
  286TIP3    H2  804   3.115   2.774   4.952
  287TIP3   OH2  805   1.421   1.647   5.702
  287TIP3    H1  806   1.494   1.669   5.759
  287TIP3    H2  807   1.382   1.569   5.743
  288TIP3   OH2  808   4.843   7.352   0.156
  288TIP3    H1  809   4.833   7.379   0.247
  288TIP3    H2  810   4.888   7.426   0.115
  289TIP3   OH2  811   1.979   6.293   5.754
  289TIP3    H1  812   2.067   6.316   5.782
  289TIP3    H2  813   1.955   6.362   5.692
  290TIP3   OH2  814   1.279   2.757   2.034
  290TIP3    H1  815   1.325   2.744   2.117
  290TIP3    H2  816   1.342   2.732   1.967
  291TIP3   OH2  817   8.141   4.763   4.401
  291TIP3    H1  818   8.048   4.763   4.424
  291TIP3    H2  819   8.157   4.848   4.360
  292TIP3   OH2  820   4.812   2.933   6.434
  292TIP3    H1  821   4.882   2.876   6.400
  292TIP3    H2  822   4.834   3.020   6.402
  293TIP3   OH2  823   0.765   2.213   5.417
  293TIP3    H1  824   0.686   2.229   5.365
  293TIP3    H2  825   0.793   2.300   5.446
  294TIP3   OH2  826   2.615   7.753   4.193
  294TIP3    H1  827   2.682   7.695   4.229
  294TIP3    H2  828   2.623   7.834   4.243
  295TIP3   OH2  829   4.453   7.157   4.100
  295TIP3    H1  830   4.531   7.200   4.134
  295TIP3    H2  831   4.479   7.126   4.013
  296TIP3   OH2  832   4.060   3.797   1.399
  296TIP3    H1  833   3.985   3.785   1.341
  296TIP3    H2  834   4.114   3.863   1.355
  297TIP3   OH2  835   6.807   6.057   0.949
  297TIP3    H1  836   6.712   6.054   0.951
  297TIP3    H2  837   6.833   5.980   0.899
  298TIP3   OH2  838   7.838   0.471   2.147
  298TIP3    H1  839   7.776   0.433   2.085
  298TIP3    H2  840   7.783   0.521   2.208
  299TIP3   OH2  841   7.007   5.252   4.764
  299TIP3    H1  842   6.974   5.189   4.701
  299TIP3    H2  843   6.997   5.209   4.849
  300TIP3   OH2  844   5.994   7.160   5.815
  300TIP3    H1  845   6.088   7.142   5.803
  300TIP3    H2  846   5.989   7.206   5.898
  301TIP3   OH2  847   7.189   4.127   6.397
  301TIP3    H1  848   7.271   4.168   6.425
  301TIP3    H2  849   7.207   4.094   6.309
  302TIP3   OH2  850   3.963   5.014   2.545
  302TIP3    H1  851   3.977   5.039   2.637
  302TIP3    H2  852   4.045   4.973   2.519
  303TIP3   OH2  853   5.126   2.917   3.693
  303TIP3    H1  854   5.163   2.970   3.623
  303TIP3    H2  855   5.089   2.980   3.754
  304TIP3   OH2  856   5.461   7.431   5.666
  304TIP3    H1  857   5.527   7.437   5.598
  304TIP3    H2  858   5.510   7.440   5.748
  305TIP3   OH2  859   1.151   5.828   4.126
  305TIP3    H1  860   1.138   5.734   4.143
  305TIP3    H2  861   1.116   5.841   4.037
  306TIP3   OH2  862   3.009   3.265   4.381
  306TIP3    H1  863   3.004   3.338   4.319
  306TIP3    H2  864   3.011   3.187   4.326
  307TIP3   OH2  865   1.181   5.383   5.598
  307TIP3    H1  866   1.197   5.290   5.617
  307TIP3    H2  867   1.177   5.388   5.503
  308TIP3   OH2  868   4.827   7.774   5.158
  308TIP3    H1  869   4.908   7.729   5.183
  308TIP3    H2  870   4.758   7.711   5.176
  309TIP3   OH2  871   3.227   5.070   2.658
  309TIP3    H1  872   3.300   5.069   2.597
  309TIP3    H2  873   3.251   5.136   2.724
  310TIP3   OH2  874   4.609   0.715   2.875
  310TIP3    H1  875   4.696   0.706   2.836
  310TIP3    H2  876   4.549   0.688   2.805
  311TIP3   OH2  877   5.010   3.318   6.205
  311TIP3    H1  878   5.023   3.282   6.293
  311TIP3    H2  879   4.973   3.405   6.220
  312TIP3   OH2  880   7.856   5.175   3.214
  312TIP3    H1  881   7.864   5.261   3.256
  312TIP3    H2  882   7.888   5.113   3.279
  313TIP3   OH2  883   2.383   0.547   2.748
  313TIP3    H1  884   2.325   0.566   2.675
  313TIP3    H2  885   2.426   0.465   2.724
  314TIP3   OH2  886   0.285   7.342   1.851
  314TIP3    H1  887   0.356   7.308   1.796
  314TIP3    H2  888   0.289   7.437   1.837
  315TIP3   OH2  889   6.810   6.972   5.540
  315TIP3    H1  890   6.774   7.000   5.624
  315TIP3    H2  891   6.737   6.980   5.479
  316TIP3   OH2  892   6.587   4.161   3.597
  316TIP3    H1  893   6.593   4.079   3.547
  316TIP3    H2  894   6.509   4.149   3.652
  317TIP3   OH2  895   1.567   6.561   4.062
  317TIP3    H1  896   1.475   6.578   4.079
  317TIP3    H2  897   1.603   6.645   4.032
  318TIP3   OH2  898   2.050   5.016   6.290
  318TIP3    H1  899   2.039   4.928   6.326
  318TIP3    H2  900   2.145   5.030   6.290
  319TIP3   OH2  901   7.618   0.802   6.297
  319TIP3    H1  902   7.557   0.853   6.351
  319TIP3    H2  903   7.562   0.743   6.247
  320TIP3   OH2  904   5.735   4.164   6.329
  320TIP3    H1  905   5.670   4.199   6.390
  320TIP3    H2  906   5.782   4.241   6.297
  321TIP3   OH2  907   2.793   7.814   3.825
  321TIP3    H1  908   2.801   7.854   3.912
  321TIP3    H2  909   2.879   7.826   3.785
  322TIP3   OH2  910   4.720   1.168   0.846
  322TIP3    H1  911   4.744   1.088   0.893
  322TIP3    H2  912   4.682   1.225   0.913
  323TIP3   OH2  913   0.972   7.210   0.221
  323TIP3    H1  914   0.928   7.285   0.179
  323TIP3    H2  915   0.928   7.202   0.306
  324TIP3   OH2  916   5.297   4.398   0.912
  324TIP3    H1  917   5.220   4.416   0.858
  324TIP3    H2  918   5.326   4.311   0.885
  325TIP3   OH2  919   8.061   1.350   6.092
  325TIP3    H1  920   8.106   1.414   6.037
  325TIP3    H2  921   8.108   1.268   6.077
  326TIP3   OH2  922   6.656   7.187   5.151
  326TIP3    H1  923   6.690   7.098   5.162
  326TIP3    H2  924   6.734   7.243   5.148
  327TIP3   OH2  925   0.864   0.267   0.543
  327TIP3    H1  926   0.949   0.222   0.547
  327TIP3    H2  927   0.851   0.284   0.449
  328TIP3   OH2  928   0.755   1.355   1.695
  328TIP3    H1  929   0.698   1.278   1.697
  328TIP3    H2  930   0.834   1.327   1.741
  329TIP3   OH2  931   2.996   3.465   1.087
  329TIP3    H1  932   3.006   3.530   1.156
  329TIP3    H2  933   2.908   3.479   1.052
  330TIP3   OH2  934   3.869   6.434   5.853
  330TIP3    H1  935   3.855   6.395   5.940
  330TIP3    H2  936   3.792   6.489   5.838
  331TIP3   OH2  937   1.728   5.725   3.823
  331TIP3    H1  938   1.676   5.710   3.744
  331TIP3    H2  939   1.741   5.820   3.826
  332TIP3   OH2  940   2.790   1.935   2.188
  332TIP3    H1  941   2.755   1.858   2.234
  332TIP3    H2  942   2.863   1.965   2.242
  333TIP3   OH2  943   6.392   1.509   4.282
  333TIP3    H1  944   6.423   1.538   4.197
  333TIP3    H2  945   6.310   1.556   4.296
  334TIP3   OH2  946   2.960   4.958   1.712
  334TIP3    H1  947   2.938   4.865   1.706
  334TIP3    H2  948   3.041   4.967   1.662
  335TIP3   OH2  949   6.542   7.048   0.138
  335TIP3    H1  950   6.606   7.014   0.077
  335TIP3    H2  951   6.463   7.062   0.085
  336TIP3   OH2  952   0.248   6.784   0.902
  336TIP3    H1  953   0.246   6.872   0.938
  336TIP3    H2  954   0.156   6.762   0.888
  337TIP3   OH2  955   1.940   7.311   3.257
  337TIP3    H1  956   2.013   7.252   3.277
  337TIP3    H2  957   1.954   7.336   3.166
  338TIP3   OH2  958   7.468   6.309   6.683
  338TIP3    H1  959   7.556   6.343   6.701
  338TIP3    H2  960   7.448   6.254   6.758
  339TIP3   OH2  961   6.271   3.020   5.524
  339TIP3    H1  962   6.300   3.065   5.445
  339TIP3    H2  963   6.227   3.088   5.576
  340TIP3   OH2  964   7.703   6.910   3.298
  340TIP3    H1  965   7.754   6.923   3.377
  340TIP3    H2  966   7.736   6.975   3.236
  341TIP3   OH2  967   3.856   1.365   5.187
  341TIP3    H1  968   3.890   1.449   5.218
  341TIP3    H2  969   3.882   1.361   5.095
  342TIP3   OH2  970   3.759   6.790   0.965
  342TIP3    H1  971   3.708   6.774   1.045
  342TIP3    H2  972   3.752   6.884   0.951
  343TIP3   OH2  973   3.900   2.726   1.192
  343TIP3    H1  974   3.946   2.665   1.250
  343TIP3    H2  975   3.970   2.779   1.153
  344TIP3   OH2  976   0.161   4.756   2.017
  344TIP3    H1  977   0.253   4.738   1.994
  344TIP3    H2  978   0.143   4.842   1.980
  345TIP3   OH2  979   1.653   6.622   6.535
  345TIP3    H1  980   1.708   6.546   6.516
  345TIP3    H2  981   1.601   6.634   6.456
  346TIP3   OH2  982   7.551   6.672   5.964
  346TIP3    H1  983   7.514   6.584   5.959
  346TIP3    H2  984   7.645   6.658   5.981
  347TIP3   OH2  985   7.024   0.059   0.414
  347TIP3    H1  986   6.931   0.056   0.391
  347TIP3    H2  987   7.062   0.119   0.350
  348TIP3   OH2  988   4.290   5.235   2.586
  348TIP3    H1  989   4.347   5.273   2.653
  348TIP3    H2  990   4.232   5.307   2.559
  349TIP3   OH2  991   6.026   1.205   3.697
  349TIP3    H1  992   5.988   1.290   3.676
  349TIP3    H2  993   5.950   1.146   3.705
  350TIP3   OH2  994   4.720   5.493   3.589
  350TIP3    H1  995   4.772   5.550   3.531
  350TIP3    H2  996   4.668   5.439   3.529
  351TIP3   OH2  997   7.420   7.578   2.187
  351TIP3    H1  998   7.470   7.496   2.189
  351TIP3    H2  999   7.337   7.555   2.146
  352TIP3   OH2 1000   2.281   1.169   1.766
  352TIP3    H1 1001   2.292   1.077   1.743
  352TIP3    H2 1002   2.193   1.174   1.802
  353TIP3   OH2 1003   6.189   7.492   5.387
  353TIP3    H1 1004   6.119   7.505   5.323
  353TIP3    H2 1005   6.156   7.532   5.468
  354TIP3   OH2 1006   8.107   3.397   4.494
  354TIP3    H1 1007   8.099   3.429   4.403
  354TIP3    H2 1008   8.179   3.335   4.491
  355TIP3   OH2 1009   1.674   6.657   5.417
  355TIP3    H1 1010   1.616   6.718   5.371
  355TIP3    H2 1011   1.692   6.699   5.500
  356TIP3   OH2 1012   0.359   1.193   2.040
  356TIP3    H1 1013   0.284   1.238   2.080
  356TIP3    H2 1014   0.333   1.180   1.949
  357TIP3   OH2 1015   1.250   5.847   1.651
  357TIP3    H1 1016   1.326   5.792   1.671
  357TIP3    H2 1017   1.285   5.918   1.598
  358TIP3   OH2 1018   5.017   0.288   2.320
  358TIP3    H1 1019   5.014   0.294   2.225
  358TIP3    H2 1020   4.986   0.373   2.351
  359TIP3   OH2 1021   1.002   0.091   3.549
  359TIP3    H1 1022   0.926   0.146   3.529
  359TIP3    H2 1023   1.052   0.141   3.614
  360TIP3   OH2 1024   4.868   0.129   3.155
  360TIP3    H1 1025   4.815   0.208   3.167
  360TIP3    H2 1026   4.935   0.135   3.222
  361TIP3   OH2 1027   1.977   4.444   3.781
  361TIP3    H1 1028   1.898   4.463   3.730
  361TIP3    H2 1029   1.968   4.499   3.859
  362TIP3   OH2 1030   2.873   2.678   2.342
  362TIP3    H1 1031   2.911   2.590   2.345
  362TIP3    H2 1032   2.901   2.719   2.424
  363TIP3   OH2 1033   2.363   1.963   2.689
  363TIP3    H1 1034   2.455   1.979   2.670
  363TIP3    H2 1035   2.321   1.961   2.603
  364TIP3   OH2 1036   6.740   5.060   4.445
  364TIP3    H1 1037   6.800   5.040   4.517
  364TIP3    H2 1038   6.768   5.001   4.375
  365TIP3   OH2 1039   0.077   6.420   1.501
  365TIP3    H1 1040   0.085   6.476   1.423
  365TIP3    H2 1041  -0.017   6.406   1.511
  366TIP3   OH2 1042   4.573   7.648   5.017
  366TIP3    H1 1043   4.486   7.611   5.001
  366TIP3    H2 1044   4.576   7.660   5.112
  367TIP3   OH2 1045   3.640   7.335   5.703
  367TIP3    H1 1046   3.655   7.302   5.792
  367TIP3    H2 1047   3.631   7.256   5.650
  368TIP3   OH2 1048   0.061   3.738   0.727
  368TIP3    H1 1049   0.083   3.647   0.746
  368TIP3    H2 1050   0.101   3.788   0.798
  369TIP3   OH2 1051   6.410   2.580   1.661
  369TIP3    H1 1052   6.388   2.580   1.754
  369TIP3    H2 1053   6.470   2.507   1.650
  370TIP3   OH2 1054   1.442   5.885   5.574
  370TIP3    H1 1055   1.522   5.938   5.572
  370TIP3    H2 1056   1.444   5.836   5.492
  371TIP3   OH2 1057   7.708   3.225   1.535
  371TIP3    H1 1058   7.777   3.207   1.599
  371TIP3    H2 1059   7.726   3.313   1.504
  372TIP3   OH2 1060   0.490   6.204   4.221
  372TIP3    H1 1061   0.420   6.138   4.230
  372TIP3    H2 1062   0.507   6.233   4.310
  373TIP3   OH2 1063   5.042   1.482   6.559
  373TIP3    H1 1064   4.981   1.410   6.578
  373TIP3    H2 1065   5.046   1.486   6.464
  374TIP3   OH2 1066   0.364   7.230   0.897
  374TIP3    H1 1067   0.391   7.138   0.900
  374TIP3    H2 1068   0.381   7.262   0.986
  375TIP3   OH2 1069   5.150   1.009   5.955
  375TIP3    H1 1070   5.133   1.004   5.861
  375TIP3    H2 1071   5.069   1.047   5.991
  376TIP3   OH2 1072   6.883   2.150   4.187
  376TIP3    H1 1073   6.832   2.230   4.192
  376TIP3    H2 1074   6.943   2.154   4.262
  377TIP3   OH2 1075   3.427   6.131   2.965
  377TIP3    H1 1076   3.508   6.096   2.928
  377TIP3    H2 1077   3.456   6.190   3.034
  378TIP3   OH2 1078   3.335   1.701   1.102
  378TIP3    H1 1079   3.308   1.638   1.036
  378TIP3    H2 1080   3.273   1.689   1.174
  379TIP3   OH2 1081   6.847   1.020   0.154
  379TIP3    H1 1082   6.762   0.976   0.151
  379TIP3    H2 1083   6.834   1.102   0.107
  380TIP3   OH2 1084   2.130   6.685   4.343
  380TIP3    H1 1085   2.186   6.661   4.270
  380TIP3    H2 1086   2.187   6.735   4.402
  381TIP3   OH2 1087   1.052   3.811   4.183
  381TIP3    H1 1088   1.126   3.852   4.228
  381TIP3    H2 1089   1.059   3.842   4.093
  382TIP3   OH2 1090   6.977   3.459   2.637
  382TIP3    H1 1091   6.911   3.487   2.574
  382TIP3    H2 1092   7.008   3.541   2.676
  383TIP3   OH2 1093   3.022   3.230   6.309
  383TIP3    H1 1094   2.996   3.250   6.219
  383TIP3    H2 1095   3.115   3.251   6.312
  384TIP3   OH2 1096   5.211   6.674   4.471
  384TIP3    H1 1097   5.255   6.614   4.531
  384TIP3    H2 1098   5.243   6.761   4.496
  385TIP3   OH2 1099   1.064   4.225   0.987
  385TIP3    H1 1100   1.117   4.159   1.033
  385TIP3    H2 1101   1.127   4.273   0.933
  386TIP3   OH2 1102   3.449   3.146   1.375
  386TIP3    H1 1103   3.542   3.165   1.362
  386TIP3    H2 1104   3.420   3.110   1.291
  387TIP3   OH2 1105   5.104   6.391   1.625
  387TIP3    H1 1106   5.119   6.484   1.612
  387TIP3    H2 1107   5.087   6.357   1.537
  388TIP3   OH2 1108   5.597   5.870   2.890
  388TIP3    H1 1109   5.543   5.923   2.831
  388TIP3    H2 1110   5.556   5.879   2.975
  389TIP3   OH2 1111   3.312   1.395   5.938
  389TIP3    H1 1112   3.266   1.338   5.876
  389TIP3    H2 1113   3.251   1.406   6.011
  390TIP3   OH2 1114   8.223   4.423   4.435
  390TIP3    H1 1115   8.196   4.460   4.351
  390TIP3    H2 1116   8.209   4.329   4.426
  391TIP3   OH2 1117   4.789   3.005   5.147
  391TIP3    H1 1118   4.837   3.033   5.225
  391TIP3    H2 1119   4.729   2.938   5.179
  392TIP3   OH2 1120   1.786   3.069   0.224
  392TIP3    H1 1121   1.837   3.012   0.281
  392TIP3    H2 1122   1.788   3.026   0.139
  393TIP3   OH2 1123   3.009   1.837   3.861
  393TIP3    H1 1124   2.988   1.925   3.892
  393TIP3    H2 1125   2.933   1.810   3.809
  394TIP3   OH2 1126   0.498   0.698   4.158
  394TIP3    H1 1127   0.570   0.636   4.150
  394TIP3    H2 1128   0.520   0.751   4.234
  395TIP3   OH2 1129   3.458   4.800   0.595
  395TIP3    H1 1130   3.460   4.859   0.520
  395TIP3    H2 1131   3.510   4.724   0.567
  396TIP3   OH2 1132   7.384   0.044   1.576
  396TIP3    H1 1133   7.460   0.084   1.618
  396TIP3    H2 1134   7.389  -0.048   1.598
  397TIP3   OH2 1135   2.508   4.695   5.639
  397TIP3    H1 1136   2.524   4.616   5.691
  397TIP3    H2 1137   2.567   4.761   5.677
  398TIP3   OH2 1138   7.291   1.442   1.888
  398TIP3    H1 1139   7.237   1.369   1.859
  398TIP3    H2 1140   7.328   1.478   1.808
  399TIP3   OH2 1141   0.877   5.938   1.248
  399TIP3    H1 1142   0.807   5.940   1.182
  399TIP3    H2 1143   0.843   5.881   1.317
  400TIP3   OH2 1144   5.573   5.722   1.328
  400TIP3    H1 1145   5.663   5.689   1.333
  400TIP3    H2 1146   5.579   5.815   1.348
  401TIP3   OH2 1147   0.297   7.781   6.181
  401TIP3    H1 1148   0.298   7.737   6.096
  401TIP3    H2 1149   0.207   7.810   6.193
  402TIP3   OH2 1150   5.882   5.814   6.560
  402TIP3    H1 1151   5.862   5.817   6.467
  402TIP3    H2 1152   5.796   5.812   6.603
  403TIP3   OH2 1153   2.056   7.019   3.763
  403TIP3    H1 1154   1.987   7.071   3.802
  403TIP3    H2 1155   2.095   6.972   3.836
  404TIP3   OH2 1156   6.425   5.285   3.554
  404TIP3    H1 1157   6.469   5.205   3.583
  404TIP3    H2 1158   6.349   5.293   3.612
  405TIP3   OH2 1159   0.452   5.616   3.651
  405TIP3    H1 1160   0.459   5.680   3.722
  405TIP3    H2 1161   0.430   5.534   3.695
  406TIP3   OH2 1162   0.025   4.100   4.589
  406TIP3    H1 1163  -0.053   4.085   4.642
  406TIP3    H2 1164   0.094   4.121   4.652
  407TIP3   OH2 1165   4.958   5.709   4.757
  407TIP3    H1 1166   4.960   5.618   4.728
  407TIP3    H2 1167   4.939   5.704   4.850
  408TIP3   OH2 1168   3.438   1.069   3.008
  408TIP3    H1 1169   3.506   1.081   2.942
  408TIP3    H2 1170   3.457   1.134   3.075
  409TIP3   OH2 1171   3.612   6.595   6.488
  409TIP3    H1 1172   3.639   6.616   6.399
  409TIP3    H2 1173   3.543   6.659   6.509
  410TIP3   OH2 1174   5.532   0.862   2.619
  410TIP3    H1 1175   5.439   0.885   2.612
  410TIP3    H2 1176   5.570   0.934   2.669
  411TIP3   OH2 1177   3.098   3.556   3.385
  411TIP3    H1 1178   3.090   3.643   3.424
  411TIP3    H2 1179   3.170   3.514   3.432
  412TIP3   OH2 1180   1.651   3.893   0.474
  412TIP3    H1 1181   1.655   3.799   0.462
  412TIP3    H2 1182   1.730   3.915   0.523
  413TIP3   OH2 1183   4.282   1.270   2.810
  413TIP3    H1 1184   4.357   1.255   2.753
  413TIP3    H2 1185   4.314   1.252   2.898
  414TIP3   OH2 1186   3.489   4.513   0.953
  414TIP3    H1 1187   3.418   4.575   0.936
  414TIP3    H2 1188   3.561   4.544   0.898
  415TIP3   OH2 1189   1.097   2.945   6.333
  415TIP3    H1 1190   1.144   3.015   6.288
  415TIP3    H2 1191   1.159   2.912   6.399
  416TIP3   OH2 1192   5.337   1.919   5.451
  416TIP3    H1 1193   5.310   1.859   5.520
  416TIP3    H2 1194   5.255   1.949   5.411
  417TIP3   OH2 1195   5.709   5.946   5.465
  417TIP3    H1 1196   5.688   6.040   5.462
  417TIP3    H2 1197   5.625   5.902   5.456
  418TIP3   OH2 1198   5.835   3.998   4.140
  418TIP3    H1 1199   5.820   3.944   4.063
  418TIP3    H2 1200   5.811   4.087   4.112
  419TIP3   OH2 1201   6.343   6.196   2.742
  419TIP3    H1 1202   6.296   6.276   2.768
  419TIP3    H2 1203   6.429   6.205   2.784
  420TIP3   OH2 1204   6.218   2.149   1.305
  420TIP3    H1 1205   6.239   2.183   1.392
  420TIP3    H2 1206   6.154   2.080   1.322
  421TIP3   OH2 1207   1.555   2.294   0.917
  421TIP3    H1 1208   1.579   2.385   0.903
  421TIP3    H2 1209   1.615   2.244   0.861
  422TIP3   OH2 1210   6.598   4.275   0.347
  422TIP3    H1 1211   6.572   4.185   0.366
  422TIP3    H2 1212   6.692   4.278   0.365
  423TIP3   OH2 1213   6.983   7.109   6.690
  423TIP3    H1 1214   6.942   7.083   6.608
  423TIP3    H2 1215   7.033   7.032   6.717
  424TIP3   OH2 1216   6.460   6.243   5.877
  424TIP3    H1 1217   6.413   6.198   5.807
  424TIP3    H2 1218   6.501   6.318   5.834
  425TIP3   OH2 1219   2.013   6.874   0.345
  425TIP3    H1 1220   2.087   6.833   0.299
  425TIP3    H2 1221   2.054   6.934   0.408
  426TIP3   OH2 1222   7.045   4.920   3.729
  426TIP3    H1 1223   7.111   4.963   3.674
  426TIP3    H2 1224   7.066   4.827   3.721
  427TIP3   OH2 1225   0.056   7.142   4.680
  427TIP3    H1 1226   0.080   7.058   4.719
  427TIP3    H2 1227   0.113   7.206   4.722
  428TIP3   OH2 1228   8.078   7.181   5.643
  428TIP3    H1 1229   8.054   7.146   5.557
  428TIP3    H2 1230   8.081   7.104   5.700
  429TIP3   OH2 1231   6.120   6.439   1.950
  429TIP3    H1 1232   6.205   6.394   1.952
  429TIP3    H2 1233   6.141   6.526   1.917
  430TIP3   OH2 1234   0.926   4.202   4.189
  430TIP3    H1 1235   0.843   4.197   4.141
  430TIP3    H2 1236   0.906   4.165   4.275
  431TIP3   OH2 1237   7.252   4.983   0.998
  431TIP3    H1 1238   7.316   5.054   1.007
  431TIP3    H2 1239   7.176   5.025   0.958
  432TIP3   OH2 1240   5.936   6.484   4.783
  432TIP3    H1 1241   5.958   6.406   4.835
  432TIP3    H2 1242   5.853   6.461   4.741
  433TIP3   OH2 1243   3.380   2.487   4.879
  433TIP3    H1 1244   3.439   2.483   4.804
  433TIP3    H2 1245   3.374   2.396   4.910
  434TIP3   OH2 1246   7.091   6.550   1.048
  434TIP3    H1 1247   7.184   6.569   1.062
  434TIP3    H2 1248   7.089   6.457   1.025
  435TIP3   OH2 1249   1.627   3.145   4.787
  435TIP3    H1 1250   1.700   3.085   4.799
  435TIP3    H2 1251   1.655   3.203   4.717
  436TIP3   OH2 1252   2.986   5.332   5.097
  436TIP3    H1 1253   3.004   5.371   5.182
  436TIP3    H2 1254   3.070   5.295   5.070
  437TIP3   OH2 1255   0.708   5.235   5.002
  437TIP3    H1 1256   0.734   5.247   5.094
  437TIP3    H2 1257   0.663   5.316   4.980
  438TIP3   OH2 1258   4.184   2.616   1.776
  438TIP3    H1 1259   4.158   2.696   1.730
  438TIP3    H2 1260   4.109   2.594   1.830
  439TIP3   OH2 1261   7.075   0.085   4.823
  439TIP3    H1 1262   7.162   0.117   4.800
  439TIP3    H2 1263   7.071   0.092   4.918
  440TIP3   OH2 1264   0.794   7.498   4.270
  440TIP3    H1 1265   0.768   7.590   4.280
  440TIP3    H2 1266   0.835   7.494   4.183
  441TIP3   OH2 1267   4.932   1.213   5.115
  441TIP3    H1 1268   4.847   1.193   5.077
  441TIP3    H2 1269   4.922   1.302   5.150
  442TIP3   OH2 1270   6.549   3.505   6.237
  442TIP3    H1 1271   6.600   3.556   6.299
  442TIP3    H2 1272   6.543   3.418   6.277
  443TIP3   OH2 1273   0.281   2.746   4.291
  443TIP3    H1 1274   0.237   2.669   4.327
  443TIP3    H2 1275   0.263   2.742   4.197
  444TIP3   OH2 1276   7.001   0.704   2.440
  444TIP3    H1 1277   7.013   0.642   2.368
  444TIP3    H2 1278   7.016   0.790   2.401
  445TIP3   OH2 1279   2.503   7.014   2.442
  445TIP3    H1 1280   2.422   7.053   2.476
  445TIP3    H2 1281   2.476   6.968   2.363
  446TIP3   OH2 1282   0.266   4.196   0.676
  446TIP3    H1 1283   0.355   4.232   0.682
  446TIP3    H2 1284   0.279   4.102   0.664
  447TIP3   OH2 1285   2.567   6.922   1.335
  447TIP3    H1 1286   2.589   7.009   1.301
  447TIP3    H2 1287   2.593   6.926   1.427
  448TIP3   OH2 1288   1.481   3.887   1.196
  448TIP3    H1 1289   1.486   3.808   1.143
  448TIP3    H2 1290   1.432   3.861   1.274
  449TIP3   OH2 1291   7.612   0.653   3.365
  449TIP3    H1 1292   7.550   0.669   3.295
  449TIP3    H2 1293   7.628   0.558   3.362
  450TIP3   OH2 1294   6.737   5.553   5.910
  450TIP3    H1 1295   6.673   5.570   5.979
  450TIP3    H2 1296   6.813   5.518   5.956
  451TIP3   OH2 1297   7.447   3.504   4.293
  451TIP3    H1 1298   7.452   3.552   4.375
  451TIP3    H2 1299   7.509   3.549   4.236
  452TIP3   OH2 1300   3.164   7.722   6.499
  452TIP3    H1 1301   3.145   7.662   6.572
  452TIP3    H2 1302   3.203   7.799   6.541
  453TIP3   OH2 1303   0.005   4.272   0.545
  453TIP3    H1 1304   0.082   4.232   0.585
  453TIP3    H2 1305   0.014   4.365   0.563
  454TIP3   OH2 1306   2.666   6.647   1.372
  454TIP3    H1 1307   2.685   6.730   1.416
  454TIP3    H2 1308   2.639   6.672   1.284
  455TIP3   OH2 1309   2.373   7.582   5.071
  455TIP3    H1 1310   2.358   7.671   5.102
  455TIP3    H2 1311   2.463   7.562   5.099
  456TIP3   OH2 1312  -0.002   1.664   0.075
  456TIP3    H1 1313   0.006   1.737   0.013
  456TIP3    H2 1314  -0.052   1.598   0.028
  457TIP3   OH2 1315   4.245   6.685   3.865
  457TIP3    H1 1316   4.199   6.731   3.935
  457TIP3    H2 1317   4.250   6.594   3.895
  458TIP3   OH2 1318   6.693   6.977   0.365
  458TIP3    H1 1319   6.777   7.014   0.338
  458TIP3    H2 1320   6.629   7.018   0.306
  459TIP3   OH2 1321   6.884   5.557   2.575
  459TIP3    H1 1322   6.878   5.492   2.645
  459TIP3    H2 1323   6.943   5.518   2.511
  460TIP3   OH2 1324   6.408   4.262   1.118
  460TIP3    H1 1325   6.326   4.306   1.141
  460TIP3    H2 1326   6.476   4.319   1.152
  461TIP3   OH2 1327   7.082   7.722   0.145
  461TIP3    H1 1328   7.023   7.756   0.212
  461TIP3    H2 1329   7.156   7.686   0.193
  462TIP3   OH2 1330   7.711   3.851   1.849
  462TIP3    H1 1331   7.662   3.930   1.873
  462TIP3    H2 1332   7.799   3.882   1.829
  463TIP3   OH2 1333   3.125   3.933   0.587
  463TIP3    H1 1334   3.091   3.966   0.670
  463TIP3    H2 1335   3.048   3.899   0.540
  464TIP3   OH2 1336   2.320   2.488   5.483
  464TIP3    H1 1337   2.267   2.510   5.560
  464TIP3    H2 1338   2.277   2.411   5.446
  465TIP3   OH2 1339   0.686   2.353   5.022
  465TIP3    H1 1340   0.711   2.418   4.956
  465TIP3    H2 1341   0.646   2.404   5.092
  466TIP3   OH2 1342   6.469   2.700   1.221
  466TIP3    H1 1343   6.476   2.629   1.158
  466TIP3    H2 1344   6.540   2.684   1.284
  467TIP3   OH2 1345   3.323   4.979   0.989
  467TIP3    H1 1346   3.329   5.022   0.904
  467TIP3    H2 1347   3.238   4.936   0.989
  468TIP3   OH2 1348   1.081   4.233   3.800
  468TIP3    H1 1349   1.168   4.195   3.792
  468TIP3    H2 1350   1.051   4.245   3.710
  469TIP3   OH2 1351   2.798   7.369   2.826
  469TIP3    H1 1352   2.707   7.379   2.855
  469TIP3    H2 1353   2.798   7.288   2.776
  470TIP3   OH2 1354   7.753   2.613   5.142
  470TIP3    H1 1355   7.658   2.609   5.134
  470TIP3    H2 1356   7.785   2.604   5.053
  471TIP3   OH2 1357   1.872   7.553   6.305
  471TIP3    H1 1358   1.818   7.499   6.248
  471TIP3    H2 1359   1.870   7.508   6.390
  472TIP3   OH2 1360   4.003   7.203   4.773
  472TIP3    H1 1361   3.973   7.184   4.862
  472TIP3    H2 1362   3.964   7.134   4.719
  473TIP3   OH2 1363   6.541   2.534   5.632
  473TIP3    H1 1364   6.507   2.609   5.680
  473TIP3    H2 1365   6.635   2.535   5.650
  474TIP3   OH2 1366   4.712   2.413   2.582
  474TIP3    H1 1367   4.773   2.340   2.591
  474TIP3    H2 1368   4.695   2.442   2.671
  475TIP3   OH2 1369   0.003   2.006   6.076
  475TIP3    H1 1370   0.097   2.003   6.090
  475TIP3    H2 1371  -0.014   1.933   6.016
  476TIP3   OH2 1372   3.909   2.054   0.217
  476TIP3    H1 1373   3.964   2.118   0.173
  476TIP3    H2 1374   3.850   2.105   0.272
  477TIP3   OH2 1375   3.871   3.392   6.155
  477TIP3    H1 1376   3.826   3.447   6.091
  477TIP3    H2 1377   3.901   3.316   6.105
  478TIP3   OH2 1378   2.243   7.035   1.467
  478TIP3    H1 1379   2.152   7.066   1.461
  478TIP3    H2 1380   2.293   7.115   1.486
  479TIP3   OH2 1381   6.158   7.579   3.616
  479TIP3    H1 1382   6.248   7.577   3.584
  479TIP3    H2 1383   6.117   7.500   3.580
  480TIP3   OH2 1384   6.052   6.245   5.038
  480TIP3    H1 1385   6.120   6.178   5.039
  480TIP3    H2 1386   5.982   6.208   4.985
  481TIP3   OH2 1387   7.680   4.143   3.214
  481TIP3    H1 1388   7.731   4.123   3.293
  481TIP3    H2 1389   7.713   4.083   3.148
  482TIP3   OH2 1390   3.860   5.777   3.368
  482TIP3    H1 1391   3.926   5.843   3.350
  482TIP3    H2 1392   3.809   5.771   3.286
  483TIP3   OH2 1393   6.576   7.727   2.007
  483TIP3    H1 1394   6.669   7.747   2.006
  483TIP3    H2 1395   6.533   7.812   2.016
  484TIP3   OH2 1396   1.078   6.308   3.296
  484TIP3    H1 1397   1.159   6.274   3.259
  484TIP3    H2 1398   1.009   6.265   3.246
  485TIP3   OH2 1399   2.048   6.080   4.905
  485TIP3    H1 1400   2.113   6.012   4.921
  485TIP3    H2 1401   2.071   6.149   4.967
  486TIP3   OH2 1402   0.270   2.683   0.630
  486TIP3    H1 1403   0.211   2.608   0.632
  486TIP3    H2 1404   0.328   2.666   0.556
  487TIP3   OH2 1405   4.365   2.313   1.051
  487TIP3    H1 1406   4.388   2.389   0.997
  487TIP3    H2 1407   4.307   2.261   0.996
  488TIP3   OH2 1408   5.515   3.517   2.452
  488TIP3    H1 1409   5.464   3.553   2.380
  488TIP3    H2 1410   5.523   3.589   2.515
  489TIP3   OH2 1411   1.380   6.519   2.999
  489TIP3    H1 1412   1.441   6.559   3.061
  489TIP3    H2 1413   1.295   6.526   3.042
  490TIP3   OH2 1414   0.329   7.505   4.015
  490TIP3    H1 1415   0.239   7.513   3.984
  490TIP3    H2 1416   0.332   7.420   4.058
  491TIP3   OH2 1417   0.155   2.498   6.127
  491TIP3    H1 1418   0.210   2.441   6.074
  491TIP3    H2 1419   0.077   2.446   6.145
  492TIP3   OH2 1420   7.782   1.034   3.369
  492TIP3    H1 1421   7.867   1.079   3.370
  492TIP3    H2 1422   7.794   0.959   3.427
  493TIP3   OH2 1423   1.936   3.692   1.113
  493TIP3    H1 1424   1.972   3.609   1.142
  493TIP3    H2 1425   2.012   3.750   1.106
  494TIP3   OH2 1426   4.732   3.956   2.074
  494TIP3    H1 1427   4.675   3.879   2.074
  494TIP3    H2 1428   4.778   3.951   1.990
  495TIP3   OH2 1429   1.787   5.406   4.166
  495TIP3    H1 1430   1.709   5.433   4.117
  495TIP3    H2 1431   1.829   5.489   4.191
  496TIP3   OH2 1432   1.835   3.544   1.601
  496TIP3    H1 1433   1.815   3.629   1.639
  496TIP3    H2 1434   1.821   3.555   1.507
  497TIP3   OH2 1435   1.575   3.374   1.879
  497TIP3    H1 1436   1.647   3.366   1.942
  497TIP3    H2 1437   1.502   3.409   1.930
  498TIP3   OH2 1438   3.202   6.379   1.290
  498TIP3    H1 1439   3.162   6.463   1.313
  498TIP3    H2 1440   3.219   6.385   1.196
  499TIP3   OH2 1441   6.696   7.028   1.405
  499TIP3    H1 1442   6.717   6.936   1.420
  499TIP3    H2 1443   6.737   7.049   1.321
  500TIP3   OH2 1444   4.840   4.416   2.781
  500TIP3    H1 1445   4.756   4.459   2.767
  500TIP3    H2 1446   4.841   4.396   2.875
  501TIP3   OH2 1447   3.147   3.612   6.296
  501TIP3    H1 1448   3.133   3.696   6.253
  501TIP3    H2 1449   3.195   3.633   6.377
  502TIP3   OH2 1450   5.731   3.989   3.563
  502TIP3    H1 1451   5.665   3.922   3.582
  502TIP3    H2 1452   5.716   4.013   3.472
  503TIP3   OH2 1453   4.243   7.713   4.642
  503TIP3    H1 1454   4.308   7.644   4.653
  503TIP3    H2 1455   4.277   7.786   4.694
  504TIP3   OH2 1456   2.425   5.659   2.395
  504TIP3    H1 1457   2.518   5.657   2.417
  504TIP3    H2 1458   2.381   5.625   2.473
  505TIP3   OH2 1459   2.893   0.266   2.222
  505TIP3    H1 1460   2.926   0.229   2.304
  505TIP3    H2 1461   2.888   0.192   2.162
  506TIP3   OH2 1462   1.602   7.291   6.548
  506TIP3    H1 1463   1.528   7.272   6.490
  506TIP3    H2 1464   1.574   7.258   6.633
  507TIP3   OH2 1465   2.593   6.187   3.511
  507TIP3    H1 1466   2.684   6.216   3.510
  507TIP3    H2 1467   2.552   6.234   3.438
  508TIP3   OH2 1468   6.395   3.891   3.764
  508TIP3    H1 1469   6.483   3.879   3.799
  508TIP3    H2 1470   6.369   3.980   3.791
  509TIP3   OH2 1471   7.645   6.772   6.294
  509TIP3    H1 1472   7.696   6.794   6.216
  509TIP3    H2 1473   7.699   6.803   6.367
  510TIP3   OH2 1474   3.799   3.545   1.675
  510TIP3    H1 1475   3.749   3.619   1.641
  510TIP3    H2 1476   3.844   3.579   1.752
  511TIP3   OH2 1477   5.588   5.596   4.770
  511TIP3    H1 1478   5.536   5.521   4.798
  511TIP3    H2 1479   5.554   5.670   4.821
  512TIP3   OH2 1480   2.731   7.217   1.799
  512TIP3    H1 1481   2.754   7.281   1.732
  512TIP3    H2 1482   2.804   7.219   1.861
  513TIP3   OH2 1483   0.418   1.734   3.983
  513TIP3    H1 1484   0.334   1.691   3.964
  513TIP3    H2 1485   0.474   1.663   4.013
  514TIP3   OH2 1486   4.795   6.019   0.293
  514TIP3    H1 1487   4.715   5.973   0.319
  514TIP3    H2 1488   4.865   5.970   0.336
  515TIP3   OH2 1489   4.700   6.712   1.873
  515TIP3    H1 1490   4.662   6.637   1.919
  515TIP3    H2 1491   4.794   6.703   1.888
  516TIP3   OH2 1492   6.347   4.942   5.387
  516TIP3    H1 1493   6.320   5.020   5.339
  516TIP3    H2 1494   6.282   4.932   5.456
  517TIP3   OH2 1495   8.174   7.279   6.743
  517TIP3    H1 1496   8.093   7.263   6.695
  517TIP3    H2 1497   8.237   7.219   6.705
  518TIP3   OH2 1498   2.462   1.210   0.087
  518TIP3    H1 1499   2.472   1.115   0.092
  518TIP3    H2 1500   2.552   1.242   0.075
  519TIP3   OH2 1501   3.470   1.764   5.794
  519TIP3    H1 1502   3.436   1.684   5.752
  519TIP3    H2 1503   3.512   1.812   5.723
  520TIP3   OH2 1504   4.321   7.498   4.995
  520TIP3    H1 1505   4.291   7.451   4.917
  520TIP3    H2 1506   4.314   7.434   5.066
  521TIP3   OH2 1507   2.195   6.927   2.461
  521TIP3    H1 1508   2.208   6.902   2.552
  521TIP3    H2 1509   2.159   6.849   2.419
  522TIP3   OH2 1510   7.831   5.046   5.072
  522TIP3    H1 1511   7.780   5.036   4.991
  522TIP3    H2 1512   7.802   5.131   5.107
  523TIP3   OH2 1513   5.788   5.652   4.572
  523TIP3    H1 1514   5.851   5.661   4.644
  523TIP3    H2 1515   5.721   5.718   4.591
  524TIP3   OH2 1516   5.159   3.394   5.455
  524TIP3    H1 1517   5.073   3.412   5.493
  524TIP3    H2 1518   5.220   3.412   5.526
  525TIP3   OH2 1519   0.018   1.323   3.149
  525TIP3    H1 1520   0.065   1.291   3.072
  525TIP3    H2 1521  -0.074   1.316   3.126
  526TIP3   OH2 1522   2.377   1.556   1.616
  526TIP3    H1 1523   2.365   1.521   1.528
  526TIP3    H2 1524   2.384   1.479   1.672
  527TIP3   OH2 1525   5.736   2.363   1.014
  527TIP3    H1 1526   5.671   2.309   0.970
  527TIP3    H2 1527   5.802   2.300   1.044
  528TIP3   OH2 1528   2.843   3.706   4.811
  528TIP3    H1 1529   2.794   3.701   4.894
  528TIP3    H2 1530   2.775   3.720   4.745
  529TIP3   OH2 1531   3.108   4.018   1.053
  529TIP3    H1 1532   3.201   4.039   1.051
  529TIP3    H2 1533   3.068   4.083   0.995
  530TIP3   OH2 1534   1.085   2.145   4.646
  530TIP3    H1 1535   1.014   2.199   4.614
  530TIP3    H2 1536   1.067   2.058   4.610
  531TIP3   OH2 1537   2.506   5.341   4.414
  531TIP3    H1 1538   2.504   5.304   4.325
  531TIP3    H2 1539   2.465   5.274   4.468
  532TIP3   OH2 1540   1.926   6.670   3.930
  532TIP3    H1 1541   1.902   6.705   4.016
  532TIP3    H2 1542   1.848   6.623   3.901
  533TIP3   OH2 1543   5.643   6.552   1.886
  533TIP3    H1 1544   5.668   6.531   1.976
  533TIP3    H2 1545   5.552   6.525   1.879
  534TIP3   OH2 1546   7.824   3.083   2.669
  534TIP3    H1 1547   7.781   3.123   2.594
  534TIP3    H2 1548   7.915   3.110   2.662
  535TIP3   OH2 1549   4.817   3.167   3.136
  535TIP3    H1 1550   4.845   3.219   3.211
  535TIP3    H2 1551   4.796   3.081   3.172
  536TIP3   OH2 1552   6.961   1.951   0.284
  536TIP3    H1 1553   7.038   1.977   0.334
  536TIP3    H2 1554   6.947   2.022   0.222
  537TIP3   OH2 1555   6.991   7.618   1.209
  537TIP3    H1 1556   6.942   7.537   1.190
  537TIP3    H2 1557   6.980   7.671   1.130
  538TIP3   OH2 1558   8.191   2.637   6.041
  538TIP3    H1 1559   8.274   2.599   6.071
  538TIP3    H2 1560   8.205   2.657   5.948
  539TIP3   OH2 1561   4.821   6.235   2.534
  539TIP3    H1 1562   4.862   6.319   2.514
  539TIP3    H2 1563   4.852   6.212   2.621
  540TIP3   OH2 1564   0.653   6.133   6.136
  540TIP3    H1 1565   0.628   6.085   6.215
  540TIP3    H2 1566   0.728   6.187   6.163
  541TIP3   OH2 1567   0.135   4.118   2.163
  541TIP3    H1 1568   0.196   4.064   2.113
  541TIP3    H2 1569   0.053   4.113   2.114
  542TIP3   OH2 1570   5.195   3.856   0.478
  542TIP3    H1 1571   5.165   3.945   0.464
  542TIP3    H2 1572   5.120   3.801   0.453
  543TIP3   OH2 1573   5.950   2.009   2.690
  543TIP3    H1 1574   6.001   2.017   2.771
  543TIP3    H2 1575   5.972   1.922   2.656
  544TIP3   OH2 1576   2.663   3.698   6.537
  544TIP3    H1 1577   2.677   3.707   6.632
  544TIP3    H2 1578   2.577   3.737   6.521
  545TIP3   OH2 1579   7.633   0.177   1.678
  545TIP3    H1 1580   7.690   0.100   1.669
  545TIP3    H2 1581   7.692   0.252   1.675
  546TIP3   OH2 1582   6.178   7.628   4.342
  546TIP3    H1 1583   6.141   7.614   4.429
  546TIP3    H2 1584   6.143   7.713   4.314
  547TIP3   OH2 1585   2.701   6.240   2.062
  547TIP3    H1 1586   2.685   6.210   1.972
  547TIP3    H2 1587   2.789   6.279   2.059
  548TIP3   OH2 1588   0.026   7.464   4.638
  548TIP3    H1 1589   0.096   7.403   4.664
  548TIP3    H2 1590   0.072   7.546   4.620
  549TIP3   OH2 1591   4.398   3.090   4.817
  549TIP3    H1 1592   4.339   3.026   4.858
  549TIP3    H2 1593   4.400   3.064   4.725
  550TIP3   OH2 1594   6.028   0.381   5.839
  550TIP3    H1 1595   6.052   0.370   5.931
  550TIP3    H2 1596   5.941   0.344   5.832
  551TIP3   OH2 1597   4.951   7.546   4.078
  551TIP3    H1 1598   5.031   7.533   4.027
  551TIP3    H2 1599   4.912   7.625   4.042
  552TIP3   OH2 1600   1.459   0.758   2.045
  552TIP3    H1 1601   1.541   0.751   1.996
  552TIP3    H2 1602   1.442   0.670   2.077
  553TIP3   OH2 1603   4.225   3.365   0.307
  553TIP3    H1 1604   4.156   3.341   0.245
  553TIP3    H2 1605   4.242   3.457   0.288
  554TIP3   OH2 1606   3.148   7.600   4.991
  554TIP3    H1 1607   3.195   7.522   5.021
  554TIP3    H2 1608   3.103   7.632   5.069
  555TIP3   OH2 1609   4.372   3.139   2.039
  555TIP3    H1 1610   4.365   3.137   2.135
  555TIP3    H2 1611   4.344   3.052   2.011
  556TIP3   OH2 1612   4.455   1.434   4.546
  556TIP3    H1 1613   4.500   1.518   4.544
  556TIP3    H2 1614   4.517   1.374   4.587
  557TIP3   OH2 1615   2.189   7.690   1.175
  557TIP3    H1 1616   2.191   7.602   1.210
  557TIP3    H2 1617   2.149   7.743   1.244
  558TIP3   OH2 1618   7.360   3.665   6.009
  558TIP3    H1 1619   7.306   3.716   5.948
  558TIP3    H2 1620   7.297   3.620   6.065
  559TIP3   OH2 1621   4.515   6.814   1.138
  559TIP3    H1 1622   4.464   6.848   1.212
  559TIP3    H2 1623   4.457   6.825   1.063
  560TIP3   OH2 1624   6.127   0.776   2.717
  560TIP3    H1 1625   6.054   0.822   2.759
  560TIP3    H2 1626   6.167   0.842   2.660
  561TIP3   OH2 1627   5.457   7.276   3.944
  561TIP3    H1 1628   5.362   7.289   3.937
  561TIP3    H2 1629   5.477   7.297   4.035
  562TIP3   OH2 1630   6.021   2.359   5.055
  562TIP3    H1 1631   5.927   2.344   5.039
  562TIP3    H2 1632   6.048   2.417   4.984
  563TIP3   OH2 1633   6.846   7.394   2.153
  563TIP3    H1 1634   6.932   7.356   2.173
  563TIP3    H2 1635   6.833   7.376   2.060
  564TIP3   OH2 1636   7.564   1.583   0.691
  564TIP3    H1 1637   7.502   1.560   0.623
  564TIP3    H2 1638   7.641   1.530   0.672
  565TIP3   OH2 1639   8.001   0.463   5.410
  565TIP3    H1 1640   7.952   0.383   5.392
  565TIP3    H2 1641   7.951   0.505   5.480
  566TIP3   OH2 1642   3.008   4.250   0.539
  566TIP3    H1 1643   3.066   4.309   0.491
  566TIP3    H2 1644   3.042   4.163   0.521
  567TIP3   OH2 1645   6.231   6.439   2.880
  567TIP3    H1 1646   6.145   6.481   2.870
  567TIP3    H2 1647   6.256   6.459   2.971
  568TIP3   OH2 1648   5.258   4.739   4.344
  568TIP3    H1 1649   5.174   4.696   4.362
  568TIP3    H2 1650   5.255   4.758   4.250
  569TIP3   OH2 1651   4.610   2.668   1.925
  569TIP3    H1 1652   4.554   2.704   1.857
  569TIP3    H2 1653   4.550   2.633   1.991
  570TIP3   OH2 1654   2.430   1.070   2.821
  570TIP3    H1 1655   2.502   1.116   2.864
  570TIP3    H2 1656   2.450   1.075   2.727
  571TIP3   OH2 1657   8.082   1.046   6.656
  571TIP3    H1 1658   8.090   0.979   6.724
  571TIP3    H2 1659   8.016   1.107   6.691
  572TIP3   OH2 1660   6.814   2.585   5.219
  572TIP3    H1 1661   6.814   2.545   5.306
  572TIP3    H2 1662   6.796   2.678   5.237
  573TIP3   OH2 1663   6.890   3.809   2.217
  573TIP3    H1 1664   6.973   3.824   2.173
  573TIP3    H2 1665   6.828   3.789   2.147
  574TIP3   OH2 1666   7.752   4.309   2.440
  574TIP3    H1 1667   7.703   4.392   2.446
  574TIP3    H2 1668   7.789   4.297   2.527
  575TIP3   OH2 1669   5.171   4.531   2.310
  575TIP3    H1 1670   5.127   4.478   2.376
  575TIP3    H2 1671   5.106   4.595   2.282
  576TIP3   OH2 1672   1.309   6.763   0.936
  576TIP3    H1 1673   1.378   6.757   0.869
  576TIP3    H2 1674   1.284   6.856   0.936
  577TIP3   OH2 1675   3.777   6.365   4.457
  577TIP3    H1 1676   3.855   6.350   4.405
  577TIP3    H2 1677   3.709   6.314   4.414
  578TIP3   OH2 1678   6.248   4.215   1.615
  578TIP3    H1 1679   6.166   4.180   1.579
  578TIP3    H2 1680   6.233   4.309   1.622
  579TIP3   OH2 1681   6.667   5.314   1.255
  579TIP3    H1 1682   6.724   5.295   1.329
  579TIP3    H2 1683   6.582   5.332   1.294
  580TIP3   OH2 1684   4.165   3.215   2.393
  580TIP3    H1 1685   4.256   3.193   2.374
  580TIP3    H2 1686   4.129   3.243   2.309
  581TIP3   OH2 1687   1.253   6.371   3.896
  581TIP3    H1 1688   1.166   6.348   3.864
  581TIP3    H2 1689   1.275   6.302   3.958
  582TIP3   OH2 1690   4.228   7.726   0.000
  582TIP3    H1 1691   4.155   7.688   0.049
  582TIP3    H2 1692   4.306   7.684   0.036
  583TIP3   OH2 1693   7.132   6.876   6.724
  583TIP3    H1 1694   7.221   6.911   6.721
  583TIP3    H2 1695   7.132   6.817   6.799
  584TIP3   OH2 1696   2.583   6.635   1.791
  584TIP3    H1 1697   2.662   6.619   1.843
  584TIP3    H2 1698   2.535   6.702   1.840
  585TIP3   OH2 1699   1.579   2.307   5.856
  585TIP3    H1 1700   1.651   2.245   5.845
  585TIP3    H2 1701   1.500   2.256   5.838
  586TIP3   OH2 1702   6.932   6.514   5.682
  586TIP3    H1 1703   6.863   6.457   5.715
  586TIP3    H2 1704   7.014   6.467   5.700
  587TIP3   OH2 1705   1.790   1.585   6.135
  587TIP3    H1 1706   1.864   1.612   6.080
  587TIP3    H2 1707   1.714   1.620   6.089
  588TIP3   OH2 1708   1.742   7.623   4.112
  588TIP3    H1 1709   1.711   7.563   4.180
  588TIP3    H2 1710   1.796   7.569   4.055
  589TIP3   OH2 1711   1.323   3.118   6.028
  589TIP3    H1 1712   1.346   3.199   6.074
  589TIP3    H2 1713   1.407   3.073   6.016
  590TIP3   OH2 1714   5.414   4.614   4.052
  590TIP3    H1 1715   5.506   4.599   4.071
  590TIP3    H2 1716   5.408   4.608   3.957
  591TIP3   OH2 1717   6.146   7.263   0.674
  591TIP3    H1 1718   6.078   7.262   0.741
  591TIP3    H2 1719   6.114   7.322   0.607
  592TIP3   OH2 1720   4.417   7.542   3.527
  592TIP3    H1 1721   4.447   7.467   3.476
  592TIP3    H2 1722   4.497   7.586   3.555
  593TIP3   OH2 1723   3.271   6.978   5.072
  593TIP3    H1 1724   3.247   6.972   4.980
  593TIP3    H2 1725   3.188   6.989   5.118
  594TIP3   OH2 1726   2.795   5.577   4.028
  594TIP3    H1 1727   2.762   5.626   4.103
  594TIP3    H2 1728   2.773   5.486   4.047
  595TIP3   OH2 1729   7.333   4.244   1.084
  595TIP3    H1 1730   7.257   4.207   1.040
  595TIP3    H2 1731   7.370   4.171   1.134
  596TIP3   OH2 1732   1.367   2.738   3.203
  596TIP3    H1 1733   1.453   2.777   3.218
  596TIP3    H2 1734   1.308   2.813   3.196
  597TIP3   OH2 1735   5.581   6.196   5.481
  597TIP3    H1 1736   5.578   6.236   5.568
  597TIP3    H2 1737   5.602   6.269   5.422
  598TIP3   OH2 1738   0.707   3.090   3.772
  598TIP3    H1 1739   0.686   3.171   3.819
  598TIP3    H2 1740   0.738   3.031   3.841
  599TIP3   OH2 1741   4.045   1.828   0.151
  599TIP3    H1 1742   4.010   1.900   0.204
  599TIP3    H2 1743   4.134   1.856   0.130
  600TIP3   OH2 1744   4.052   7.381   3.727
  600TIP3    H1 1745   3.969   7.415   3.692
  600TIP3    H2 1746   4.026   7.320   3.796
  601TIP3   OH2 1747   3.016   5.814   6.414
  601TIP3    H1 1748   2.978   5.790   6.330
  601TIP3    H2 1749   2.941   5.837   6.469
  602TIP3   OH2 1750   6.391   3.599   3.704
  602TIP3    H1 1751   6.421   3.550   3.781
  602TIP3    H2 1752   6.399   3.691   3.730
  603TIP3   OH2 1753   4.500   2.432   6.619
  603TIP3    H1 1754   4.410   2.426   6.587
  603TIP3    H2 1755   4.552   2.457   6.542
  604TIP3   OH2 1756   3.436   0.232   5.349
  604TIP3    H1 1757   3.341   0.246   5.353
  604TIP3    H2 1758   3.474   0.317   5.368
  605TIP3   OH2 1759   2.664   2.844   0.147
  605TIP3    H1 1760   2.588   2.792   0.120
  605TIP3    H2 1761   2.722   2.845   0.071
  606TIP3   OH2 1762   1.707   2.672   6.787
  606TIP3    H1 1763   1.701   2.716   6.702
  606TIP3    H2 1764   1.620   2.683   6.826
  607TIP3   OH2 1765   3.528   7.401   2.821
  607TIP3    H1 1766   3.471   7.434   2.752
  607TIP3    H2 1767   3.574   7.478   2.854
  608TIP3   OH2 1768   6.300   4.573   0.130
  608TIP3    H1 1769   6.260   4.571   0.043
  608TIP3    H2 1770   6.379   4.519   0.121
  609TIP3   OH2 1771   2.648   6.590   3.452
  609TIP3    H1 1772   2.623   6.498   3.454
  609TIP3    H2 1773   2.741   6.590   3.474
  610TIP3   OH2 1774   3.348   7.498   3.021
  610TIP3    H1 1775   3.278   7.544   3.067
  610TIP3    H2 1776   3.414   7.566   3.004
  611TIP3   OH2 1777   7.916   2.806   1.273
  611TIP3    H1 1778   7.969   2.882   1.296
  611TIP3    H2 1779   7.876   2.828   1.190
  612TIP3   OH2 1780   1.710   6.340   6.501
  612TIP3    H1 1781   1.781   6.308   6.558
  612TIP3    H2 1782   1.753   6.359   6.418
  613TIP3   OH2 1783   6.913   7.547   2.958
  613TIP3    H1 1784   6.942   7.522   2.871
  613TIP3    H2 1785   6.819   7.527   2.958
  614TIP3   OH2 1786   0.815   4.016   1.553
  614TIP3    H1 1787   0.742   3.993   1.610
  614TIP3    H2 1788   0.882   3.951   1.573
  615TIP3   OH2 1789   3.168   6.420   5.582
  615TIP3    H1 1790   3.249   6.444   5.627
  615TIP3    H2 1791   3.183   6.441   5.490
  616TIP3   OH2 1792   0.263   0.468   1.067
  616TIP3    H1 1793   0.262   0.451   1.161
  616TIP3    H2 1794   0.312   0.549   1.057
  617TIP3   OH2 1795   7.093   2.139   6.433
  617TIP3    H1 1796   7.043   2.134   6.352
  617TIP3    H2 1797   7.085   2.052   6.472
  618TIP3   OH2 1798   7.016   2.156   1.230
  618TIP3    H1 1799   7.066   2.158   1.312
  618TIP3    H2 1800   7.039   2.072   1.189
  619TIP3   OH2 1801   6.613   3.680   0.817
  619TIP3    H1 1802   6.698   3.640   0.804
  619TIP3    H2 1803   6.561   3.653   0.742
  620TIP3   OH2 1804   5.533   5.897   4.609
  620TIP3    H1 1805   5.478   5.962   4.565
  620TIP3    H2 1806   5.577   5.945   4.679
  621TIP3   OH2 1807   6.808   0.159   3.076
  621TIP3    H1 1808   6.876   0.158   3.143
  621TIP3    H2 1809   6.855   0.171   2.993
  622TIP3   OH2 1810   0.303   7.629   1.800
  622TIP3    H1 1811   0.351   7.655   1.879
  622TIP3    H2 1812   0.211   7.632   1.826
  623TIP3   OH2 1813   6.210   6.936   5.419
  623TIP3    H1 1814   6.152   6.958   5.346
  623TIP3    H2 1815   6.205   7.012   5.477
  624TIP3   OH2 1816   7.251   7.517   1.729
  624TIP3    H1 1817   7.171   7.480   1.764
  624TIP3    H2 1818   7.321   7.476   1.780
  625TIP3   OH2 1819   5.065   7.136   3.854
  625TIP3    H1 1820   5.026   7.116   3.939
  625TIP3    H2 1821   5.032   7.068   3.795
  626TIP3   OH2 1822   3.186   3.007   3.953
  626TIP3    H1 1823   3.239   2.963   3.886
  626TIP3    H2 1824   3.096   2.992   3.926
  627TIP3   OH2 1825   4.816   7.483   3.294
  627TIP3    H1 1826   4.791   7.397   3.327
  627TIP3    H2 1827   4.823   7.538   3.372
  628TIP3   OH2 1828   7.764   5.825   6.742
  628TIP3    H1 1829   7.725   5.912   6.740
  628TIP3    H2 1830   7.690   5.765   6.752
  629TIP3   OH2 1831   2.544   6.756   3.252
  629TIP3    H1 1832   2.595   6.685   3.290
  629TIP3    H2 1833   2.567   6.754   3.159
  630TIP3   OH2 1834   4.334   1.708   3.731
  630TIP3    H1 1835   4.316   1.774   3.664
  630TIP3    H2 1836   4.373   1.757   3.804
  631TIP3   OH2 1837   6.294   7.820   3.300
  631TIP3    H1 1838   6.308   7.851   3.390
  631TIP3    H2 1839   6.367   7.760   3.284
  632TIP3   OH2 1840   3.073   1.408   3.168
  632TIP3    H1 1841   3.043   1.364   3.247
  632TIP3    H2 1842   3.145   1.463   3.197
  633TIP3   OH2 1843   3.972   7.156   4.243
  633TIP3    H1 1844   4.065   7.153   4.266
  633TIP3    H2 1845   3.933   7.087   4.298
  634TIP3   OH2 1846   0.444   3.578   3.823
  634TIP3    H1 1847   0.445   3.483   3.837
  634TIP3    H2 1848   0.523   3.610   3.868
  635TIP3   OH2 1849   5.234   6.157   1.736
  635TIP3    H1 1850   5.158   6.102   1.717
  635TIP3    H2 1851   5.210   6.243   1.703
  636TIP3   OH2 1852   3.359   4.712   0.824
  636TIP3    H1 1853   3.313   4.787   0.862
  636TIP3    H2 1854   3.386   4.742   0.737
  637TIP3   OH2 1855   7.137   5.038   1.771
  637TIP3    H1 1856   7.116   5.107   1.708
  637TIP3    H2 1857   7.217   4.998   1.737
  638TIP3   OH2 1858   4.017   4.919   4.672
  638TIP3    H1 1859   3.955   4.954   4.607
  638TIP3    H2 1860   3.981   4.946   4.756
  639TIP3   OH2 1861   5.703   1.804   1.787
  639TIP3    H1 1862   5.774   1.763   1.837
  639TIP3    H2 1863   5.653   1.852   1.853
  640TIP3   OH2 1864   5.451   7.656   2.051
  640TIP3    H1 1865   5.520   7.706   2.008
  640TIP3    H2 1866   5.463   7.567   2.020
  641TIP3   OH2 1867   5.175   1.349   3.202
  641TIP3    H1 1868   5.161   1.290   3.128
  641TIP3    H2 1869   5.255   1.317   3.244
  642TIP3   OH2 1870   0.927   4.938   5.140
  642TIP3    H1 1871   0.955   4.985   5.218
  642TIP3    H2 1872   0.969   4.984   5.068
  643TIP3   OH2 1873   0.088   4.413   4.067
  643TIP3    H1 1874   0.181   4.392   4.069
  643TIP3    H2 1875   0.078   4.487   4.127
  644TIP3   OH2 1876   2.903   5.591   5.732
  644TIP3    H1 1877   2.822   5.573   5.779
  644TIP3    H2 1878   2.972   5.584   5.798
  645TIP3   OH2 1879   5.791   7.288   4.552
  645TIP3    H1 1880   5.864   7.346   4.569
  645TIP3    H2 1881   5.717   7.328   4.597
  646TIP3   OH2 1882   7.406   1.471   1.249
  646TIP3    H1 1883   7.368   1.547   1.205
  646TIP3    H2 1884   7.457   1.508   1.321
  647TIP3   OH2 1885   0.251   0.942   1.468
  647TIP3    H1 1886   0.177   0.890   1.500
  647TIP3    H2 1887   0.252   0.928   1.373
  648TIP3   OH2 1888   5.817   1.847   0.664
  648TIP3    H1 1889   5.779   1.764   0.695
  648TIP3    H2 1890   5.836   1.896   0.744
  649TIP3   OH2 1891   7.150   5.566   4.090
  649TIP3    H1 1892   7.130   5.490   4.145
  649TIP3    H2 1893   7.112   5.640   4.138
  650TIP3   OH2 1894   7.594   3.588   6.458
  650TIP3    H1 1895   7.526   3.540   6.506
  650TIP3    H2 1896   7.650   3.520   6.422
  651TIP3   OH2 1897   7.163   5.462   4.854
  651TIP3    H1 1898   7.125   5.501   4.933
  651TIP3    H2 1899   7.087   5.429   4.805
  652TIP3   OH2 1900   4.830   6.131   2.797
  652TIP3    H1 1901   4.889   6.148   2.870
  652TIP3    H2 1902   4.793   6.045   2.815
  653TIP3   OH2 1903   7.067   7.368   4.613
  653TIP3    H1 1904   7.049   7.462   4.620
  653TIP3    H2 1905   7.100   7.356   4.524
  654TIP3   OH2 1906   6.610   6.734   4.234
  654TIP3    H1 1907   6.561   6.659   4.269
  654TIP3    H2 1908   6.588   6.806   4.292
  655TIP3   OH2 1909   7.898   0.696   2.651
  655TIP3    H1 1910   7.834   0.662   2.589
  655TIP3    H2 1911   7.890   0.639   2.728
  656TIP3   OH2 1912   2.768   6.865   6.366
  656TIP3    H1 1913   2.702   6.934   6.378
  656TIP3    H2 1914   2.731   6.810   6.296
  657TIP3   OH2 1915   7.765   6.939   2.448
  657TIP3    H1 1916   7.819   6.931   2.526
  657TIP3    H2 1917   7.688   6.989   2.477
  658TIP3   OH2 1918   1.338   3.676   6.155
  658TIP3    H1 1919   1.363   3.618   6.083
  658TIP3    H2 1920   1.292   3.748   6.113
  659TIP3   OH2 1921   6.688   4.236   1.738
  659TIP3    H1 1922   6.770   4.211   1.696
  659TIP3    H2 1923   6.693   4.198   1.826
  660TIP3   OH2 1924   8.052   7.538   5.132
  660TIP3    H1 1925   8.119   7.522   5.065
  660TIP3    H2 1926   7.973   7.497   5.097
  661TIP3   OH2 1927   4.163   1.893   3.129
  661TIP3    H1 1928   4.149   1.961   3.195
  661TIP3    H2 1929   4.193   1.941   3.052
  662TIP3   OH2 1930   8.043   3.767   5.487
  662TIP3    H1 1931   8.047   3.673   5.502
  662TIP3    H2 1932   8.100   3.804   5.555
  663TIP3   OH2 1933   8.223   2.239   1.967
  663TIP3    H1 1934   8.250   2.302   1.900
  663TIP3    H2 1935   8.225   2.154   1.924
  664TIP3   OH2 1936   1.546   4.370   4.929
  664TIP3    H1 1937   1.597   4.378   5.010
  664TIP3    H2 1938   1.528   4.461   4.903
  665TIP3   OH2 1939   1.827   6.491   5.234
  665TIP3    H1 1940   1.784   6.408   5.254
  665TIP3    H2 1941   1.800   6.549   5.306
  666TIP3   OH2 1942   3.452   7.112   5.564
  666TIP3    H1 1943   3.393   7.091   5.637
  666TIP3    H2 1944   3.431   7.047   5.497
  667TIP3   OH2 1945   7.908   2.962   0.568
  667TIP3    H1 1946   7.988   2.959   0.621
  667TIP3    H2 1947   7.843   2.913   0.620
  668TIP3   OH2 1948   2.963   4.322   6.700
  668TIP3    H1 1949   2.894   4.386   6.718
  668TIP3    H2 1950   3.007   4.310   6.784
  669TIP3   OH2 1951   4.631   1.001   1.789
  669TIP3    H1 1952   4.625   1.087   1.831
  669TIP3    H2 1953   4.658   1.020   1.700
  670TIP3   OH2 1954   4.199   2.812   5.619
  670TIP3    H1 1955   4.277   2.855   5.583
  670TIP3    H2 1956   4.148   2.884   5.657
  671TIP3   OH2 1957   5.896   4.087   6.682
  671TIP3    H1 1958   5.983   4.099   6.642
  671TIP3    H2 1959   5.845   4.044   6.613
  672TIP3   OH2 1960   3.166   3.429   3.847
  672TIP3    H1 1961   3.233   3.408   3.912
  672TIP3    H2 1962   3.155   3.348   3.798
  673TIP3   OH2 1963   5.805   5.242   0.561
  673TIP3    H1 1964   5.854   5.190   0.497
  673TIP3    H2 1965   5.807   5.190   0.641
  674TIP3   OH2 1966   6.252   0.138   1.531
  674TIP3    H1 1967   6.169   0.130   1.484
  674TIP3    H2 1968   6.294   0.214   1.492
  675TIP3   OH2 1969   7.202   2.384   0.631
  675TIP3    H1 1970   7.241   2.353   0.550
  675TIP3    H2 1971   7.271   2.375   0.697
  676TIP3   OH2 1972   1.425   1.633   4.044
  676TIP3    H1 1973   1.333   1.607   4.043
  676TIP3    H2 1974   1.460   1.605   3.959
  677TIP3   OH2 1975   6.315   6.684   2.093
  677TIP3    H1 1976   6.240   6.689   2.152
  677TIP3    H2 1977   6.367   6.612   2.127
  678TIP3   OH2 1978   4.458   5.550   4.101
  678TIP3    H1 1979   4.483   5.532   4.192
  678TIP3    H2 1980   4.502   5.482   4.050
  679TIP3   OH2 1981   4.453   4.078   1.614
  679TIP3    H1 1982   4.433   4.168   1.640
  679TIP3    H2 1983   4.407   4.024   1.678
  680TIP3   OH2 1984   5.263   4.121   0.841
  680TIP3    H1 1985   5.237   4.121   0.934
  680TIP3    H2 1986   5.189   4.160   0.796
  681TIP3   OH2 1987   2.444   3.460   0.887
  681TIP3    H1 1988   2.404   3.494   0.968
  681TIP3    H2 1989   2.497   3.385   0.916
  682TIP3   OH2 1990   5.745   1.319   1.747
  682TIP3    H1 1991   5.662   1.280   1.718
  682TIP3    H2 1992   5.722   1.368   1.826
  683TIP3   OH2 1993   3.301   5.312   1.528
  683TIP3    H1 1994   3.354   5.327   1.450
  683TIP3    H2 1995   3.302   5.396   1.574
  684TIP3   OH2 1996   2.408   7.270   5.695
  684TIP3    H1 1997   2.432   7.319   5.616
  684TIP3    H2 1998   2.335   7.320   5.733
  685TIP3   OH2 1999   3.187   4.042   3.826
  685TIP3    H1 2000   3.250   4.062   3.757
  685TIP3    H2 2001   3.125   4.115   3.825
  686TIP3   OH2 2002   0.368   0.019   5.956
  686TIP3    H1 2003   0.316   0.099   5.946
  686TIP3    H2 2004   0.455   0.043   5.925
  687TIP3   OH2 2005   5.959   5.931   4.243
  687TIP3    H1 2006   5.943   5.973   4.158
  687TIP3    H2 2007   6.054   5.939   4.256
  688TIP3   OH2 2008   4.691   5.359   2.464
  688TIP3    H1 2009   4.610   5.384   2.418
  688TIP3    H2 2010   4.752   5.336   2.393
  689TIP3   OH2 2011   4.772   3.149   0.227
  689TIP3    H1 2012   4.863   3.135   0.254
  689TIP3    H2 2013   4.765   3.243   0.214
  690TIP3   OH2 2014   2.405   3.704   0.776
  690TIP3    H1 2015   2.425   3.614   0.801
  690TIP3    H2 2016   2.310   3.711   0.790
  691TIP3   OH2 2017   1.372   1.316   6.094
  691TIP3    H1 2018   1.321   1.397   6.086
  691TIP3    H2 2019   1.450   1.342   6.145
  692TIP3   OH2 2020   6.098   4.909   3.987
  692TIP3    H1 2021   6.044   4.888   4.063
  692TIP3    H2 2022   6.035   4.931   3.918
  693TIP3   OH2 2023   0.543   6.441   0.677
  693TIP3    H1 2024   0.574   6.463   0.589
  693TIP3    H2 2025   0.451   6.467   0.678
  694TIP3   OH2 2026   4.800   2.275   0.821
  694TIP3    H1 2027   4.736   2.211   0.853
  694TIP3    H2 2028   4.819   2.330   0.897
  695TIP3   OH2 2029   6.555   2.634   5.956
  695TIP3    H1 2030   6.510   2.577   5.894
  695TIP3    H2 2031   6.636   2.587   5.978
  696TIP3   OH2 2032   3.946   5.027   5.116
  696TIP3    H1 2033   3.902   5.097   5.163
  696TIP3    H2 2034   4.035   5.027   5.151
  697TIP3   OH2 2035   1.762   5.257   3.476
  697TIP3    H1 2036   1.842   5.287   3.518
  697TIP3    H2 2037   1.792   5.201   3.405
  698TIP3   OH2 2038   0.580   5.263   3.558
  698TIP3    H1 2039   0.583   5.173   3.589
  698TIP3    H2 2040   0.607   5.315   3.634
  699TIP3   OH2 2041   0.328   7.599   0.617
  699TIP3    H1 2042   0.300   7.626   0.705
  699TIP3    H2 2043   0.314   7.505   0.616
  700TIP3   OH2 2044   5.985   2.600   2.283
  700TIP3    H1 2045   5.914   2.658   2.310
  700TIP3    H2 2046   5.942   2.529   2.235
  701TIP3   OH2 2047   0.532   6.801   6.037
  701TIP3    H1 2048   0.565   6.747   6.108
  701TIP3    H2 2049   0.610   6.846   6.003
  702TIP3   OH2 2050   3.134   4.990   6.669
  702TIP3    H1 2051   3.192   4.931   6.621
  702TIP3    H2 2052   3.050   4.983   6.625
  703TIP3   OH2 2053   7.348   1.729   3.541
  703TIP3    H1 2054   7.303   1.752   3.623
  703TIP3    H2 2055   7.368   1.636   3.549
  704TIP3   OH2 2056   0.252  -0.022   6.646
  704TIP3    H1 2057   0.285   0.049   6.590
  704TIP3    H2 2058   0.302  -0.013   6.727
  705TIP3   OH2 2059   7.272   4.035   5.590
  705TIP3    H1 2060   7.366   4.052   5.586
  705TIP3    H2 2061   7.233   4.117   5.619
  706TIP3   OH2 2062   4.431   1.155   3.747
  706TIP3    H1 2063   4.462   1.190   3.830
  706TIP3    H2 2064   4.398   1.231   3.699
  707TIP3   OH2 2065   5.168   3.999   5.322
  707TIP3    H1 2066   5.073   3.991   5.317
  707TIP3    H2 2067   5.183   4.093   5.336
  708TIP3   OH2 2068   6.879   2.757   5.559
  708TIP3    H1 2069   6.896   2.686   5.621
  708TIP3    H2 2070   6.809   2.808   5.600
  709TIP3   OH2 2071   7.582   4.830   1.534
  709TIP3    H1 2072   7.569   4.788   1.450
  709TIP3    H2 2073   7.624   4.763   1.588
  710TIP3   OH2 2074   6.550   5.904   2.301
  710TIP3    H1 2075   6.577   5.952   2.223
  710TIP3    H2 2076   6.468   5.944   2.327
  711TIP3   OH2 2077   7.845   7.708   3.097
  711TIP3    H1 2078   7.752   7.684   3.090
  711TIP3    H2 2079   7.891   7.635   3.056
  712TIP3   OH2 2080   0.129   2.977   4.479
  712TIP3    H1 2081   0.143   2.899   4.532
  712TIP3    H2 2082   0.203   2.977   4.417
  713TIP3   OH2 2083   7.134   2.625   1.722
  713TIP3    H1 2084   7.119   2.689   1.652
  713TIP3    H2 2085   7.172   2.549   1.678
  714TIP3   OH2 2086   6.374   6.695   3.802
  714TIP3    H1 2087   6.396   6.605   3.827
  714TIP3    H2 2088   6.344   6.688   3.711
  715TIP3   OH2 2089   0.722   6.083   6.465
  715TIP3    H1 2090   0.737   6.003   6.415
  715TIP3    H2 2091   0.768   6.152   6.417
  716TIP3   OH2 2092   1.974   1.959   1.445
  716TIP3    H1 2093   2.044   1.895   1.461
  716TIP3    H2 2094   1.949   1.989   1.533
  717TIP3   OH2 2095   2.646   7.570   3.168
  717TIP3    H1 2096   2.606   7.526   3.093
  717TIP3    H2 2097   2.671   7.500   3.228
  718TIP3   OH2 2098   2.462   6.258   3.729
  718TIP3    H1 2099   2.509   6.227   3.652
  718TIP3    H2 2100   2.473   6.187   3.793
  719TIP3   OH2 2101   4.469   3.621   4.257
  719TIP3    H1 2102   4.427   3.676   4.191
  719TIP3    H2 2103   4.555   3.599   4.219
  720TIP3   OH2 2104   0.824   4.525   4.839
  720TIP3    H1 2105   0.747   4.561   4.796
  720TIP3    H2 2106   0.791   4.450   4.888
  721TIP3   OH2 2107   5.449   7.460   1.530
  721TIP3    H1 2108   5.363   7.435   1.564
  721TIP3    H2 2109   5.511   7.413   1.585
  722TIP3   OH2 2110   0.750   2.823   2.564
  722TIP3    H1 2111   0.655   2.814   2.566
  722TIP3    H2 2112   0.781   2.773   2.640
  723TIP3   OH2 2113   5.142   4.885   0.425
  723TIP3    H1 2114   5.142   4.946   0.351
  723TIP3    H2 2115   5.071   4.916   0.481
  724TIP3   OH2 2116   7.593   3.655   4.107
  724TIP3    H1 2117   7.680   3.694   4.110
  724TIP3    H2 2118   7.534   3.726   4.132
  725TIP3   OH2 2119   5.544   1.498   1.413
  725TIP3    H1 2120   5.582   1.563   1.354
  725TIP3    H2 2121   5.524   1.547   1.492
  726TIP3   OH2 2122   7.317   6.130   0.822
  726TIP3    H1 2123   7.350   6.214   0.789
  726TIP3    H2 2124   7.331   6.069   0.750
  727TIP3   OH2 2125   0.211   4.407   2.534
  727TIP3    H1 2126   0.262   4.462   2.593
  727TIP3    H2 2127   0.238   4.318   2.555
  728TIP3   OH2 2128   6.376   0.108   0.679
  728TIP3    H1 2129   6.359   0.086   0.771
  728TIP3    H2 2130   6.289   0.116   0.640
  729TIP3   OH2 2131   7.608   7.120   0.197
  729TIP3    H1 2132   7.608   7.034   0.238
  729TIP3    H2 2133   7.584   7.103   0.106
  730TIP3   OH2 2134   2.876   7.356   1.508
  730TIP3    H1 2135   2.934   7.433   1.509
  730TIP3    H2 2136   2.790   7.390   1.530
  731TIP3   OH2 2137   8.252   7.818   2.177
  731TIP3    H1 2138   8.199   7.738   2.176
  731TIP3    H2 2139   8.342   7.787   2.178
  732TIP3   OH2 2140   6.945   0.155   3.370
  732TIP3    H1 2141   7.029   0.124   3.403
  732TIP3    H2 2142   6.881   0.096   3.409
  733TIP3   OH2 2143   5.406   3.998   4.147
  733TIP3    H1 2144   5.501   4.008   4.152
  733TIP3    H2 2145   5.389   3.982   4.054
  734TIP3   OH2 2146   6.028   6.595   2.788
  734TIP3    H1 2147   6.015   6.666   2.726
  734TIP3    H2 2148   5.951   6.597   2.844
  735TIP3   OH2 2149   0.960   2.362   4.546
  735TIP3    H1 2150   0.967   2.407   4.631
  735TIP3    H2 2151   0.902   2.418   4.495
  736TIP3   OH2 2152   2.379   5.853   0.376
  736TIP3    H1 2153   2.380   5.930   0.320
  736TIP3    H2 2154   2.289   5.820   0.369
  737TIP3   OH2 2155   4.915   0.156   3.592
  737TIP3    H1 2156   4.877   0.244   3.597
  737TIP3    H2 2157   5.002   0.170   3.554
  738TIP3   OH2 2158   8.066   2.912   5.405
  738TIP3    H1 2159   8.002   2.878   5.467
  738TIP3    H2 2160   8.142   2.933   5.458
  739TIP3   OH2 2161   1.523   7.150   1.305
  739TIP3    H1 2162   1.488   7.076   1.254
  739TIP3    H2 2163   1.453   7.215   1.305
  740TIP3   OH2 2164   4.059   3.033   5.693
  740TIP3    H1 2165   4.138   3.057   5.741
  740TIP3    H2 2166   3.992   3.021   5.761
  741TIP3   OH2 2167   7.974   2.349   5.855
  741TIP3    H1 2168   7.903   2.285   5.857
  741TIP3    H2 2169   8.041   2.311   5.912
  742TIP3   OH2 2170   0.506   5.061   0.608
  742TIP3    H1 2171   0.487   5.151   0.633
  742TIP3    H2 2172   0.600   5.051   0.624
  743TIP3   OH2 2173   6.334   4.761   4.348
  743TIP3    H1 2174   6.355   4.668   4.343
  743TIP3    H2 2175   6.282   4.769   4.428
  744TIP3   OH2 2176   7.331   1.758   2.221
  744TIP3    H1 2177   7.336   1.664   2.202
  744TIP3    H2 2178   7.422   1.788   2.217
  745TIP3   OH2 2179   7.747   4.887   6.175
  745TIP3    H1 2180   7.821   4.830   6.196
  745TIP3    H2 2181   7.756   4.961   6.236
  746TIP3   OH2 2182   1.321   6.880   4.486
  746TIP3    H1 2183   1.346   6.920   4.569
  746TIP3    H2 2184   1.385   6.914   4.423
  747TIP3   OH2 2185   1.606   2.036   5.579
  747TIP3    H1 2186   1.568   2.032   5.667
  747TIP3    H2 2187   1.640   2.126   5.573
  748TIP3   OH2 2188   0.770   2.062   0.367
  748TIP3    H1 2189   0.725   2.087   0.287
  748TIP3    H2 2190   0.807   2.144   0.400
  749TIP3   OH2 2191   2.599   1.814   0.774
  749TIP3    H1 2192   2.603   1.721   0.794
  749TIP3    H2 2193   2.526   1.823   0.713
  750TIP3   OH2 2194   3.224   4.666   5.495
  750TIP3    H1 2195   3.228   4.577   5.461
  750TIP3    H2 2196   3.188   4.718   5.423
  751TIP3   OH2 2197   0.499   6.251   5.625
  751TIP3    H1 2198   0.496   6.283   5.715
  751TIP3    H2 2199   0.533   6.162   5.632
  752TIP3   OH2 2200   5.739   2.078   2.476
  752TIP3    H1 2201   5.817   2.050   2.523
  752TIP3    H2 2202   5.666   2.035   2.521
  753TIP3   OH2 2203   2.587   1.705   4.032
  753TIP3    H1 2204   2.639   1.626   4.047
  753TIP3    H2 2205   2.536   1.686   3.954
  754TIP3   OH2 2206   1.722   6.777   5.660
  754TIP3    H1 2207   1.789   6.820   5.714
  754TIP3    H2 2208   1.698   6.699   5.710
  755TIP3   OH2 2209   7.478   0.991   2.464
  755TIP3    H1 2210   7.508   1.077   2.433
  755TIP3    H2 2211   7.384   1.004   2.482
  756TIP3   OH2 2212   0.800   7.345   4.688
  756TIP3    H1 2213   0.883   7.369   4.730
  756TIP3    H2 2214   0.808   7.252   4.670
  757TIP3   OH2 2215   5.520   4.873   2.536
  757TIP3    H1 2216   5.550   4.803   2.478
  757TIP3    H2 2217   5.525   4.836   2.624
  758TIP3   OH2 2218   6.412   1.667   3.021
  758TIP3    H1 2219   6.431   1.595   2.962
  758TIP3    H2 2220   6.367   1.627   3.096
  759TIP3   OH2 2221   5.029   0.787   0.266
  759TIP3    H1 2222   5.097   0.815   0.205
  759TIP3    H2 2223   4.983   0.717   0.220
  760TIP3   OH2 2224   7.383   7.102   6.109
  760TIP3    H1 2225   7.392   7.197   6.110
  760TIP3    H2 2226   7.290   7.088   6.088
  761TIP3   OH2 2227   1.162   7.608   3.544
  761TIP3    H1 2228   1.166   7.559   3.462
  761TIP3    H2 2229   1.219   7.560   3.604
  762TIP3   OH2 2230   6.794   2.568   2.819
  762TIP3    H1 2231   6.841   2.523   2.889
  762TIP3    H2 2232   6.839   2.653   2.812
  763TIP3   OH2 2233   0.905   1.352   3.180
  763TIP3    H1 2234   0.876   1.423   3.238
  763TIP3    H2 2235   0.855   1.365   3.099
  764TIP3   OH2 2236   0.170   3.938   1.205
  764TIP3    H1 2237   0.233   3.985   1.150
  764TIP3    H2 2238   0.187   3.971   1.293
  765TIP3   OH2 2239   0.705   2.127   4.570
  765TIP3    H1 2240   0.731   2.093   4.656
  765TIP3    H2 2241   0.752   2.072   4.508
  766TIP3   OH2 2242   1.393   3.920   5.551
  766TIP3    H1 2243   1.415   3.831   5.525
  766TIP3    H2 2244   1.301   3.916   5.578
  767TIP3   OH2 2245   0.924   7.125   6.608
  767TIP3    H1 2246   0.894   7.213   6.585
  767TIP3    H2 2247   0.874   7.067   6.550
  768TIP3   OH2 2248   1.088   4.920   2.825
  768TIP3    H1 2249   1.093   5.015   2.833
  768TIP3    H2 2250   1.101   4.888   2.914
  769TIP3   OH2 2251   4.362   5.923   0.580
  769TIP3    H1 2252   4.392   5.925   0.489
  769TIP3    H2 2253   4.439   5.948   0.631
  770TIP3   OH2 2254   6.089   2.421   3.444
  770TIP3    H1 2255   6.179   2.401   3.419
  770TIP3    H2 2256   6.037   2.354   3.400
  771TIP3   OH2 2257   2.620   0.165   1.096
  771TIP3    H1 2258   2.565   0.116   1.157
  771TIP3    H2 2259   2.678   0.217   1.153
  772TIP3   OH2 2260   1.474   1.427   5.045
  772TIP3    H1 2261   1.410   1.443   5.114
  772TIP3    H2 2262   1.492   1.514   5.009
  773TIP3   OH2 2263   2.185   5.711   6.069
  773TIP3    H1 2264   2.259   5.698   6.010
  773TIP3    H2 2265   2.110   5.728   6.012
  774TIP3   OH2 2266   1.394   6.994   1.137
  774TIP3    H1 2267   1.394   7.040   1.053
  774TIP3    H2 2268   1.301   6.975   1.153
  775TIP3   OH2 2269   7.901   0.215   5.358
  775TIP3    H1 2270   7.898   0.148   5.426
  775TIP3    H2 2271   7.975   0.188   5.302
  776TIP3   OH2 2272   7.612   3.192   6.476
  776TIP3    H1 2273   7.588   3.267   6.531
  776TIP3    H2 2274   7.671   3.229   6.410
  777TIP3   OH2 2275   2.950   0.640   4.439
  777TIP3    H1 2276   3.022   0.691   4.404
  777TIP3    H2 2277   2.960   0.553   4.399
  778TIP3   OH2 2278   2.264   5.645   0.148
  778TIP3    H1 2279   2.341   5.624   0.202
  778TIP3    H2 2280   2.300   5.671   0.064
  779TIP3   OH2 2281   1.197   5.559   0.810
  779TIP3    H1 2282   1.246   5.619   0.755
  779TIP3    H2 2283   1.118   5.539   0.760
  780TIP3   OH2 2284   1.543   7.560   1.939
  780TIP3    H1 2285   1.454   7.530   1.922
  780TIP3    H2 2286   1.565   7.615   1.864
  781TIP3   OH2 2287   0.298   0.147   4.775
  781TIP3    H1 2288   0.269   0.071   4.724
  781TIP3    H2 2289   0.360   0.192   4.718
  782TIP3   OH2 2290   0.579   7.741   1.149
  782TIP3    H1 2291   0.651   7.791   1.188
  782TIP3    H2 2292   0.607   7.725   1.058
  783TIP3   OH2 2293   3.399   1.368   1.910
  783TIP3    H1 2294   3.365   1.278   1.910
  783TIP3    H2 2295   3.489   1.360   1.940
  784TIP3   OH2 2296   5.547   4.503   3.714
  784TIP3    H1 2297   5.509   4.590   3.724
  784TIP3    H2 2298   5.485   4.444   3.758
  785TIP3   OH2 2299   8.249   2.452   1.790
  785TIP3    H1 2300   8.249   2.427   1.697
  785TIP3    H2 2301   8.316   2.521   1.796
  786TIP3   OH2 2302   6.362   1.556   1.616
  786TIP3    H1 2303   6.437   1.519   1.662
  786TIP3    H2 2304   6.349   1.642   1.657
  787TIP3   OH2 2305   7.087   6.168   3.260
  787TIP3    H1 2306   7.134   6.249   3.279
  787TIP3    H2 2307   7.153   6.111   3.221
  788TIP3   OH2 2308   3.963   2.491   3.720
  788TIP3    H1 2309   3.956   2.566   3.779
  788TIP3    H2 2310   3.899   2.429   3.754
  789TIP3   OH2 2311   7.406   0.732   2.121
  789TIP3    H1 2312   7.395   0.708   2.029
  789TIP3    H2 2313   7.357   0.813   2.131
  790TIP3   OH2 2314   5.089   5.985   5.342
  790TIP3    H1 2315   5.181   5.996   5.316
  790TIP3    H2 2316   5.039   5.999   5.261
  791TIP3   OH2 2317   1.823   7.092   1.679
  791TIP3    H1 2318   1.840   7.160   1.744
  791TIP3    H2 2319   1.816   7.011   1.730
  792TIP3   OH2 2320   3.380   1.571   5.630
  792TIP3    H1 2321   3.345   1.555   5.543
  792TIP3    H2 2322   3.434   1.494   5.649
  793TIP3   OH2 2323   3.023   7.815   1.579
  793TIP3    H1 2324   2.980   7.739   1.540
  793TIP3    H2 2325   3.114   7.809   1.550
  794TIP3   OH2 2326   7.755   6.534   5.706
  794TIP3    H1 2327   7.772   6.544   5.800
  794TIP3    H2 2328   7.694   6.605   5.685
  795TIP3   OH2 2329   4.475   3.844   2.890
  795TIP3    H1 2330   4.486   3.765   2.944
  795TIP3    H2 2331   4.421   3.815   2.816
  796TIP3   OH2 2332   2.024   3.438   2.615
  796TIP3    H1 2333   2.000   3.487   2.694
  796TIP3    H2 2334   1.957   3.461   2.551
  797TIP3   OH2 2335   3.730   4.119   4.296
  797TIP3    H1 2336   3.760   4.173   4.369
  797TIP3    H2 2337   3.639   4.147   4.282
  798TIP3   OH2 2338   1.358   2.786   5.879
  798TIP3    H1 2339   1.424   2.846   5.915
  798TIP3    H2 2340   1.279   2.805   5.929
  799TIP3   OH2 2341   4.085   4.710   1.615
  799TIP3    H1 2342   4.172   4.675   1.637
  799TIP3    H2 2343   4.025   4.662   1.672
  800TIP3   OH2 2344   1.115   1.565   0.092
  800TIP3    H1 2345   1.065   1.486   0.116
  800TIP3    H2 2346   1.145   1.548   0.003
  801TIP3   OH2 2347   6.047   3.620   6.374
  801TIP3    H1 2348   6.136   3.584   6.377
  801TIP3    H2 2349   6.008   3.595   6.457
  802TIP3   OH2 2350   5.778   4.741   6.197
  802TIP3    H1 2351   5.751   4.669   6.254
  802TIP3    H2 2352   5.873   4.740   6.201
  803TIP3   OH2 2353   1.124   4.744   0.657
  803TIP3    H1 2354   1.063   4.802   0.703
  803TIP3    H2 2355   1.178   4.706   0.727
  804TIP3   OH2 2356   4.585   1.037   1.268
  804TIP3    H1 2357   4.567   0.994   1.184
  804TIP3    H2 2358   4.536   1.119   1.264
  805TIP3   OH2 2359   0.187   0.118   6.292
  805TIP3    H1 2360   0.232   0.172   6.357
  805TIP3    H2 2361   0.118   0.075   6.341
  806TIP3   OH2 2362   6.192   1.505   5.507
  806TIP3    H1 2363   6.120   1.445   5.523
  806TIP3    H2 2364   6.262   1.450   5.472
  807TIP3   OH2 2365   3.214   4.954   2.956
  807TIP3    H1 2366   3.292   4.899   2.948
  807TIP3    H2 2367   3.145   4.903   2.913
  808TIP3   OH2 2368   7.081   3.965   1.783
  808TIP3    H1 2369   7.056   3.875   1.806
  808TIP3    H2 2370   7.169   3.975   1.820
  809TIP3   OH2 2371   3.765   4.891   1.988
  809TIP3    H1 2372   3.791   4.840   1.911
  809TIP3    H2 2373   3.847   4.912   2.032
  810TIP3   OH2 2374   6.048   6.187   2.774
  810TIP3    H1 2375   5.985   6.245   2.732
  810TIP3    H2 2376   6.073   6.125   2.706
  811TIP3   OH2 2377   5.959   0.031   3.345
  811TIP3    H1 2378   5.863   0.026   3.338
  811TIP3    H2 2379   5.987  -0.060   3.353
  812TIP3   OH2 2380   6.654   1.468   0.255
  812TIP3    H1 2381   6.566   1.430   0.259
  812TIP3    H2 2382   6.642   1.557   0.290
  813TIP3   OH2 2383   0.851   3.048   2.157
  813TIP3    H1 2384   0.905   3.117   2.195
  813TIP3    H2 2385   0.766   3.089   2.142
  814TIP3   OH2 2386   3.791   5.390   0.745
  814TIP3    H1 2387   3.795   5.437   0.662
  814TIP3    H2 2388   3.860   5.429   0.798
  815TIP3   OH2 2389   1.076   1.499   5.839
  815TIP3    H1 2390   1.071   1.593   5.860
  815TIP3    H2 2391   0.987   1.477   5.809
  816TIP3   OH2 2392   5.732   3.670   3.702
  816TIP3    H1 2393   5.772   3.677   3.615
  816TIP3    H2 2394   5.765   3.588   3.738
  817TIP3   OH2 2395   2.954   6.371   6.374
  817TIP3    H1 2396   2.922   6.313   6.443
  817TIP3    H2 2397   2.886   6.438   6.365
  818TIP3   OH2 2398   5.846   5.965   2.431
  818TIP3    H1 2399   5.937   5.988   2.412
  818TIP3    H2 2400   5.794   6.026   2.379
  819TIP3   OH2 2401   6.542   4.112   0.703
  819TIP3    H1 2402   6.525   4.205   0.717
  819TIP3    H2 2403   6.485   4.067   0.766
  820TIP3   OH2 2404   6.698   6.571   3.971
  820TIP3    H1 2405   6.661   6.659   3.972
  820TIP3    H2 2406   6.697   6.544   4.063
  821TIP3   OH2 2407   4.377   0.125   0.637
  821TIP3    H1 2408   4.345   0.214   0.622
  821TIP3    H2 2409   4.399   0.123   0.731
  822TIP3   OH2 2410   4.971   7.048   0.726
  822TIP3    H1 2411   4.922   7.001   0.793
  822TIP3    H2 2412   4.987   7.134   0.764
  823TIP3   OH2 2413   0.856   1.182   5.474
  823TIP3    H1 2414   0.949   1.177   5.453
  823TIP3    H2 2415   0.851   1.152   5.564
  824TIP3   OH2 2416   2.149   0.716   3.001
  824TIP3    H1 2417   2.189   0.801   2.987
  824TIP3    H2 2418   2.210   0.669   3.059
  825TIP3   OH2 2419   6.719   1.547   5.955
  825TIP3    H1 2420   6.667   1.601   5.895
  825TIP3    H2 2421   6.802   1.534   5.910
  826TIP3   OH2 2422   7.006   2.590   2.510
  826TIP3    H1 2423   6.927   2.553   2.548
  826TIP3    H2 2424   6.978   2.625   2.425
  827TIP3   OH2 2425   3.696   6.571   2.101
  827TIP3    H1 2426   3.771   6.558   2.043
  827TIP3    H2 2427   3.721   6.646   2.155
  828TIP3   OH2 2428   1.097   5.088   0.081
  828TIP3    H1 2429   1.189   5.107   0.058
  828TIP3    H2 2430   1.079   5.004   0.040
  829TIP3   OH2 2431   4.654   2.789   4.676
  829TIP3    H1 2432   4.574   2.764   4.721
  829TIP3    H2 2433   4.685   2.866   4.724
  830TIP3   OH2 2434   7.192   4.033   6.112
  830TIP3    H1 2435   7.244   4.071   6.042
  830TIP3    H2 2436   7.134   3.971   6.068
  831TIP3   OH2 2437   5.918   7.243   6.073
  831TIP3    H1 2438   5.928   7.318   6.132
  831TIP3    H2 2439   5.866   7.180   6.123
  832TIP3   OH2 2440   2.084   1.501   2.252
  832TIP3    H1 2441   2.114   1.570   2.311
  832TIP3    H2 2442   2.119   1.526   2.166
  833TIP3   OH2 2443   2.726   4.094   0.732
  833TIP3    H1 2444   2.667   4.111   0.806
  833TIP3    H2 2445   2.694   4.012   0.694
  834TIP3   OH2 2446   3.673   4.159   1.023
  834TIP3    H1 2447   3.724   4.232   1.058
  834TIP3    H2 2448   3.738   4.096   0.994
  835TIP3   OH2 2449   4.601   7.674   4.438
  835TIP3    H1 2450   4.572   7.764   4.448
  835TIP3    H2 2451   4.697   7.678   4.448
  836TIP3   OH2 2452   7.419   2.806   3.708
  836TIP3    H1 2453   7.327   2.814   3.731
  836TIP3    H2 2454   7.423   2.829   3.615
  837TIP3   OH2 2455   0.970   2.966   0.041
  837TIP3    H1 2456   0.945   2.991  -0.048
  837TIP3    H2 2457   0.951   3.044   0.094
  838TIP3   OH2 2458   7.615   1.479   1.792
  838TIP3    H1 2459   7.699   1.480   1.747
  838TIP3    H2 2460   7.604   1.568   1.825
  839TIP3   OH2 2461   2.127   0.570   5.526
  839TIP3    H1 2462   2.141   0.561   5.621
  839TIP3    H2 2463   2.133   0.480   5.493
  840TIP3   OH2 2464   6.688   2.015   4.653
  840TIP3    H1 2465   6.746   1.970   4.715
  840TIP3    H2 2466   6.621   1.951   4.631
  841TIP3   OH2 2467   7.130   1.499   3.834
  841TIP3    H1 2468   7.178   1.580   3.814
  841TIP3    H2 2469   7.159   1.475   3.922
  842TIP3   OH2 2470   4.378   4.915   1.026
  842TIP3    H1 2471   4.386   4.893   0.934
  842TIP3    H2 2472   4.301   4.972   1.032
  843TIP3   OH2 2473   1.343   1.148   1.414
  843TIP3    H1 2474   1.327   1.236   1.379
  843TIP3    H2 2475   1.432   1.127   1.387
  844TIP3   OH2 2476   0.475   7.082   3.290
  844TIP3    H1 2477   0.498   7.060   3.380
  844TIP3    H2 2478   0.382   7.104   3.293
  845TIP3   OH2 2479   8.178   5.605   6.694
  845TIP3    H1 2480   8.170   5.511   6.678
  845TIP3    H2 2481   8.104   5.626   6.752
  846TIP3   OH2 2482   0.854   5.275   3.206
  846TIP3    H1 2483   0.760   5.259   3.216
  846TIP3    H2 2484   0.879   5.321   3.286
  847TIP3   OH2 2485   7.912   4.559   2.711
  847TIP3    H1 2486   7.895   4.646   2.675
  847TIP3    H2 2487   7.960   4.513   2.642
  848TIP3   OH2 2488   1.288   7.676   4.720
  848TIP3    H1 2489   1.242   7.729   4.785
  848TIP3    H2 2490   1.272   7.721   4.637
  849TIP3   OH2 2491   1.782   2.196   5.058
  849TIP3    H1 2492   1.741   2.122   5.103
  849TIP3    H2 2493   1.754   2.186   4.967
  850TIP3   OH2 2494   3.913   5.680   0.640
  850TIP3    H1 2495   3.948   5.652   0.556
  850TIP3    H2 2496   3.990   5.712   0.688
  851TIP3   OH2 2497   6.525   3.803   1.234
  851TIP3    H1 2498   6.467   3.879   1.231
  851TIP3    H2 2499   6.487   3.742   1.171
  852TIP3   OH2 2500   3.064   6.481   0.517
  852TIP3    H1 2501   3.031   6.565   0.549
  852TIP3    H2 2502   3.065   6.491   0.421
  853TIP3   OH2 2503   0.604   3.947   1.180
  853TIP3    H1 2504   0.673   3.944   1.246
  853TIP3    H2 2505   0.588   3.855   1.158
  854TIP3   OH2 2506   3.256   0.115   6.577
  854TIP3    H1 2507   3.235   0.129   6.485
  854TIP3    H2 2508   3.278   0.202   6.611
  855TIP3   OH2 2509   7.776   3.749   5.757
  855TIP3    H1 2510   7.738   3.665   5.730
  855TIP3    H2 2511   7.739   3.766   5.843
  856TIP3   OH2 2512   7.325   4.519   4.726
  856TIP3    H1 2513   7.408   4.567   4.716
  856TIP3    H2 2514   7.344   4.431   4.693
  857TIP3   OH2 2515   1.402   2.455   3.360
  857TIP3    H1 2516   1.399   2.550   3.352
  857TIP3    H2 2517   1.313   2.430   3.386
  858TIP3   OH2 2518   6.973   2.538   1.458
  858TIP3    H1 2519   6.937   2.466   1.406
  858TIP3    H2 2520   7.065   2.542   1.431
  859TIP3   OH2 2521   1.085   1.797   2.508
  859TIP3    H1 2522   1.096   1.842   2.424
  859TIP3    H2 2523   1.037   1.859   2.562
  860TIP3   OH2 2524   6.811   6.825   2.715
  860TIP3    H1 2525   6.756   6.882   2.661
  860TIP3    H2 2526   6.754   6.753   2.740
  861TIP3   OH2 2527   4.364   0.860   2.146
  861TIP3    H1 2528   4.435   0.865   2.210
  861TIP3    H2 2529   4.394   0.796   2.081
  862TIP3   OH2 2530   5.811   2.856   1.069
  862TIP3    H1 2531   5.774   2.890   0.987
  862TIP3    H2 2532   5.773   2.769   1.078
  863TIP3   OH2 2533   8.277   6.621   6.795
  863TIP3    H1 2534   8.281   6.680   6.720
  863TIP3    H2 2535   8.344   6.555   6.778
  864TIP3   OH2 2536   6.606   3.487   0.033
  864TIP3    H1 2537   6.604   3.400   0.073
  864TIP3    H2 2538   6.609   3.470  -0.061
  865TIP3   OH2 2539   5.866   0.766   4.820
  865TIP3    H1 2540   5.915   0.683   4.822
  865TIP3    H2 2541   5.779   0.743   4.854
  866TIP3   OH2 2542   5.600   7.842   5.325
  866TIP3    H1 2543   5.642   7.817   5.243
  866TIP3    H2 2544   5.617   7.768   5.384
  867TIP3   OH2 2545   7.164   1.449   2.353
  867TIP3    H1 2546   7.223   1.461   2.278
  867TIP3    H2 2547   7.172   1.530   2.403
  868TIP3   OH2 2548   3.152   4.881   0.644
  868TIP3    H1 2549   3.231   4.934   0.654
  868TIP3    H2 2550   3.079   4.943   0.654
  869TIP3   OH2 2551   0.163   0.402   4.841
  869TIP3    H1 2552   0.177   0.320   4.794
  869TIP3    H2 2553   0.216   0.395   4.920
  870TIP3   OH2 2554   8.264   0.564   1.343
  870TIP3    H1 2555   8.220   0.483   1.368
  870TIP3    H2 2556   8.354   0.553   1.373
  871TIP3   OH2 2557   4.079   0.198   3.284
  871TIP3    H1 2558   4.174   0.210   3.274
  871TIP3    H2 2559   4.060   0.230   3.372
  872TIP3   OH2 2560   4.538   0.089   3.820
  872TIP3    H1 2561   4.563   0.002   3.791
  872TIP3    H2 2562   4.442   0.086   3.828
  873TIP3   OH2 2563   7.646   3.012   1.321
  873TIP3    H1 2564   7.645   2.932   1.373
  873TIP3    H2 2565   7.681   3.080   1.380
  874TIP3   OH2 2566   2.366   6.525   6.256
  874TIP3    H1 2567   2.421   6.471   6.199
  874TIP3    H2 2568   2.314   6.463   6.306
  875TIP3   OH2 2569   3.202   4.261   4.010
  875TIP3    H1 2570   3.195   4.338   4.067
  875TIP3    H2 2571   3.229   4.296   3.925
  876TIP3   OH2 2572   8.288   1.001   2.894
  876TIP3    H1 2573   8.371   0.971   2.932
  876TIP3    H2 2574   8.235   0.922   2.887
  877TIP3   OH2 2575   1.868   2.206   5.371
  877TIP3    H1 2576   1.835   2.120   5.343
  877TIP3    H2 2577   1.833   2.217   5.460
  878TIP3   OH2 2578   5.738   1.688   4.806
  878TIP3    H1 2579   5.764   1.779   4.795
  878TIP3    H2 2580   5.656   1.692   4.856
  879TIP3   OH2 2581   0.274   5.090   4.645
  879TIP3    H1 2582   0.352   5.126   4.688
  879TIP3    H2 2583   0.275   4.997   4.667
  880TIP3   OH2 2584   3.938   3.712   0.918
  880TIP3    H1 2585   3.952   3.732   0.825
  880TIP3    H2 2586   3.926   3.617   0.920
  881TIP3   OH2 2587   4.002   0.203   2.268
  881TIP3    H1 2588   3.928   0.190   2.328
  881TIP3    H2 2589   4.004   0.298   2.252
  882TIP3   OH2 2590   7.274   0.883   3.223
  882TIP3    H1 2591   7.289   0.978   3.224
  882TIP3    H2 2592   7.303   0.854   3.310
  883TIP3   OH2 2593   2.109   0.974   3.613
  883TIP3    H1 2594   2.073   0.925   3.687
  883TIP3    H2 2595   2.035   1.023   3.578
  884TIP3   OH2 2596   6.908   6.508   4.362
  884TIP3    H1 2597   6.935   6.494   4.453
  884TIP3    H2 2598   6.863   6.592   4.362
  885TIP3   OH2 2599   2.167   5.119   5.909
  885TIP3    H1 2600   2.102   5.183   5.937
  885TIP3    H2 2601   2.159   5.117   5.813
  886TIP3   OH2 2602   5.037   6.555   5.249
  886TIP3    H1 2603   5.072   6.568   5.337
  886TIP3    H2 2604   5.113   6.559   5.192
  887TIP3   OH2 2605   3.607   7.157   4.524
  887TIP3    H1 2606   3.619   7.071   4.563
  887TIP3    H2 2607   3.600   7.217   4.599
  888TIP3   OH2 2608   6.058   1.398   2.816
  888TIP3    H1 2609   6.116   1.328   2.846
  888TIP3    H2 2610   6.117   1.470   2.795
  889TIP3   OH2 2611   4.997   2.065   3.803
  889TIP3    H1 2612   5.078   2.095   3.762
  889TIP3    H2 2613   4.966   2.142   3.851
  890TIP3   OH2 2614   7.534   2.974   0.777
  890TIP3    H1 2615   7.465   2.913   0.799
  890TIP3    H2 2616   7.513   3.053   0.827
  891TIP3   OH2 2617   3.934   3.185   5.964
  891TIP3    H1 2618   4.003   3.203   5.899
  891TIP3    H2 2619   3.935   3.090   5.973
  892TIP3   OH2 2620   1.266   0.173   6.036
  892TIP3    H1 2621   1.189   0.225   6.061
  892TIP3    H2 2622   1.315   0.162   6.118
  893TIP3   OH2 2623   1.206   3.470   1.489
  893TIP3    H1 2624   1.186   3.407   1.559
  893TIP3    H2 2625   1.232   3.549   1.536
  894TIP3   OH2 2626   2.560   3.087   1.232
  894TIP3    H1 2627   2.642   3.071   1.185
  894TIP3    H2 2628   2.515   3.002   1.232
  895TIP3   OH2 2629   8.123   1.548   3.163
  895TIP3    H1 2630   8.165   1.513   3.085
  895TIP3    H2 2631   8.090   1.471   3.210
  896TIP3   OH2 2632   1.254   4.181   0.141
  896TIP3    H1 2633   1.275   4.234   0.218
  896TIP3    H2 2634   1.335   4.133   0.123
  897TIP3   OH2 2635   0.444   4.082   6.702
  897TIP3    H1 2636   0.444   4.103   6.796
  897TIP3    H2 2637   0.420   4.164   6.659
  898TIP3   OH2 2638   3.741   4.947   0.745
  898TIP3    H1 2639   3.744   4.910   0.833
  898TIP3    H2 2640   3.679   4.892   0.697
  899TIP3   OH2 2641   0.556   0.563   6.437
  899TIP3    H1 2642   0.514   0.634   6.388
  899TIP3    H2 2643   0.649   0.572   6.418
  900TIP3   OH2 2644   0.208   2.888   0.802
  900TIP3    H1 2645   0.236   2.833   0.728
  900TIP3    H2 2646   0.238   2.976   0.779
  901TIP3   OH2 2647   1.523   5.084   5.955
  901TIP3    H1 2648   1.445   5.139   5.955
  901TIP3    H2 2649   1.522   5.042   6.041
  902TIP3   OH2 2650   2.949   4.681   0.968
  902TIP3    H1 2651   3.001   4.646   0.896
  902TIP3    H2 2652   2.880   4.733   0.925
  903TIP3   OH2 2653   1.441   5.922   3.354
  903TIP3    H1 2654   1.382   5.933   3.279
  903TIP3    H2 2655   1.514   5.871   3.319
  904TIP3   OH2 2656   0.622   3.962   4.465
  904TIP3    H1 2657   0.703   4.011   4.449
  904TIP3    H2 2658   0.577   3.962   4.381
  905TIP3   OH2 2659   0.968   6.580   3.259
  905TIP3    H1 2660   0.917   6.505   3.228
  905TIP3    H2 2661   0.965   6.574   3.354
  906TIP3   OH2 2662   3.623   4.758   6.000
  906TIP3    H1 2663   3.561   4.716   5.941
  906TIP3    H2 2664   3.633   4.696   6.072
  907TIP3   OH2 2665   0.989   1.973   0.538
  907TIP3    H1 2666   0.969   1.882   0.562
  907TIP3    H2 2667   0.911   2.003   0.492
  908TIP3   OH2 2668   2.047   2.263   5.679
  908TIP3    H1 2669   2.124   2.319   5.691
  908TIP3    H2 2670   2.073   2.178   5.714
  909TIP3   OH2 2671   3.081   4.159   0.214
  909TIP3    H1 2672   2.986   4.162   0.224
  909TIP3    H2 2673   3.103   4.236   0.162
  910TIP3   OH2 2674   4.008   1.292   3.441
  910TIP3    H1 2675   4.002   1.209   3.394
  910TIP3    H2 2676   4.061   1.347   3.385
  911TIP3   OH2 2677   5.777  -0.012   1.870
  911TIP3    H1 2678   5.786  -0.009   1.775
  911TIP3    H2 2679   5.803   0.075   1.899
  912TIP3   OH2 2680   5.809   1.512   5.493
  912TIP3    H1 2681   5.869   1.586   5.500
  912TIP3    H2 2682   5.758   1.529   5.414
  913TIP3   OH2 2683   7.300   7.412   3.480
  913TIP3    H1 2684   7.379   7.442   3.525
  913TIP3    H2 2685   7.316   7.319   3.464
  914TIP3   OH2 2686   8.030   6.601   2.685
  914TIP3    H1 2687   8.122   6.599   2.657
  914TIP3    H2 2688   8.035   6.614   2.780
  915TIP3   OH2 2689   7.185   7.456   1.330
  915TIP3    H1 2690   7.207   7.401   1.255
  915TIP3    H2 2691   7.109   7.506   1.301
  916TIP3   OH2 2692   7.264   6.332   1.215
  916TIP3    H1 2693   7.209   6.335   1.137
  916TIP3    H2 2694   7.219   6.270   1.273
  917TIP3   OH2 2695   0.647   0.453   2.556
  917TIP3    H1 2696   0.689   0.456   2.642
  917TIP3    H2 2697   0.680   0.531   2.511
  918TIP3   OH2 2698   0.476   3.797   6.749
  918TIP3    H1 2699   0.528   3.803   6.829
  918TIP3    H2 2700   0.530   3.838   6.682
  919TIP3   OH2 2701   6.964   2.630   2.237
  919TIP3    H1 2702   6.930   2.718   2.222
  919TIP3    H2 2703   6.952   2.585   2.154
  920TIP3   OH2 2704   1.202   1.866   5.343
  920TIP3    H1 2705   1.188   1.833   5.431
  920TIP3    H2 2706   1.135   1.933   5.332
  921TIP3   OH2 2707   5.140   1.575   0.465
  921TIP3    H1 2708   5.128   1.547   0.556
  921TIP3    H2 2709   5.214   1.524   0.434
  922TIP3   OH2 2710   5.943   3.010   4.372
  922TIP3    H1 2711   5.865   3.016   4.428
  922TIP3    H2 2712   5.954   2.916   4.359
  923TIP3   OH2 2713   4.853   3.675   3.768
  923TIP3    H1 2714   4.863   3.735   3.694
  923TIP3    H2 2715   4.942   3.659   3.798
  924TIP3   OH2 2716   5.849   3.748   2.405
  924TIP3    H1 2717   5.844   3.745   2.309
  924TIP3    H2 2718   5.763   3.719   2.434
  925TIP3   OH2 2719   5.059   4.942   2.863
  925TIP3    H1 2720   5.106   4.875   2.813
  925TIP3    H2 2721   5.096   5.025   2.832
  926TIP3   OH2 2722   3.179   1.282   5.507
  926TIP3    H1 2723   3.272   1.264   5.495
  926TIP3    H2 2724   3.162   1.361   5.456
  927TIP3   OH2 2725   5.571   6.082   2.322
  927TIP3    H1 2726   5.546   6.163   2.278
  927TIP3    H2 2727   5.601   6.024   2.251
  928TIP3   OH2 2728   3.417   7.261   4.378
  928TIP3    H1 2729   3.482   7.219   4.435
  928TIP3    H2 2730   3.434   7.225   4.291
  929TIP3   OH2 2731   3.765   4.165   3.395
  929TIP3    H1 2732   3.849   4.120   3.390
  929TIP3    H2 2733   3.772   4.236   3.332
  930TIP3   OH2 2734   2.112   4.591   2.640
  930TIP3    H1 2735   2.069   4.652   2.579
  930TIP3    H2 2736   2.086   4.504   2.608
  931TIP3   OH2 2737   7.830   4.217   6.129
  931TIP3    H1 2738   7.904   4.257   6.084
  931TIP3    H2 2739   7.772   4.189   6.059
  932TIP3   OH2 2740   8.091   5.966   1.077
  932TIP3    H1 2741   8.031   5.962   1.003
  932TIP3    H2 2742   8.096   6.059   1.099
  933TIP3   OH2 2743   8.063   5.347   0.937
  933TIP3    H1 2744   8.132   5.285   0.960
  933TIP3    H2 2745   7.997   5.294   0.892
  934TIP3   OH2 2746   0.149   0.166   2.754
  934TIP3    H1 2747   0.224   0.204   2.708
  934TIP3    H2 2748   0.079   0.230   2.741
  935TIP3   OH2 2749   0.938   4.325   6.415
  935TIP3    H1 2750   0.974   4.236   6.418
  935TIP3    H2 2751   0.977   4.363   6.336
  936TIP3   OH2 2752   1.429   7.664   0.986
  936TIP3    H1 2753   1.523   7.654   0.970
  936TIP3    H2 2754   1.404   7.741   0.934
  937TIP3   OH2 2755   7.182   2.100   0.427
  937TIP3    H1 2756   7.254   2.116   0.488
  937TIP3    H2 2757   7.209   2.143   0.346
  938TIP3   OH2 2758   1.085   5.360   6.207
  938TIP3    H1 2759   1.047   5.403   6.131
  938TIP3    H2 2760   1.125   5.431   6.257
  939TIP3   OH2 2761   0.010   0.303   6.183
  939TIP3    H1 2762   0.060   0.224   6.204
  939TIP3    H2 2763  -0.082   0.274   6.186
  940TIP3   OH2 2764   3.081   6.208   2.593
  940TIP3    H1 2765   3.163   6.179   2.634
  940TIP3    H2 2766   3.102   6.293   2.556
  941TIP3   OH2 2767   5.661   3.288   3.013
  941TIP3    H1 2768   5.671   3.266   3.106
  941TIP3    H2 2769   5.719   3.226   2.968
  942TIP3   OH2 2770   6.579   3.278   5.462
  942TIP3    H1 2771   6.492   3.319   5.461
  942TIP3    H2 2772   6.602   3.271   5.554
  943TIP3   OH2 2773   1.082   0.112   5.079
  943TIP3    H1 2774   1.024   0.048   5.121
  943TIP3    H2 2775   1.142   0.139   5.148
  944TIP3   OH2 2776   4.046   2.539   1.366
  944TIP3    H1 2777   4.114   2.582   1.418
  944TIP3    H2 2778   4.092   2.466   1.323
  945TIP3   OH2 2779   4.894   1.485   5.547
  945TIP3    H1 2780   4.964   1.428   5.514
  945TIP3    H2 2781   4.824   1.478   5.482
  946TIP3   OH2 2782   5.936   2.152   4.001
  946TIP3    H1 2783   5.895   2.207   3.934
  946TIP3    H2 2784   6.013   2.114   3.958
  947TIP3   OH2 2785   6.654   1.083   2.852
  947TIP3    H1 2786   6.694   1.138   2.920
  947TIP3    H2 2787   6.658   0.994   2.887
  948TIP3   OH2 2788   1.394   7.005   2.053
  948TIP3    H1 2789   1.302   7.025   2.066
  948TIP3    H2 2790   1.433   7.008   2.140
  949TIP3   OH2 2791   0.776   2.383   3.687
  949TIP3    H1 2792   0.837   2.379   3.760
  949TIP3    H2 2793   0.795   2.467   3.644
  950TIP3   OH2 2794   7.667   5.603   3.002
  950TIP3    H1 2795   7.659   5.524   2.948
  950TIP3    H2 2796   7.685   5.571   3.090
  951TIP3   OH2 2797   5.095   5.554   2.051
  951TIP3    H1 2798   5.008   5.519   2.069
  951TIP3    H2 2799   5.150   5.519   2.122
  952TIP3   OH2 2800   5.014   6.192   3.332
  952TIP3    H1 2801   4.957   6.258   3.373
  952TIP3    H2 2802   5.068   6.159   3.404
  953TIP3   OH2 2803   4.536   6.382   5.958
  953TIP3    H1 2804   4.566   6.353   6.044
  953TIP3    H2 2805   4.615   6.410   5.913
  954TIP3   OH2 2806   4.733   3.876   2.701
  954TIP3    H1 2807   4.758   3.784   2.706
  954TIP3    H2 2808   4.654   3.883   2.755
  955TIP3   OH2 2809   2.072   4.507   5.798
  955TIP3    H1 2810   2.135   4.540   5.861
  955TIP3    H2 2811   2.108   4.533   5.713
  956TIP3   OH2 2812   3.405   5.677   4.137
  956TIP3    H1 2813   3.452   5.600   4.107
  956TIP3    H2 2814   3.359   5.648   4.216
  957TIP3   OH2 2815   3.135   1.132   0.618
  957TIP3    H1 2816   3.104   1.212   0.575
  957TIP3    H2 2817   3.148   1.070   0.546
  958TIP3   OH2 2818   0.123   2.649   3.254
  958TIP3    H1 2819   0.062   2.576   3.242
  958TIP3    H2 2820   0.207   2.607   3.268
  959TIP3   OH2 2821   8.190   4.544   5.421
  959TIP3    H1 2822   8.220   4.454   5.429
  959TIP3    H2 2823   8.095   4.539   5.435
  960TIP3   OH2 2824   6.027   4.491   1.949
  960TIP3    H1 2825   5.970   4.546   1.895
  960TIP3    H2 2826   6.028   4.406   1.906
  961TIP3   OH2 2827   6.526   4.392   3.451
  961TIP3    H1 2828   6.579   4.470   3.436
  961TIP3    H2 2829   6.585   4.331   3.496
  962TIP3   OH2 2830   7.405   1.111   3.540
  962TIP3    H1 2831   7.318   1.100   3.501
  962TIP3    H2 2832   7.438   1.021   3.550
  963TIP3   OH2 2833   0.250   0.361   3.889
  963TIP3    H1 2834   0.289   0.438   3.849
  963TIP3    H2 2835   0.308   0.339   3.961
  964TIP3   OH2 2836   0.956   3.989   2.939
  964TIP3    H1 2837   0.885   3.991   3.004
  964TIP3    H2 2838   1.031   3.955   2.988
  965TIP3   OH2 2839   6.905   5.404   1.056
  965TIP3    H1 2840   6.974   5.382   0.992
  965TIP3    H2 2841   6.921   5.496   1.078
  966TIP3   OH2 2842   5.576   2.938   0.596
  966TIP3    H1 2843   5.568   3.033   0.610
  966TIP3    H2 2844   5.611   2.931   0.507
  967TIP3   OH2 2845   6.468   5.446   5.518
  967TIP3    H1 2846   6.457   5.501   5.441
  967TIP3    H2 2847   6.411   5.371   5.502
  968TIP3   OH2 2848   4.159   5.217   1.825
  968TIP3    H1 2849   4.125   5.262   1.748
  968TIP3    H2 2850   4.129   5.127   1.815
  969TIP3   OH2 2851   7.421   5.868   6.612
  969TIP3    H1 2852   7.447   5.785   6.652
  969TIP3    H2 2853   7.401   5.925   6.687
  970TIP3   OH2 2854   3.740   1.649   0.508
  970TIP3    H1 2855   3.780   1.562   0.515
  970TIP3    H2 2856   3.784   1.701   0.575
  971TIP3   OH2 2857   2.294   4.044   3.074
  971TIP3    H1 2858   2.274   4.131   3.108
  971TIP3    H2 2859   2.221   3.990   3.104
  972TIP3   OH2 2860   5.510   4.973   1.058
  972TIP3    H1 2861   5.504   4.993   0.964
  972TIP3    H2 2862   5.472   4.885   1.065
  973TIP3   OH2 2863   4.847   3.255   5.991
  973TIP3    H1 2864   4.818   3.346   6.001
  973TIP3    H2 2865   4.926   3.248   6.045
  974TIP3   OH2 2866   5.137   7.127   5.776
  974TIP3    H1 2867   5.231   7.123   5.762
  974TIP3    H2 2868   5.119   7.063   5.845
  975TIP3   OH2 2869   3.235   7.510   0.947
  975TIP3    H1 2870   3.157   7.554   0.913
  975TIP3    H2 2871   3.306   7.573   0.937
  976TIP3   OH2 2872   5.857   5.801   5.062
  976TIP3    H1 2873   5.780   5.749   5.087
  976TIP3    H2 2874   5.900   5.821   5.145
  977TIP3   OH2 2875   1.328   2.864   0.816
  977TIP3    H1 2876   1.320   2.905   0.902
  977TIP3    H2 2877   1.377   2.928   0.763
  978TIP3   OH2 2878   7.745   4.900   1.098
  978TIP3    H1 2879   7.839   4.907   1.081
  978TIP3    H2 2880   7.739   4.842   1.173
  979TIP3   OH2 2881   0.265   4.608   0.512
  979TIP3    H1 2882   0.329   4.554   0.466
  979TIP3    H2 2883   0.286   4.698   0.488
  980TIP3   OH2 2884   1.953   3.889   2.847
  980TIP3    H1 2885   1.859   3.906   2.851
  980TIP3    H2 2886   1.993   3.971   2.878
  981TIP3   OH2 2887   7.842   3.471   1.473
  981TIP3    H1 2888   7.882   3.540   1.526
  981TIP3    H2 2889   7.914   3.436   1.421
  982TIP3   OH2 2890   5.660   3.223   6.563
  982TIP3    H1 2891   5.649   3.318   6.555
  982TIP3    H2 2892   5.680   3.208   6.655
  983TIP3   OH2 2893   7.162   1.116   6.442
  983TIP3    H1 2894   7.112   1.100   6.523
  983TIP3    H2 2895   7.168   1.211   6.436
  984TIP3   OH2 2896   4.018   0.398   5.375
  984TIP3    H1 2897   3.991   0.307   5.388
  984TIP3    H2 2898   3.955   0.449   5.425
  985TIP3   OH2 2899   8.069   5.661   6.094
  985TIP3    H1 2900   7.992   5.626   6.049
  985TIP3    H2 2901   8.075   5.751   6.064
  986TIP3   OH2 2902   6.717   1.982   6.585
  986TIP3    H1 2903   6.773   2.022   6.652
  986TIP3    H2 2904   6.638   1.958   6.633
  987TIP3   OH2 2905   6.973   6.580   1.294
  987TIP3    H1 2906   7.004   6.665   1.324
  987TIP3    H2 2907   7.034   6.555   1.225
  988TIP3   OH2 2908   5.621   3.854   5.059
  988TIP3    H1 2909   5.552   3.900   5.107
  988TIP3    H2 2910   5.688   3.920   5.044
  989TIP3   OH2 2911   5.757   1.472   2.255
  989TIP3    H1 2912   5.839   1.450   2.211
  989TIP3    H2 2913   5.743   1.401   2.317
  990TIP3   OH2 2914   0.251   0.803   0.370
  990TIP3    H1 2915   0.197   0.882   0.378
  990TIP3    H2 2916   0.338   0.831   0.398
  991TIP3   OH2 2917   5.437   0.724   0.446
  991TIP3    H1 2918   5.472   0.651   0.497
  991TIP3    H2 2919   5.498   0.796   0.462
  992TIP3   OH2 2920   0.042   5.897   1.874
  992TIP3    H1 2921   0.122   5.942   1.844
  992TIP3    H2 2922  -0.022   5.916   1.806
  993TIP3   OH2 2923   1.139   1.551   0.476
  993TIP3    H1 2924   1.070   1.489   0.500
  993TIP3    H2 2925   1.149   1.539   0.382
  994TIP3   OH2 2926   2.970   0.092   2.013
  994TIP3    H1 2927   2.916   0.025   1.971
  994TIP3    H2 2928   3.050   0.045   2.039
  995TIP3   OH2 2929   1.407   7.315   4.183
  995TIP3    H1 2930   1.322   7.359   4.172
  995TIP3    H2 2931   1.431   7.289   4.094
  996TIP3   OH2 2932   6.038   6.782   0.431
  996TIP3    H1 2933   5.982   6.705   0.428
  996TIP3    H2 2934   5.982   6.855   0.404
  997TIP3   OH2 2935   2.922   5.057   6.531
  997TIP3    H1 2936   2.957   5.126   6.474
  997TIP3    H2 2937   2.876   4.998   6.471
  998TIP3   OH2 2938   4.979   1.730   5.795
  998TIP3    H1 2939   4.901   1.677   5.778
  998TIP3    H2 2940   5.042   1.701   5.729
  999TIP3   OH2 2941   1.624   7.086   1.908
  999TIP3    H1 2942   1.575   7.038   1.974
  999TIP3    H2 2943   1.674   7.018   1.861
 1000TIP3   OH2 2944   2.954   1.352   0.132
 1000TIP3    H1 2945   3.026   1.401   0.093
 1000TIP3    H2 2946   2.885   1.417   0.146
 1001TIP3   OH2 2947   7.288   6.397   4.210
 1001TIP3    H1 2948   7.373   6.388   4.169
 1001TIP3    H2 2949   7.278   6.491   4.224
 1002TIP3   OH2 2950   7.914   6.602   3.141
 1002TIP3    H1 2951   7.838   6.557   3.105
 1002TIP3    H2 2952   7.965   6.628   3.064
 1003TIP3   OH2 2953   7.751   7.411   5.245
 1003TIP3    H1 2954   7.671   7.459   5.265
 1003TIP3    H2 2955   7.751   7.404   5.149
 1004TIP3   OH2 2956   6.821   3.612   2.394
 1004TIP3    H1 2957   6.863   3.676   2.336
 1004TIP3    H2 2958   6.738   3.652   2.418
 1005TIP3   OH2 2959   6.848   1.706   5.631
 1005TIP3    H1 2960   6.760   1.705   5.668
 1005TIP3    H2 2961   6.900   1.654   5.692
 1006TIP3   OH2 2962   5.020   5.562   3.850
 1006TIP3    H1 2963   5.109   5.527   3.857
 1006TIP3    H2 2964   4.971   5.519   3.920
 1007TIP3   OH2 2965   4.962   4.717   4.134
 1007TIP3    H1 2966   4.958   4.636   4.083
 1007TIP3    H2 2967   5.048   4.753   4.115
 1008TIP3   OH2 2968   7.723   2.264   5.852
 1008TIP3    H1 2969   7.678   2.346   5.833
 1008TIP3    H2 2970   7.707   2.249   5.946
 1009TIP3   OH2 2971   5.875   0.604   2.981
 1009TIP3    H1 2972   5.882   0.573   3.072
 1009TIP3    H2 2973   5.932   0.544   2.932
 1010TIP3   OH2 2974   0.184   7.110   2.174
 1010TIP3    H1 2975   0.228   7.061   2.243
 1010TIP3    H2 2976   0.109   7.056   2.150
 1011TIP3   OH2 2977   7.292   3.578   3.308
 1011TIP3    H1 2978   7.358   3.509   3.305
 1011TIP3    H2 2979   7.328   3.647   3.252
 1012TIP3   OH2 2980   8.163   3.796   0.565
 1012TIP3    H1 2981   8.224   3.769   0.634
 1012TIP3    H2 2982   8.086   3.828   0.613
 1013TIP3   OH2 2983   3.057   7.539   5.928
 1013TIP3    H1 2984   3.082   7.546   6.020
 1013TIP3    H2 2985   2.962   7.537   5.928
 1014TIP3   OH2 2986   5.656   3.079   6.296
 1014TIP3    H1 2987   5.646   3.131   6.375
 1014TIP3    H2 2988   5.615   2.995   6.317
 1015TIP3   OH2 2989   1.779   5.541   5.536
 1015TIP3    H1 2990   1.801   5.449   5.528
 1015TIP3    H2 2991   1.684   5.545   5.520
 1016TIP3   OH2 2992   0.286   6.936   6.120
 1016TIP3    H1 2993   0.258   6.852   6.158
 1016TIP3    H2 2994   0.366   6.915   6.073
 1017TIP3   OH2 2995   2.863   5.843   1.287
 1017TIP3    H1 2996   2.918   5.862   1.363
 1017TIP3    H2 2997   2.820   5.761   1.308
 1018TIP3   OH2 2998   2.915   1.280   5.926
 1018TIP3    H1 2999   2.844   1.247   5.872
 1018TIP3    H2 3000   2.877   1.352   5.975
 1019TIP3   OH2 3001   3.734   5.788   0.813
 1019TIP3    H1 3002   3.783   5.762   0.735
 1019TIP3    H2 3003   3.756   5.880   0.825
 1020TIP3   OH2 3004   3.678   0.769   3.815
 1020TIP3    H1 3005   3.659   0.838   3.752
 1020TIP3    H2 3006   3.773   0.763   3.817
 1021TIP3   OH2 3007   3.963   3.861   4.044
 1021TIP3    H1 3008   3.972   3.944   4.089
 1021TIP3    H2 3009   4.043   3.852   3.993
 1022TIP3   OH2 3010   1.481   2.867   3.882
 1022TIP3    H1 3011   1.479   2.795   3.819
 1022TIP3    H2 3012   1.430   2.835   3.956
 1023TIP3   OH2 3013   3.578   3.974   6.608
 1023TIP3    H1 3014   3.543   3.915   6.541
 1023TIP3    H2 3015   3.645   4.024   6.562
 1024TIP3   OH2 3016   7.255   0.043   0.570
 1024TIP3    H1 3017   7.260   0.133   0.603
 1024TIP3    H2 3018   7.162   0.031   0.549
 1025TIP3   OH2 3019   0.299   1.372   4.743
 1025TIP3    H1 3020   0.306   1.464   4.771
 1025TIP3    H2 3021   0.379   1.355   4.694
 1026TIP3   OH2 3022   3.414   4.852   2.558
 1026TIP3    H1 3023   3.413   4.936   2.513
 1026TIP3    H2 3024   3.400   4.787   2.489
 1027TIP3   OH2 3025   6.658   1.225   1.635
 1027TIP3    H1 3026   6.743   1.240   1.594
 1027TIP3    H2 3027   6.629   1.140   1.601
 1028TIP3   OH2 3028   4.761   3.803   0.263
 1028TIP3    H1 3029   4.815   3.882   0.257
 1028TIP3    H2 3030   4.814   3.742   0.314
 1029TIP3   OH2 3031   5.220   2.997   2.212
 1029TIP3    H1 3032   5.149   3.052   2.243
 1029TIP3    H2 3033   5.298   3.051   2.220
 1030TIP3   OH2 3034   4.842   3.706   5.157
 1030TIP3    H1 3035   4.814   3.693   5.066
 1030TIP3    H2 3036   4.935   3.729   5.150
 1031TIP3   OH2 3037   6.823   5.970   5.464
 1031TIP3    H1 3038   6.845   6.034   5.396
 1031TIP3    H2 3039   6.878   5.894   5.445
 1032TIP3   OH2 3040   2.435   6.561   1.099
 1032TIP3    H1 3041   2.415   6.594   1.012
 1032TIP3    H2 3042   2.503   6.620   1.133
 1033TIP3   OH2 3043   4.362   1.638   1.088
 1033TIP3    H1 3044   4.441   1.651   1.140
 1033TIP3    H2 3045   4.311   1.718   1.100
 1034TIP3   OH2 3046   2.643   6.821   0.139
 1034TIP3    H1 3047   2.668   6.913   0.148
 1034TIP3    H2 3048   2.602   6.816   0.052
 1035TIP3   OH2 3049   6.177   2.495   6.753
 1035TIP3    H1 3050   6.213   2.420   6.800
 1035TIP3    H2 3051   6.253   2.532   6.706
 1036TIP3   OH2 3052   2.289   2.897   2.388
 1036TIP3    H1 3053   2.203   2.934   2.371
 1036TIP3    H2 3054   2.271   2.819   2.442
 1037TIP3   OH2 3055   1.314   4.961   4.870
 1037TIP3    H1 3056   1.379   4.943   4.802
 1037TIP3    H2 3057   1.323   4.887   4.931
 1038TIP3   OH2 3058   4.115   0.421   4.848
 1038TIP3    H1 3059   4.116   0.453   4.938
 1038TIP3    H2 3060   4.120   0.326   4.856
 1039TIP3   OH2 3061   2.873   0.663   0.078
 1039TIP3    H1 3062   2.952   0.609   0.079
 1039TIP3    H2 3063   2.829   0.644   0.161
 1040TIP3   OH2 3064   3.547   5.491   2.458
 1040TIP3    H1 3065   3.520   5.432   2.388
 1040TIP3    H2 3066   3.581   5.568   2.413
 1041TIP3   OH2 3067   6.095   3.167   5.670
 1041TIP3    H1 3068   6.000   3.154   5.674
 1041TIP3    H2 3069   6.108   3.254   5.708
 1042TIP3   OH2 3070   1.082   3.849   1.286
 1042TIP3    H1 3071   1.048   3.769   1.325
 1042TIP3    H2 3072   1.097   3.827   1.194
 1043TIP3   OH2 3073   7.996   4.963   2.051
 1043TIP3    H1 3074   7.971   4.900   2.118
 1043TIP3    H2 3075   8.060   5.019   2.094
 1044TIP3   OH2 3076   0.081   5.146   3.367
 1044TIP3    H1 3077   0.143   5.084   3.328
 1044TIP3    H2 3078   0.008   5.092   3.397
 1045TIP3   OH2 3079   2.682   0.611   2.642
 1045TIP3    H1 3080   2.610   0.579   2.588
 1045TIP3    H2 3081   2.696   0.701   2.614
 1046TIP3   OH2 3082   4.635   3.436   1.982
 1046TIP3    H1 3083   4.672   3.403   1.900
 1046TIP3    H2 3084   4.541   3.431   1.970
 1047TIP3   OH2 3085   2.828   4.962   3.217
 1047TIP3    H1 3086   2.741   5.001   3.216
 1047TIP3    H2 3087   2.870   4.999   3.294
 1048TIP3   OH2 3088   2.462   2.160   1.191
 1048TIP3    H1 3089   2.400   2.100   1.150
 1048TIP3    H2 3090   2.536   2.163   1.131
 1049TIP3   OH2 3091   4.781   0.830   4.409
 1049TIP3    H1 3092   4.691   0.818   4.380
 1049TIP3    H2 3093   4.774   0.844   4.504
 1050TIP3   OH2 3094   7.874   3.655   2.345
 1050TIP3    H1 3095   7.874   3.688   2.435
 1050TIP3    H2 3096   7.858   3.561   2.354
 1051TIP3   OH2 3097   4.914   4.991   4.434
 1051TIP3    H1 3098   4.979   5.055   4.464
 1051TIP3    H2 3099   4.965   4.915   4.407
 1052TIP3   OH2 3100   0.091   5.794   4.215
 1052TIP3    H1 3101   0.085   5.772   4.122
 1052TIP3    H2 3102   0.077   5.711   4.260
 1053TIP3   OH2 3103   1.735   5.597   0.305
 1053TIP3    H1 3104   1.689   5.577   0.223
 1053TIP3    H2 3105   1.696   5.539   0.370
 1054TIP3   OH2 3106   7.941   2.547   5.334
 1054TIP3    H1 3107   7.878   2.530   5.403
 1054TIP3    H2 3108   7.888   2.579   5.260
 1055TIP3   OH2 3109   1.526   0.356   1.792
 1055TIP3    H1 3110   1.476   0.428   1.754
 1055TIP3    H2 3111   1.503   0.280   1.738
 1056TIP3   OH2 3112   4.532   5.403   4.328
 1056TIP3    H1 3113   4.551   5.398   4.422
 1056TIP3    H2 3114   4.485   5.322   4.309
 1057TIP3   OH2 3115   4.912   3.907   4.095
 1057TIP3    H1 3116   4.937   3.840   4.031
 1057TIP3    H2 3117   4.990   3.961   4.106
 1058TIP3   OH2 3118   5.971   1.606   6.508
 1058TIP3    H1 3119   6.004   1.685   6.466
 1058TIP3    H2 3120   6.008   1.610   6.597
 1059TIP3   OH2 3121   7.670   1.677   1.175
 1059TIP3    H1 3122   7.630   1.727   1.104
 1059TIP3    H2 3123   7.658   1.585   1.150
 1060TIP3   OH2 3124   8.077   4.030   4.711
 1060TIP3    H1 3125   8.007   4.090   4.684
 1060TIP3    H2 3126   8.032   3.947   4.727
 1061TIP3   OH2 3127   7.231   4.864   5.170
 1061TIP3    H1 3128   7.205   4.805   5.099
 1061TIP3    H2 3129   7.153   4.870   5.225
 1062TIP3   OH2 3130   0.324   0.981   3.081
 1062TIP3    H1 3131   0.300   1.052   3.021
 1062TIP3    H2 3132   0.242   0.955   3.122
 1063TIP3   OH2 3133   2.301   6.735   3.785
 1063TIP3    H1 3134   2.241   6.732   3.710
 1063TIP3    H2 3135   2.384   6.764   3.747
 1064TIP3   OH2 3136   6.225   2.081   3.881
 1064TIP3    H1 3137   6.233   2.095   3.975
 1064TIP3    H2 3138   6.256   1.992   3.867
 1065TIP3   OH2 3139   5.165   6.595   5.485
 1065TIP3    H1 3140   5.247   6.551   5.507
 1065TIP3    H2 3141   5.187   6.689   5.490
 1066TIP3   OH2 3142   7.455   3.540   2.347
 1066TIP3    H1 3143   7.390   3.608   2.331
 1066TIP3    H2 3144   7.472   3.545   2.441
 1067TIP3   OH2 3145   6.226   0.013   2.578
 1067TIP3    H1 3146   6.218   0.097   2.623
 1067TIP3    H2 3147   6.136  -0.020   2.571
 1068TIP3   OH2 3148   1.781   4.003   5.985
 1068TIP3    H1 3149   1.707   3.999   5.924
 1068TIP3    H2 3150   1.859   4.004   5.928
 1069TIP3   OH2 3151   2.679   1.008   3.388
 1069TIP3    H1 3152   2.711   0.932   3.437
 1069TIP3    H2 3153   2.756   1.039   3.339
 1070TIP3   OH2 3154   7.396   5.862   5.531
 1070TIP3    H1 3155   7.401   5.767   5.520
 1070TIP3    H2 3156   7.387   5.896   5.442
 1071TIP3   OH2 3157   0.874   6.820   1.374
 1071TIP3    H1 3158   0.942   6.758   1.398
 1071TIP3    H2 3159   0.902   6.903   1.412
 1072TIP3   OH2 3160   2.765   5.585   0.829
 1072TIP3    H1 3161   2.770   5.504   0.777
 1072TIP3    H2 3162   2.695   5.569   0.892
 1073TIP3   OH2 3163   6.471   3.716   5.395
 1073TIP3    H1 3164   6.395   3.661   5.375
 1073TIP3    H2 3165   6.544   3.656   5.404
 1074TIP3   OH2 3166   7.192   1.361   1.489
 1074TIP3    H1 3167   7.259   1.383   1.553
 1074TIP3    H2 3168   7.228   1.390   1.405
 1075TIP3   OH2 3169   7.445   3.216   2.921
 1075TIP3    H1 3170   7.402   3.293   2.959
 1075TIP3    H2 3171   7.472   3.164   2.997
 1076TIP3   OH2 3172   7.125   3.593   3.835
 1076TIP3    H1 3173   7.166   3.507   3.822
 1076TIP3    H2 3174   7.177   3.653   3.782
 1077TIP3   OH2 3175   3.655   0.073   2.708
 1077TIP3    H1 3176   3.578   0.131   2.704
 1077TIP3    H2 3177   3.625  -0.003   2.757
 1078TIP3   OH2 3178   5.853   6.441   0.763
 1078TIP3    H1 3179   5.774   6.417   0.812
 1078TIP3    H2 3180   5.848   6.389   0.683
 1079TIP3   OH2 3181   6.637   7.248   0.774
 1079TIP3    H1 3182   6.645   7.265   0.868
 1079TIP3    H2 3183   6.683   7.165   0.761
 1080TIP3   OH2 3184   2.280   3.009   6.218
 1080TIP3    H1 3185   2.373   3.026   6.229
 1080TIP3    H2 3186   2.276   2.935   6.157
 1081TIP3   OH2 3187   1.322   6.494   1.881
 1081TIP3    H1 3188   1.283   6.462   1.800
 1081TIP3    H2 3189   1.315   6.420   1.942
 1082TIP3   OH2 3190   3.965   6.389   3.482
 1082TIP3    H1 3191   3.882   6.351   3.511
 1082TIP3    H2 3192   4.030   6.321   3.502
 1083TIP3   OH2 3193   3.907   4.479   6.247
 1083TIP3    H1 3194   3.988   4.462   6.296
 1083TIP3    H2 3195   3.922   4.438   6.162
 1084TIP3   OH2 3196   1.210   3.179   2.186
 1084TIP3    H1 3197   1.191   3.228   2.266
 1084TIP3    H2 3198   1.181   3.090   2.205
 1085TIP3   OH2 3199   5.742   2.701   5.657
 1085TIP3    H1 3200   5.835   2.724   5.666
 1085TIP3    H2 3201   5.714   2.681   5.746
 1086TIP3   OH2 3202   2.494   6.187   2.509
 1086TIP3    H1 3203   2.484   6.211   2.417
 1086TIP3    H2 3204   2.546   6.257   2.547
 1087TIP3   OH2 3205   3.632   7.128   1.866
 1087TIP3    H1 3206   3.606   7.205   1.816
 1087TIP3    H2 3207   3.635   7.057   1.802
 1088TIP3   OH2 3208   0.846   3.870   1.877
 1088TIP3    H1 3209   0.825   3.793   1.930
 1088TIP3    H2 3210   0.767   3.924   1.879
 1089TIP3   OH2 3211   6.729   5.633   3.331
 1089TIP3    H1 3212   6.665   5.704   3.324
 1089TIP3    H2 3213   6.675   5.554   3.342
 1090TIP3   OH2 3214   4.072   3.759   2.111
 1090TIP3    H1 3215   4.166   3.775   2.124
 1090TIP3    H2 3216   4.065   3.664   2.107
 1091TIP3   OH2 3217   6.296   0.896   2.530
 1091TIP3    H1 3218   6.238   0.856   2.464
 1091TIP3    H2 3219   6.382   0.858   2.511
 1092TIP3   OH2 3220   2.390   6.335   5.002
 1092TIP3    H1 3221   2.340   6.262   5.038
 1092TIP3    H2 3222   2.434   6.373   5.078
 1093TIP3   OH2 3223   8.203   5.554   4.539
 1093TIP3    H1 3224   8.266   5.561   4.467
 1093TIP3    H2 3225   8.247   5.500   4.605
 1094TIP3   OH2 3226   8.020   2.915   1.675
 1094TIP3    H1 3227   8.010   2.991   1.619
 1094TIP3    H2 3228   8.108   2.925   1.714
 1095TIP3   OH2 3229   7.097   6.895   6.282
 1095TIP3    H1 3230   7.165   6.840   6.321
 1095TIP3    H2 3231   7.131   6.984   6.288
 1096TIP3   OH2 3232   5.411   0.300   2.863
 1096TIP3    H1 3233   5.363   0.219   2.841
 1096TIP3    H2 3234   5.499   0.270   2.883
 1097TIP3   OH2 3235   4.812   6.728   3.119
 1097TIP3    H1 3236   4.745   6.746   3.054
 1097TIP3    H2 3237   4.816   6.632   3.123
 1098TIP3   OH2 3238   6.460   6.546   4.366
 1098TIP3    H1 3239   6.528   6.522   4.428
 1098TIP3    H2 3240   6.394   6.592   4.418
 1099TIP3   OH2 3241   0.158   1.935   0.494
 1099TIP3    H1 3242   0.223   1.979   0.439
 1099TIP3    H2 3243   0.201   1.854   0.521
 1100TIP3   OH2 3244   0.110   4.965   6.628
 1100TIP3    H1 3245   0.204   4.971   6.642
 1100TIP3    H2 3246   0.100   4.946   6.535
 1101TIP3   OH2 3247   5.613   2.827   1.879
 1101TIP3    H1 3248   5.649   2.817   1.791
 1101TIP3    H2 3249   5.688   2.851   1.933
 1102TIP3   OH2 3250   3.958   0.833   6.563
 1102TIP3    H1 3251   3.900   0.891   6.612
 1102TIP3    H2 3252   3.951   0.863   6.472
 1103TIP3   OH2 3253   3.801   2.832   5.424
 1103TIP3    H1 3254   3.821   2.746   5.388
 1103TIP3    H2 3255   3.714   2.823   5.463
 1104TIP3   OH2 3256   3.438   3.294   5.098
 1104TIP3    H1 3257   3.457   3.226   5.033
 1104TIP3    H2 3258   3.487   3.267   5.176
 1105TIP3   OH2 3259   2.429   2.783   4.456
 1105TIP3    H1 3260   2.334   2.774   4.452
 1105TIP3    H2 3261   2.462   2.693   4.460
 1106TIP3   OH2 3262   7.470   6.387   5.855
 1106TIP3    H1 3263   7.523   6.347   5.923
 1106TIP3    H2 3264   7.469   6.322   5.784
 1107TIP3   OH2 3265   5.466   6.654   6.566
 1107TIP3    H1 3266   5.422   6.574   6.594
 1107TIP3    H2 3267   5.546   6.656   6.619
 1108TIP3   OH2 3268   1.725   4.272   5.342
 1108TIP3    H1 3269   1.795   4.213   5.314
 1108TIP3    H2 3270   1.653   4.213   5.368
 1109TIP3   OH2 3271   1.980   2.949   0.403
 1109TIP3    H1 3272   2.075   2.947   0.413
 1109TIP3    H2 3273   1.947   2.895   0.475
 1110TIP3   OH2 3274   3.197   1.393   1.135
 1110TIP3    H1 3275   3.162   1.306   1.117
 1110TIP3    H2 3276   3.217   1.429   1.048
 1111TIP3   OH2 3277   3.226   3.573   1.577
 1111TIP3    H1 3278   3.131   3.559   1.567
 1111TIP3    H2 3279   3.248   3.531   1.660
 1112TIP3   OH2 3280   4.807   0.092   0.779
 1112TIP3    H1 3281   4.736   0.095   0.715
 1112TIP3    H2 3282   4.885   0.119   0.729
 1113TIP3   OH2 3283   8.201   4.111   5.972
 1113TIP3    H1 3284   8.138   4.065   5.915
 1113TIP3    H2 3285   8.220   4.192   5.925
 1114TIP3   OH2 3286   4.384   2.905   2.732
 1114TIP3    H1 3287   4.328   2.978   2.707
 1114TIP3    H2 3288   4.467   2.947   2.756
 1115TIP3   OH2 3289   2.914   5.810   5.560
 1115TIP3    H1 3290   2.898   5.750   5.632
 1115TIP3    H2 3291   2.828   5.847   5.540
 1116TIP3   OH2 3292   5.173   7.346   3.986
 1116TIP3    H1 3293   5.149   7.264   3.944
 1116TIP3    H2 3294   5.162   7.413   3.918
 1117TIP3   OH2 3295   1.481   0.840   0.429
 1117TIP3    H1 3296   1.432   0.759   0.418
 1117TIP3    H2 3297   1.415   0.904   0.459
 1118TIP3   OH2 3298   1.546   6.164   6.077
 1118TIP3    H1 3299   1.609   6.145   6.008
 1118TIP3    H2 3300   1.460   6.153   6.035
 1119TIP3   OH2 3301   5.628   7.190   3.719
 1119TIP3    H1 3302   5.616   7.225   3.630
 1119TIP3    H2 3303   5.565   7.239   3.772
 1120TIP3   OH2 3304   7.217   7.149   2.683
 1120TIP3    H1 3305   7.279   7.142   2.611
 1120TIP3    H2 3306   7.147   7.087   2.660
 1121TIP3   OH2 3307   1.314   5.483   0.253
 1121TIP3    H1 3308   1.281   5.573   0.251
 1121TIP3    H2 3309   1.235   5.429   0.250
 1122TIP3   OH2 3310   0.710   0.849   2.961
 1122TIP3    H1 3311   0.700   0.835   3.055
 1122TIP3    H2 3312   0.752   0.935   2.954
 1123TIP3   OH2 3313   5.512   6.612   3.213
 1123TIP3    H1 3314   5.465   6.528   3.218
 1123TIP3    H2 3315   5.527   6.637   3.304
 1124TIP3   OH2 3316   2.389   4.910   6.265
 1124TIP3    H1 3317   2.387   4.834   6.206
 1124TIP3    H2 3318   2.364   4.875   6.350
 1125TIP3   OH2 3319   6.134   6.630   2.281
 1125TIP3    H1 3320   6.039   6.629   2.267
 1125TIP3    H2 3321   6.145   6.592   2.368
 1126TIP3   OH2 3322   4.081   4.120   2.639
 1126TIP3    H1 3323   4.008   4.155   2.588
 1126TIP3    H2 3324   4.076   4.167   2.723
 1127TIP3   OH2 3325   4.389   6.610   0.928
 1127TIP3    H1 3326   4.392   6.534   0.870
 1127TIP3    H2 3327   4.434   6.679   0.879
 1128TIP3   OH2 3328   6.564   5.303   4.239
 1128TIP3    H1 3329   6.610   5.360   4.300
 1128TIP3    H2 3330   6.504   5.252   4.294
 1129TIP3   OH2 3331   8.212   6.917   1.388
 1129TIP3    H1 3332   8.272   6.869   1.444
 1129TIP3    H2 3333   8.163   6.974   1.448
 1130TIP3   OH2 3334   6.073   6.650   1.695
 1130TIP3    H1 3335   6.168   6.654   1.703
 1130TIP3    H2 3336   6.057   6.574   1.639
 1131TIP3   OH2 3337   5.748   5.853   3.688
 1131TIP3    H1 3338   5.831   5.898   3.703
 1131TIP3    H2 3339   5.683   5.923   3.687
 1132TIP3   OH2 3340   0.246   2.177   6.252
 1132TIP3    H1 3341   0.245   2.217   6.165
 1132TIP3    H2 3342   0.250   2.083   6.236
 1133TIP3   OH2 3343   4.671   6.076   0.076
 1133TIP3    H1 3344   4.614   5.998   0.080
 1133TIP3    H2 3345   4.750   6.051   0.124
 1134TIP3   OH2 3346   1.604   4.922   5.673
 1134TIP3    H1 3347   1.653   4.943   5.753
 1134TIP3    H2 3348   1.654   4.964   5.603
 1135TIP3   OH2 3349   7.241   3.380   3.007
 1135TIP3    H1 3350   7.232   3.475   3.001
 1135TIP3    H2 3351   7.191   3.356   3.085
 1136TIP3   OH2 3352   7.913   2.592   5.997
 1136TIP3    H1 3353   7.912   2.556   5.909
 1136TIP3    H2 3354   8.002   2.577   6.028
 1137TIP3   OH2 3355   5.098   6.665   1.621
 1137TIP3    H1 3356   5.115   6.723   1.695
 1137TIP3    H2 3357   5.164   6.690   1.556
 1138TIP3   OH2 3358   0.756   2.242   6.350
 1138TIP3    H1 3359   0.690   2.174   6.330
 1138TIP3    H2 3360   0.711   2.324   6.332
 1139TIP3   OH2 3361   1.652   3.799   3.701
 1139TIP3    H1 3362   1.707   3.874   3.723
 1139TIP3    H2 3363   1.705   3.723   3.723
 1140TIP3   OH2 3364   7.845   0.905   4.965
 1140TIP3    H1 3365   7.865   0.995   4.942
 1140TIP3    H2 3366   7.899   0.887   5.043
 1141TIP3   OH2 3367   6.418   4.809   3.985
 1141TIP3    H1 3368   6.463   4.806   4.070
 1141TIP3    H2 3369   6.327   4.828   4.007
 1142TIP3   OH2 3370   6.847   1.451   6.422
 1142TIP3    H1 3371   6.770   1.401   6.396
 1142TIP3    H2 3372   6.842   1.531   6.369
 1143TIP3   OH2 3373   2.960   5.951   5.069
 1143TIP3    H1 3374   3.051   5.967   5.093
 1143TIP3    H2 3375   2.965   5.883   5.002
 1144TIP3   OH2 3376   5.989   2.293   2.248
 1144TIP3    H1 3377   5.935   2.324   2.321
 1144TIP3    H2 3378   5.927   2.273   2.179
 1145TIP3   OH2 3379   5.784   4.826   4.633
 1145TIP3    H1 3380   5.766   4.732   4.646
 1145TIP3    H2 3381   5.698   4.867   4.631
 1146TIP3   OH2 3382   1.827   5.993   6.328
 1146TIP3    H1 3383   1.846   5.938   6.404
 1146TIP3    H2 3384   1.744   6.036   6.350
 1147TIP3   OH2 3385   7.143   4.913   0.445
 1147TIP3    H1 3386   7.069   4.864   0.410
 1147TIP3    H2 3387   7.200   4.928   0.370
 1148TIP3   OH2 3388   4.187   3.763   3.528
 1148TIP3    H1 3389   4.191   3.684   3.582
 1148TIP3    H2 3390   4.273   3.804   3.538
 1149TIP3   OH2 3391   7.897   1.428   1.614
 1149TIP3    H1 3392   7.853   1.443   1.530
 1149TIP3    H2 3393   7.948   1.507   1.630
 1150TIP3   OH2 3394   1.647   5.992   2.521
 1150TIP3    H1 3395   1.707   5.919   2.505
 1150TIP3    H2 3396   1.700   6.059   2.563
 1151TIP3   OH2 3397   3.367   1.358   5.224
 1151TIP3    H1 3398   3.371   1.265   5.204
 1151TIP3    H2 3399   3.457   1.388   5.214
 1152TIP3   OH2 3400   5.971   0.290   1.816
 1152TIP3    H1 3401   5.970   0.374   1.861
 1152TIP3    H2 3402   6.060   0.256   1.830
 1153TIP3   OH2 3403   6.189   7.348   5.086
 1153TIP3    H1 3404   6.231   7.431   5.061
 1153TIP3    H2 3405   6.259   7.283   5.076
 1154TIP3   OH2 3406   6.382   0.928   5.070
 1154TIP3    H1 3407   6.474   0.905   5.080
 1154TIP3    H2 3408   6.345   0.918   5.158
 1155TIP3   OH2 3409   3.083   7.586   5.666
 1155TIP3    H1 3410   3.088   7.570   5.760
 1155TIP3    H2 3411   3.085   7.498   5.627
 1156TIP3   OH2 3412   5.874   0.098   2.329
 1156TIP3    H1 3413   5.784   0.116   2.300
 1156TIP3    H2 3414   5.872   0.118   2.423
 1157TIP3   OH2 3415   0.039   4.011   1.724
 1157TIP3    H1 3416  -0.011   4.041   1.800
 1157TIP3    H2 3417   0.125   4.051   1.734
 1158TIP3   OH2 3418   5.032   0.706   4.368
 1158TIP3    H1 3419   5.048   0.766   4.295
 1158TIP3    H2 3420   4.960   0.746   4.417
 1159TIP3   OH2 3421   3.200   0.938   2.993
 1159TIP3    H1 3422   3.235   0.849   3.003
 1159TIP3    H2 3423   3.276   0.995   3.007
 1160TIP3   OH2 3424   1.128   6.375   2.127
 1160TIP3    H1 3425   1.216   6.339   2.113
 1160TIP3    H2 3426   1.140   6.440   2.196
 1161TIP3   OH2 3427   1.649   2.440   1.188
 1161TIP3    H1 3428   1.695   2.433   1.105
 1161TIP3    H2 3429   1.697   2.383   1.248
 1162TIP3   OH2 3430   4.291   0.682   0.338
 1162TIP3    H1 3431   4.216   0.681   0.398
 1162TIP3    H2 3432   4.296   0.592   0.305
 1163TIP3   OH2 3433   1.243   2.611   0.658
 1163TIP3    H1 3434   1.288   2.660   0.589
 1163TIP3    H2 3435   1.261   2.660   0.738
 1164TIP3   OH2 3436   5.735   0.616   0.173
 1164TIP3    H1 3437   5.714   0.525   0.153
 1164TIP3    H2 3438   5.729   0.661   0.089
 1165TIP3   OH2 3439   2.675   3.225   4.927
 1165TIP3    H1 3440   2.665   3.206   4.834
 1165TIP3    H2 3441   2.758   3.273   4.932
 1166TIP3   OH2 3442   6.170   2.595   6.489
 1166TIP3    H1 3443   6.188   2.509   6.452
 1166TIP3    H2 3444   6.256   2.629   6.513
 1167TIP3   OH2 3445   1.828   6.839   2.772
 1167TIP3    H1 3446   1.872   6.920   2.796
 1167TIP3    H2 3447   1.878   6.805   2.698
 1168TIP3   OH2 3448   0.273   7.028   2.807
 1168TIP3    H1 3449   0.199   6.974   2.781
 1168TIP3    H2 3450   0.344   7.002   2.748
 1169TIP3   OH2 3451   4.006   6.288   0.929
 1169TIP3    H1 3452   4.022   6.297   0.835
 1169TIP3    H2 3453   4.033   6.372   0.966
 1170TIP3   OH2 3454   3.863   6.927   0.640
 1170TIP3    H1 3455   3.879   6.873   0.718
 1170TIP3    H2 3456   3.781   6.893   0.604
 1171TIP3   OH2 3457   0.289   2.316   5.342
 1171TIP3    H1 3458   0.241   2.240   5.377
 1171TIP3    H2 3459   0.226   2.360   5.286
 1172TIP3   OH2 3460   1.543   4.881   3.966
 1172TIP3    H1 3461   1.557   4.928   3.883
 1172TIP3    H2 3462   1.548   4.949   4.033
 1173TIP3   OH2 3463   5.521   2.917   6.092
 1173TIP3    H1 3464   5.541   2.838   6.141
 1173TIP3    H2 3465   5.553   2.989   6.147
 1174TIP3   OH2 3466   3.020   1.023   6.121
 1174TIP3    H1 3467   2.982   1.088   6.062
 1174TIP3    H2 3468   2.945   0.977   6.157
 1175TIP3   OH2 3469   5.008   6.870   0.977
 1175TIP3    H1 3470   5.084   6.901   1.027
 1175TIP3    H2 3471   4.986   6.786   1.018
 1176TIP3   OH2 3472   5.110   2.566   5.395
 1176TIP3    H1 3473   5.109   2.482   5.442
 1176TIP3    H2 3474   5.162   2.623   5.451
 1177TIP3   OH2 3475   5.228   3.576   0.982
 1177TIP3    H1 3476   5.256   3.571   1.074
 1177TIP3    H2 3477   5.242   3.667   0.958
 1178TIP3   OH2 3478   5.347   7.710   4.238
 1178TIP3    H1 3479   5.285   7.749   4.177
 1178TIP3    H2 3480   5.300   7.635   4.276
 1179TIP3   OH2 3481   8.103   5.715   5.595
 1179TIP3    H1 3482   8.100   5.623   5.622
 1179TIP3    H2 3483   8.055   5.717   5.512
 1180TIP3   OH2 3484   0.315   6.747   4.131
 1180TIP3    H1 3485   0.387   6.736   4.068
 1180TIP3    H2 3486   0.313   6.841   4.149
 1181TIP3   OH2 3487   5.964   6.894   5.940
 1181TIP3    H1 3488   5.949   6.981   5.904
 1181TIP3    H2 3489   5.971   6.837   5.863
 1182TIP3   OH2 3490   5.094   6.357   2.463
 1182TIP3    H1 3491   5.134   6.375   2.549
 1182TIP3    H2 3492   5.157   6.301   2.419
 1183TIP3   OH2 3493   0.246   0.502   0.168
 1183TIP3    H1 3494   0.181   0.568   0.193
 1183TIP3    H2 3495   0.235   0.432   0.232
 1184TIP3   OH2 3496   1.903   6.568   4.440
 1184TIP3    H1 3497   1.891   6.600   4.530
 1184TIP3    H2 3498   1.971   6.624   4.404
 1185TIP3   OH2 3499   4.384   2.640   5.804
 1185TIP3    H1 3500   4.469   2.673   5.774
 1185TIP3    H2 3501   4.334   2.719   5.826
 1186TIP3   OH2 3502   1.594   5.480   3.352
 1186TIP3    H1 3503   1.664   5.486   3.287
 1186TIP3    H2 3504   1.525   5.538   3.318
 1187TIP3   OH2 3505   3.409   7.069   2.547
 1187TIP3    H1 3506   3.450   7.132   2.487
 1187TIP3    H2 3507   3.414   6.986   2.501
 1188TIP3   OH2 3508   3.468   3.298   2.762
 1188TIP3    H1 3509   3.536   3.235   2.785
 1188TIP3    H2 3510   3.487   3.375   2.816
 1189TIP3   OH2 3511   6.620   0.743   5.019
 1189TIP3    H1 3512   6.681   0.808   4.985
 1189TIP3    H2 3513   6.551   0.738   4.952
 1190TIP3   OH2 3514   8.062   3.054   2.004
 1190TIP3    H1 3515   8.087   3.007   2.084
 1190TIP3    H2 3516   7.974   3.087   2.022
 1191TIP3   OH2 3517   7.194   6.706   1.576
 1191TIP3    H1 3518   7.149   6.746   1.501
 1191TIP3    H2 3519   7.229   6.781   1.624
 1192TIP3   OH2 3520   3.781   6.298   5.329
 1192TIP3    H1 3521   3.783   6.278   5.423
 1192TIP3    H2 3522   3.834   6.377   5.321
 1193TIP3   OH2 3523   4.577   4.969   5.651
 1193TIP3    H1 3524   4.614   4.963   5.740
 1193TIP3    H2 3525   4.488   5.002   5.664
 1194TIP3   OH2 3526   7.763   6.922   4.760
 1194TIP3    H1 3527   7.834   6.965   4.713
 1194TIP3    H2 3528   7.798   6.835   4.781
 1195TIP3   OH2 3529   6.930   7.015   1.930
 1195TIP3    H1 3530   6.942   6.923   1.954
 1195TIP3    H2 3531   7.017   7.053   1.941
 1196TIP3   OH2 3532   0.373   1.502   0.058
 1196TIP3    H1 3533   0.316   1.559   0.007
 1196TIP3    H2 3534   0.338   1.508   0.148
 1197TIP3   OH2 3535   7.067   5.365   3.577
 1197TIP3    H1 3536   7.072   5.270   3.588
 1197TIP3    H2 3537   7.018   5.395   3.653
 1198TIP3   OH2 3538   5.182   6.822   0.755
 1198TIP3    H1 3539   5.212   6.766   0.683
 1198TIP3    H2 3540   5.108   6.871   0.718
 1199TIP3   OH2 3541   4.740   3.089   0.653
 1199TIP3    H1 3542   4.753   3.174   0.612
 1199TIP3    H2 3543   4.781   3.027   0.593
 1200TIP3   OH2 3544   7.280   2.136   0.902
 1200TIP3    H1 3545   7.291   2.230   0.885
 1200TIP3    H2 3546   7.260   2.131   0.996
 1201TIP3   OH2 3547   1.167   7.568   1.320
 1201TIP3    H1 3548   1.101   7.610   1.376
 1201TIP3    H2 3549   1.173   7.625   1.244
 1202TIP3   OH2 3550   0.483   2.365   1.404
 1202TIP3    H1 3551   0.521   2.300   1.345
 1202TIP3    H2 3552   0.389   2.356   1.391
 1203TIP3   OH2 3553   2.223   6.376   3.700
 1203TIP3    H1 3554   2.219   6.418   3.786
 1203TIP3    H2 3555   2.310   6.337   3.696
 1204TIP3   OH2 3556   3.638   6.122   4.839
 1204TIP3    H1 3557   3.692   6.187   4.884
 1204TIP3    H2 3558   3.700   6.072   4.786
 1205TIP3   OH2 3559   5.420   5.445   5.777
 1205TIP3    H1 3560   5.372   5.365   5.755
 1205TIP3    H2 3561   5.512   5.419   5.771
 1206TIP3   OH2 3562   6.258   3.435   6.458
 1206TIP3    H1 3563   6.206   3.401   6.531
 1206TIP3    H2 3564   6.327   3.486   6.500
 1207TIP3   OH2 3565   1.275   2.218   0.597
 1207TIP3    H1 3566   1.308   2.146   0.651
 1207TIP3    H2 3567   1.248   2.177   0.515
 1208TIP3   OH2 3568   0.080   5.248   2.889
 1208TIP3    H1 3569   0.146   5.304   2.849
 1208TIP3    H2 3570   0.029   5.307   2.945
 1209TIP3   OH2 3571   7.974   2.476   0.624
 1209TIP3    H1 3572   7.922   2.423   0.684
 1209TIP3    H2 3573   8.065   2.458   0.648
 1210TIP3   OH2 3574   6.286   2.254   1.571
 1210TIP3    H1 3575   6.263   2.201   1.648
 1210TIP3    H2 3576   6.366   2.300   1.597
 1211TIP3   OH2 3577   7.831   5.904   2.283
 1211TIP3    H1 3578   7.846   5.979   2.225
 1211TIP3    H2 3579   7.788   5.942   2.360
 1212TIP3   OH2 3580   3.989   0.501   1.670
 1212TIP3    H1 3581   3.988   0.502   1.574
 1212TIP3    H2 3582   4.057   0.439   1.693
 1213TIP3   OH2 3583   2.398   2.586   1.906
 1213TIP3    H1 3584   2.373   2.598   1.997
 1213TIP3    H2 3585   2.338   2.643   1.857
 1214TIP3   OH2 3586   4.449   1.071   2.618
 1214TIP3    H1 3587   4.441   0.979   2.594
 1214TIP3    H2 3588   4.396   1.118   2.554
 1215TIP3   OH2 3589   6.380   5.560   2.594
 1215TIP3    H1 3590   6.340   5.638   2.557
 1215TIP3    H2 3591   6.448   5.592   2.652
 1216TIP3   OH2 3592   7.730   7.365   6.024
 1216TIP3    H1 3593   7.707   7.305   6.094
 1216TIP3    H2 3594   7.825   7.357   6.015
 1217TIP3   OH2 3595   2.502   7.422   3.890
 1217TIP3    H1 3596   2.484   7.479   3.815
 1217TIP3    H2 3597   2.497   7.481   3.966
 1218TIP3   OH2 3598   4.335   5.082   5.710
 1218TIP3    H1 3599   4.329   5.175   5.732
 1218TIP3    H2 3600   4.280   5.039   5.775
 1219TIP3   OH2 3601   6.077   3.956   6.300
 1219TIP3    H1 3602   6.035   4.038   6.274
 1219TIP3    H2 3603   6.074   3.958   6.396
 1220TIP3   OH2 3604   5.232   7.422   5.522
 1220TIP3    H1 3605   5.296   7.421   5.593
 1220TIP3    H2 3606   5.245   7.507   5.480
 1221TIP3   OH2 3607   0.747   6.963   0.519
 1221TIP3    H1 3608   0.691   6.976   0.596
 1221TIP3    H2 3609   0.735   7.042   0.467
 1222TIP3   OH2 3610   5.998   3.666   6.110
 1222TIP3    H1 3611   6.021   3.685   6.201
 1222TIP3    H2 3612   6.022   3.746   6.062
 1223TIP3   OH2 3613   2.435   7.257   3.440
 1223TIP3    H1 3614   2.453   7.173   3.483
 1223TIP3    H2 3615   2.519   7.283   3.402
 1224TIP3   OH2 3616   5.403   6.465   0.387
 1224TIP3    H1 3617   5.308   6.478   0.395
 1224TIP3    H2 3618   5.425   6.407   0.459
 1225TIP3   OH2 3619   2.098   2.750   0.213
 1225TIP3    H1 3620   2.103   2.659   0.183
 1225TIP3    H2 3621   2.007   2.776   0.197
 1226TIP3   OH2 3622   7.223   2.387   4.484
 1226TIP3    H1 3623   7.212   2.482   4.482
 1226TIP3    H2 3624   7.228   2.366   4.577
 1227TIP3   OH2 3625   1.578   0.134   5.388
 1227TIP3    H1 3626   1.639   0.203   5.417
 1227TIP3    H2 3627   1.506   0.138   5.450
 1228TIP3   OH2 3628   3.272   2.930   1.575
 1228TIP3    H1 3629   3.326   2.963   1.503
 1228TIP3    H2 3630   3.217   3.004   1.599
 1229TIP3   OH2 3631   6.888   6.132   1.216
 1229TIP3    H1 3632   6.853   6.220   1.230
 1229TIP3    H2 3633   6.875   6.116   1.122
 1230TIP3   OH2 3634   7.834   2.040   1.204
 1230TIP3    H1 3635   7.747   2.060   1.238
 1230TIP3    H2 3636   7.819   1.975   1.136
 1231TIP3   OH2 3637   5.801   3.570   1.223
 1231TIP3    H1 3638   5.735   3.624   1.266
 1231TIP3    H2 3639   5.760   3.543   1.141
 1232TIP3   OH2 3640   1.282   3.677   1.652
 1232TIP3    H1 3641   1.363   3.656   1.698
 1232TIP3    H2 3642   1.219   3.695   1.723
 1233TIP3   OH2 3643   5.443   3.988   5.216
 1233TIP3    H1 3644   5.349   3.992   5.235
 1233TIP3    H2 3645   5.468   4.079   5.200
 1234TIP3   OH2 3646   5.301   2.789   1.487
 1234TIP3    H1 3647   5.297   2.882   1.465
 1234TIP3    H2 3648   5.291   2.786   1.582
 1235TIP3   OH2 3649   3.879   3.579   5.547
 1235TIP3    H1 3650   3.865   3.490   5.578
 1235TIP3    H2 3651   3.934   3.569   5.469
 1236TIP3   OH2 3652   0.336   2.917   3.095
 1236TIP3    H1 3653   0.244   2.943   3.091
 1236TIP3    H2 3654   0.375   2.977   3.158
 1237TIP3   OH2 3655   6.271   5.447   5.769
 1237TIP3    H1 3656   6.314   5.530   5.747
 1237TIP3    H2 3657   6.342   5.383   5.765
 1238TIP3   OH2 3658   3.732   5.329   6.521
 1238TIP3    H1 3659   3.742   5.383   6.443
 1238TIP3    H2 3660   3.659   5.368   6.569
 1239TIP3   OH2 3661   4.355   2.532   1.457
 1239TIP3    H1 3662   4.361   2.559   1.366
 1239TIP3    H2 3663   4.445   2.508   1.481
 1240TIP3   OH2 3664   1.315   4.831   2.683
 1240TIP3    H1 3665   1.349   4.880   2.757
 1240TIP3    H2 3666   1.226   4.864   2.671
 1241TIP3   OH2 3667   7.671   6.178   3.931
 1241TIP3    H1 3668   7.664   6.085   3.911
 1241TIP3    H2 3669   7.765   6.196   3.928
 1242TIP3   OH2 3670   7.095   5.037   6.165
 1242TIP3    H1 3671   7.060   5.106   6.108
 1242TIP3    H2 3672   7.190   5.039   6.149
 1243TIP3   OH2 3673   2.171   5.375   6.601
 1243TIP3    H1 3674   2.199   5.285   6.619
 1243TIP3    H2 3675   2.115   5.367   6.524
 1244TIP3   OH2 3676   2.922   0.989   3.113
 1244TIP3    H1 3677   3.010   0.988   3.074
 1244TIP3    H2 3678   2.870   0.933   3.055
 1245TIP3   OH2 3679   7.550   2.448   1.685
 1245TIP3    H1 3680   7.566   2.479   1.774
 1245TIP3    H2 3681   7.515   2.525   1.639
 1246TIP3   OH2 3682   0.557   2.587   1.273
 1246TIP3    H1 3683   0.619   2.552   1.210
 1246TIP3    H2 3684   0.532   2.512   1.327
 1247TIP3   OH2 3685   6.706   0.962   4.153
 1247TIP3    H1 3686   6.793   0.958   4.115
 1247TIP3    H2 3687   6.709   0.904   4.229
 1248TIP3   OH2 3688   5.470   2.650   1.286
 1248TIP3    H1 3689   5.429   2.717   1.339
 1248TIP3    H2 3690   5.482   2.576   1.345
 1249TIP3   OH2 3691   7.519   1.087   4.874
 1249TIP3    H1 3692   7.581   1.035   4.925
 1249TIP3    H2 3693   7.445   1.102   4.933
 1250TIP3   OH2 3694   2.434   1.637   3.129
 1250TIP3    H1 3695   2.477   1.659   3.212
 1250TIP3    H2 3696   2.369   1.706   3.117
 1251TIP3   OH2 3697   0.225   2.557   6.607
 1251TIP3    H1 3698   0.213   2.525   6.518
 1251TIP3    H2 3699   0.319   2.565   6.618
 1252TIP3   OH2 3700   3.041   7.713   5.252
 1252TIP3    H1 3701   2.965   7.661   5.274
 1252TIP3    H2 3702   3.105   7.694   5.321
 1253TIP3   OH2 3703   2.967   1.123   1.455
 1253TIP3    H1 3704   2.976   1.067   1.378
 1253TIP3    H2 3705   2.897   1.082   1.506
 1254TIP3   OH2 3706   0.118   6.812   2.721
 1254TIP3    H1 3707   0.093   6.733   2.673
 1254TIP3    H2 3708   0.069   6.806   2.803
 1255TIP3   OH2 3709   7.374   3.544   1.999
 1255TIP3    H1 3710   7.370   3.510   1.909
 1255TIP3    H2 3711   7.334   3.475   2.052
 1256TIP3   OH2 3712   0.414   1.229   5.150
 1256TIP3    H1 3713   0.476   1.156   5.154
 1256TIP3    H2 3714   0.464   1.302   5.116
 1257TIP3   OH2 3715   7.341   0.490   5.593
 1257TIP3    H1 3716   7.266   0.430   5.598
 1257TIP3    H2 3717   7.322   0.545   5.517
 1258TIP3   OH2 3718   5.292   4.346   6.693
 1258TIP3    H1 3719   5.245   4.263   6.682
 1258TIP3    H2 3720   5.223   4.408   6.720
 1259TIP3   OH2 3721   3.385   5.270   5.524
 1259TIP3    H1 3722   3.393   5.327   5.448
 1259TIP3    H2 3723   3.474   5.257   5.555
 1260TIP3   OH2 3724   1.777   5.091   1.111
 1260TIP3    H1 3725   1.747   5.181   1.099
 1260TIP3    H2 3726   1.774   5.053   1.023
 1261TIP3   OH2 3727   1.756   0.323   3.173
 1261TIP3    H1 3728   1.830   0.269   3.199
 1261TIP3    H2 3729   1.791   0.411   3.167
 1262TIP3   OH2 3730   4.527   5.729   5.329
 1262TIP3    H1 3731   4.438   5.734   5.366
 1262TIP3    H2 3732   4.576   5.677   5.393
 1263TIP3   OH2 3733   5.065   7.159   3.459
 1263TIP3    H1 3734   4.998   7.109   3.505
 1263TIP3    H2 3735   5.144   7.106   3.466
 1264TIP3   OH2 3736   0.591   2.521   2.404
 1264TIP3    H1 3737   0.611   2.518   2.310
 1264TIP3    H2 3738   0.598   2.430   2.433
 1265TIP3   OH2 3739   3.677   3.970   0.163
 1265TIP3    H1 3740   3.700   4.049   0.211
 1265TIP3    H2 3741   3.718   3.981   0.077
 1266TIP3   OH2 3742   1.962   5.149   4.144
 1266TIP3    H1 3743   1.968   5.115   4.055
 1266TIP3    H2 3744   1.904   5.225   4.137
 1267TIP3   OH2 3745   4.044   2.496   3.292
 1267TIP3    H1 3746   4.022   2.586   3.268
 1267TIP3    H2 3747   3.973   2.469   3.350
 1268TIP3   OH2 3748   1.410   2.245   6.111
 1268TIP3    H1 3749   1.333   2.191   6.097
 1268TIP3    H2 3750   1.438   2.226   6.201
 1269TIP3   OH2 3751   1.648   5.511   6.756
 1269TIP3    H1 3752   1.718   5.565   6.791
 1269TIP3    H2 3753   1.569   5.543   6.800
 1270TIP3   OH2 3754   0.394   4.635   2.280
 1270TIP3    H1 3755   0.345   4.681   2.348
 1270TIP3    H2 3756   0.342   4.556   2.262
 1271TIP3   OH2 3757   5.907   3.110   1.523
 1271TIP3    H1 3758   5.930   3.085   1.434
 1271TIP3    H2 3759   5.898   3.028   1.570
 1272TIP3   OH2 3760   1.661   5.242   2.549
 1272TIP3    H1 3761   1.626   5.314   2.497
 1272TIP3    H2 3762   1.710   5.189   2.486
 1273TIP3   OH2 3763   7.557   7.598   2.582
 1273TIP3    H1 3764   7.512   7.661   2.525
 1273TIP3    H2 3765   7.636   7.644   2.610
 1274TIP3   OH2 3766   5.181   4.473   6.099
 1274TIP3    H1 3767   5.190   4.539   6.168
 1274TIP3    H2 3768   5.120   4.408   6.135
 1275TIP3   OH2 3769   2.295   3.488   3.015
 1275TIP3    H1 3770   2.330   3.577   3.022
 1275TIP3    H2 3771   2.354   3.444   2.953
 1276TIP3   OH2 3772   5.352   3.497   3.276
 1276TIP3    H1 3773   5.400   3.465   3.353
 1276TIP3    H2 3774   5.316   3.418   3.236
 1277TIP3   OH2 3775   4.044   5.023   3.837
 1277TIP3    H1 3776   4.065   4.932   3.860
 1277TIP3    H2 3777   3.983   5.051   3.904
 1278TIP3   OH2 3778   6.870   2.300   3.732
 1278TIP3    H1 3779   6.787   2.253   3.726
 1278TIP3    H2 3780   6.923   2.249   3.793
 1279TIP3   OH2 3781   0.010   0.661   3.997
 1279TIP3    H1 3782   0.068   0.683   4.071
 1279TIP3    H2 3783   0.040   0.717   3.926
 1280TIP3   OH2 3784   4.321   5.324   6.356
 1280TIP3    H1 3785   4.361   5.327   6.444
 1280TIP3    H2 3786   4.227   5.319   6.373
 1281TIP3   OH2 3787   3.537   2.224   0.158
 1281TIP3    H1 3788   3.615   2.265   0.194
 1281TIP3    H2 3789   3.569   2.145   0.115
 1282TIP3   OH2 3790   8.116   3.485   4.230
 1282TIP3    H1 3791   8.109   3.483   4.134
 1282TIP3    H2 3792   8.038   3.533   4.258
 1283TIP3   OH2 3793   5.129   3.741   1.480
 1283TIP3    H1 3794   5.183   3.671   1.518
 1283TIP3    H2 3795   5.128   3.809   1.547
 1284TIP3   OH2 3796   6.588   1.914   1.305
 1284TIP3    H1 3797   6.644   1.837   1.318
 1284TIP3    H2 3798   6.516   1.882   1.250
 1285TIP3   OH2 3799   3.067   0.681   6.517
 1285TIP3    H1 3800   3.005   0.698   6.588
 1285TIP3    H2 3801   3.153   0.701   6.556
 1286TIP3   OH2 3802   3.388   3.227   1.630
 1286TIP3    H1 3803   3.298   3.258   1.641
 1286TIP3    H2 3804   3.395   3.207   1.536
 1287TIP3   OH2 3805   4.903   0.444   2.621
 1287TIP3    H1 3806   4.938   0.532   2.635
 1287TIP3    H2 3807   4.871   0.445   2.530
 1288TIP3   OH2 3808   2.470   5.459   0.797
 1288TIP3    H1 3809   2.460   5.537   0.742
 1288TIP3    H2 3810   2.495   5.493   0.883
 1289TIP3   OH2 3811   5.065   0.205   6.512
 1289TIP3    H1 3812   5.104   0.254   6.441
 1289TIP3    H2 3813   5.077   0.113   6.488
 1290TIP3   OH2 3814   6.620   3.004   1.379
 1290TIP3    H1 3815   6.654   2.941   1.316
 1290TIP3    H2 3816   6.543   2.962   1.417
 1291TIP3   OH2 3817   7.486   0.079   3.217
 1291TIP3    H1 3818   7.529   0.107   3.298
 1291TIP3    H2 3819   7.400   0.121   3.220
 1292TIP3   OH2 3820   5.425   3.087   2.974
 1292TIP3    H1 3821   5.482   3.062   2.902
 1292TIP3    H2 3822   5.484   3.102   3.048
 1293TIP3   OH2 3823   6.572   3.480   1.448
 1293TIP3    H1 3824   6.607   3.392   1.463
 1293TIP3    H2 3825   6.526   3.473   1.364
 1294TIP3   OH2 3826   3.790   3.122   5.008
 1294TIP3    H1 3827   3.764   3.201   4.960
 1294TIP3    H2 3828   3.736   3.124   5.088
 1295TIP3   OH2 3829   0.723   0.047   5.436
 1295TIP3    H1 3830   0.648  -0.011   5.446
 1295TIP3    H2 3831   0.795  -0.011   5.412
 1296TIP3   OH2 3832   4.539   2.901   2.304
 1296TIP3    H1 3833   4.505   2.888   2.393
 1296TIP3    H2 3834   4.489   2.840   2.250
 1297TIP3   OH2 3835   5.756   3.928   6.456
 1297TIP3    H1 3836   5.746   4.014   6.416
 1297TIP3    H2 3837   5.667   3.903   6.482
 1298TIP3   OH2 3838   1.564   7.596   2.209
 1298TIP3    H1 3839   1.557   7.565   2.119
 1298TIP3    H2 3840   1.492   7.659   2.218
 1299TIP3   OH2 3841   6.497   3.236   2.679
 1299TIP3    H1 3842   6.482   3.328   2.699
 1299TIP3    H2 3843   6.490   3.231   2.583
 1300TIP3   OH2 3844   3.277   7.733   1.132
 1300TIP3    H1 3845   3.191   7.691   1.133
 1300TIP3    H2 3846   3.338   7.661   1.120
 1301TIP3   OH2 3847   1.247   5.582   2.997
 1301TIP3    H1 3848   1.166   5.609   3.041
 1301TIP3    H2 3849   1.317   5.617   3.051
 1302TIP3   OH2 3850   3.633   1.726   4.397
 1302TIP3    H1 3851   3.539   1.707   4.399
 1302TIP3    H2 3852   3.662   1.692   4.312
 1303TIP3   OH2 3853   4.331   2.318   2.356
 1303TIP3    H1 3854   4.373   2.258   2.417
 1303TIP3    H2 3855   4.403   2.355   2.305
 1304TIP3   OH2 3856   8.000   6.894   3.221
 1304TIP3    H1 3857   7.966   6.983   3.228
 1304TIP3    H2 3858   7.922   6.840   3.211
 1305TIP3   OH2 3859   7.002   2.885   1.800
 1305TIP3    H1 3860   7.021   2.979   1.805
 1305TIP3    H2 3861   7.007   2.864   1.707
 1306TIP3   OH2 3862   5.138   3.409   5.184
 1306TIP3    H1 3863   5.158   3.400   5.277
 1306TIP3    H2 3864   5.195   3.346   5.141
 1307TIP3   OH2 3865   2.319   5.070   0.306
 1307TIP3    H1 3866   2.226   5.081   0.323
 1307TIP3    H2 3867   2.354   5.030   0.385
 1308TIP3   OH2 3868   5.193   5.907   5.774
 1308TIP3    H1 3869   5.278   5.865   5.765
 1308TIP3    H2 3870   5.160   5.877   5.859
 1309TIP3   OH2 3871   5.384   7.278   4.476
 1309TIP3    H1 3872   5.434   7.357   4.500
 1309TIP3    H2 3873   5.310   7.277   4.536
 1310TIP3   OH2 3874   6.150   1.944   6.658
 1310TIP3    H1 3875   6.063   1.964   6.692
 1310TIP3    H2 3876   6.134   1.897   6.576
 1311TIP3   OH2 3877   1.602   6.759   1.656
 1311TIP3    H1 3878   1.523   6.811   1.646
 1311TIP3    H2 3879   1.657   6.782   1.581
 1312TIP3   OH2 3880   8.277   7.408   2.548
 1312TIP3    H1 3881   8.357   7.459   2.559
 1312TIP3    H2 3882   8.220   7.436   2.619
 1313TIP3   OH2 3883   6.264   6.803   6.307
 1313TIP3    H1 3884   6.340   6.787   6.363
 1313TIP3    H2 3885   6.259   6.899   6.302
 1314TIP3   OH2 3886   3.382   3.972   5.021
 1314TIP3    H1 3887   3.314   3.928   5.073
 1314TIP3    H2 3888   3.370   4.065   5.041
 1315TIP3   OH2 3889   7.695   5.243   0.137
 1315TIP3    H1 3890   7.714   5.337   0.134
 1315TIP3    H2 3891   7.642   5.232   0.216
 1316TIP3   OH2 3892   2.431   1.818   0.542
 1316TIP3    H1 3893   2.446   1.856   0.456
 1316TIP3    H2 3894   2.340   1.788   0.539
 1317TIP3   OH2 3895   6.050   5.571   6.544
 1317TIP3    H1 3896   6.048   5.540   6.453
 1317TIP3    H2 3897   6.019   5.662   6.539
 1318TIP3   OH2 3898   2.780   4.346   0.626
 1318TIP3    H1 3899   2.870   4.322   0.604
 1318TIP3    H2 3900   2.747   4.272   0.676
 1319TIP3   OH2 3901   7.088   4.779   6.007
 1319TIP3    H1 3902   7.150   4.732   6.063
 1319TIP3    H2 3903   7.093   4.870   6.038
 1320TIP3   OH2 3904   5.984   5.170   1.261
 1320TIP3    H1 3905   5.945   5.256   1.249
 1320TIP3    H2 3906   6.027   5.151   1.178
 1321TIP3   OH2 3907   0.057   0.464   5.956
 1321TIP3    H1 3908  -0.015   0.405   5.981
 1321TIP3    H2 3909   0.038   0.546   6.001
 1322TIP3   OH2 3910   7.055   0.376   3.577
 1322TIP3    H1 3911   7.045   0.404   3.668
 1322TIP3    H2 3912   6.966   0.353   3.548
 1323TIP3   OH2 3913   7.581   2.725   2.500
 1323TIP3    H1 3914   7.546   2.798   2.552
 1323TIP3    H2 3915   7.653   2.764   2.449
 1324TIP3   OH2 3916   5.236   3.013   3.458
 1324TIP3    H1 3917   5.192   2.952   3.399
 1324TIP3    H2 3918   5.321   3.028   3.417
 1325TIP3   OH2 3919   1.354   5.384   0.570
 1325TIP3    H1 3920   1.441   5.419   0.550
 1325TIP3    H2 3921   1.297   5.460   0.571
 1326TIP3   OH2 3922   6.794   2.246   1.923
 1326TIP3    H1 3923   6.793   2.311   1.854
 1326TIP3    H2 3924   6.880   2.256   1.965
 1327TIP3   OH2 3925   6.274   6.799   5.718
 1327TIP3    H1 3926   6.182   6.818   5.700
 1327TIP3    H2 3927   6.315   6.794   5.631
 1328TIP3   OH2 3928   8.256   5.785   1.529
 1328TIP3    H1 3929   8.350   5.800   1.538
 1328TIP3    H2 3930   8.237   5.803   1.437
 1329TIP3   OH2 3931   2.449   5.073   3.883
 1329TIP3    H1 3932   2.498   5.120   3.816
 1329TIP3    H2 3933   2.512   5.014   3.923
 1330TIP3   OH2 3934   3.330   1.085   3.559
 1330TIP3    H1 3935   3.358   1.032   3.634
 1330TIP3    H2 3936   3.408   1.093   3.505
 1331TIP3   OH2 3937   2.810   5.864   2.920
 1331TIP3    H1 3938   2.800   5.772   2.897
 1331TIP3    H2 3939   2.904   5.875   2.938
 1332TIP3   OH2 3940   0.409   2.326   1.731
 1332TIP3    H1 3941   0.373   2.307   1.644
 1332TIP3    H2 3942   0.503   2.310   1.722
 1333TIP3   OH2 3943   6.880   3.855   3.509
 1333TIP3    H1 3944   6.911   3.945   3.498
 1333TIP3    H2 3945   6.786   3.859   3.493
 1334TIP3   OH2 3946   5.108   2.057   4.503
 1334TIP3    H1 3947   5.071   2.098   4.425
 1334TIP3    H2 3948   5.157   1.982   4.470
 1335TIP3   OH2 3949   1.881   2.023   0.137
 1335TIP3    H1 3950   1.792   2.047   0.111
 1335TIP3    H2 3951   1.883   1.928   0.133
 1336TIP3   OH2 3952   5.965   4.776   5.605
 1336TIP3    H1 3953   6.012   4.705   5.649
 1336TIP3    H2 3954   5.879   4.778   5.646
 1337TIP3   OH2 3955   6.227   5.435   1.906
 1337TIP3    H1 3956   6.287   5.478   1.845
 1337TIP3    H2 3957   6.285   5.387   1.966
 1338TIP3   OH2 3958   3.048   5.973   1.044
 1338TIP3    H1 3959   3.070   6.058   1.006
 1338TIP3    H2 3960   3.111   5.912   1.005
 1339TIP3   OH2 3961   6.527   3.248   6.337
 1339TIP3    H1 3962   6.582   3.169   6.338
 1339TIP3    H2 3963   6.437   3.215   6.336
 1340TIP3   OH2 3964   3.357   3.552   5.364
 1340TIP3    H1 3965   3.332   3.560   5.456
 1340TIP3    H2 3966   3.436   3.498   5.366
 1341TIP3   OH2 3967   2.963   4.966   5.448
 1341TIP3    H1 3968   3.051   4.975   5.483
 1341TIP3    H2 3969   2.959   5.030   5.377
 1342TIP3   OH2 3970   2.397   5.037   1.808
 1342TIP3    H1 3971   2.482   5.060   1.770
 1342TIP3    H2 3972   2.414   4.960   1.861
 1343TIP3   OH2 3973   4.047   5.421   5.527
 1343TIP3    H1 3974   4.065   5.330   5.504
 1343TIP3    H2 3975   4.127   5.450   5.572
 1344TIP3   OH2 3976   2.126   5.093   0.730
 1344TIP3    H1 3977   2.187   5.126   0.796
 1344TIP3    H2 3978   2.046   5.075   0.779
 1345TIP3   OH2 3979   1.830   3.914   4.249
 1345TIP3    H1 3980   1.823   3.821   4.269
 1345TIP3    H2 3981   1.908   3.921   4.195
 1346TIP3   OH2 3982   6.441   4.811   3.543
 1346TIP3    H1 3983   6.468   4.762   3.465
 1346TIP3    H2 3984   6.347   4.825   3.531
 1347TIP3   OH2 3985   5.520   1.521   5.655
 1347TIP3    H1 3986   5.472   1.521   5.572
 1347TIP3    H2 3987   5.455   1.546   5.720
 1348TIP3   OH2 3988   7.972   0.182   0.120
 1348TIP3    H1 3989   7.965   0.253   0.057
 1348TIP3    H2 3990   8.027   0.116   0.077
 1349TIP3   OH2 3991   4.435   6.783   2.324
 1349TIP3    H1 3992   4.520   6.776   2.282
 1349TIP3    H2 3993   4.451   6.836   2.402
 1350TIP3   OH2 3994   4.395   7.172   4.859
 1350TIP3    H1 3995   4.366   7.188   4.769
 1350TIP3    H2 3996   4.453   7.245   4.879
 1351TIP3   OH2 3997   0.662   1.956   0.810
 1351TIP3    H1 3998   0.732   1.891   0.814
 1351TIP3    H2 3999   0.688   2.025   0.870
 1352TIP3   OH2 4000   1.607   1.047   1.349
 1352TIP3    H1 4001   1.686   1.096   1.328
 1352TIP3    H2 4002   1.608   0.973   1.288
 1353TIP3   OH2 4003   4.904   5.689   1.597
 1353TIP3    H1 4004   4.959   5.691   1.519
 1353TIP3    H2 4005   4.965   5.685   1.670
 1354TIP3   OH2 4006   5.674   6.467   5.500
 1354TIP3    H1 4007   5.747   6.412   5.472
 1354TIP3    H2 4008   5.689   6.481   5.593
 1355TIP3   OH2 4009   6.346   2.719   5.776
 1355TIP3    H1 4010   6.354   2.771   5.856
 1355TIP3    H2 4011   6.279   2.654   5.796
 1356TIP3   OH2 4012   3.282   3.033   5.004
 1356TIP3    H1 4013   3.205   3.078   5.040
 1356TIP3    H2 4014   3.332   3.102   4.960
 1357TIP3   OH2 4015   5.912   3.142   3.616
 1357TIP3    H1 4016   5.833   3.161   3.666
 1357TIP3    H2 4017   5.887   3.158   3.525
 1358TIP3   OH2 4018   6.936   1.671   2.704
 1358TIP3    H1 4019   6.957   1.753   2.747
 1358TIP3    H2 4020   6.882   1.624   2.768
 1359TIP3   OH2 4021   0.249   5.989   2.533
 1359TIP3    H1 4022   0.215   5.910   2.490
 1359TIP3    H2 4023   0.343   5.986   2.515
 1360TIP3   OH2 4024   1.665   6.823   6.125
 1360TIP3    H1 4025   1.646   6.788   6.038
 1360TIP3    H2 4026   1.602   6.780   6.183
 1361TIP3   OH2 4027   6.081   5.059   5.853
 1361TIP3    H1 4028   5.990   5.045   5.879
 1361TIP3    H2 4029   6.082   5.147   5.816
 1362TIP3   OH2 4030   5.898   2.948   5.909
 1362TIP3    H1 4031   5.879   2.983   5.822
 1362TIP3    H2 4032   5.863   3.014   5.969
 1363TIP3   OH2 4033   1.125   3.283   2.418
 1363TIP3    H1 4034   1.036   3.281   2.453
 1363TIP3    H2 4035   1.171   3.212   2.462
 1364TIP3   OH2 4036   3.052   7.235   4.996
 1364TIP3    H1 4037   3.122   7.232   4.931
 1364TIP3    H2 4038   2.975   7.265   4.949
 1365TIP3   OH2 4039   0.511   2.389   3.608
 1365TIP3    H1 4040   0.475   2.304   3.635
 1365TIP3    H2 4041   0.604   2.384   3.633
 1366TIP3   OH2 4042   0.765   6.603   1.856
 1366TIP3    H1 4043   0.780   6.527   1.799
 1366TIP3    H2 4044   0.760   6.567   1.944
 1367TIP3   OH2 4045   0.708   5.125   2.622
 1367TIP3    H1 4046   0.669   5.055   2.568
 1367TIP3    H2 4047   0.633   5.170   2.660
 1368TIP3   OH2 4048   5.493   6.257   2.113
 1368TIP3    H1 4049   5.508   6.242   2.020
 1368TIP3    H2 4050   5.416   6.314   2.116
 1369TIP3   OH2 4051   2.217   4.450   5.147
 1369TIP3    H1 4052   2.174   4.458   5.061
 1369TIP3    H2 4053   2.164   4.505   5.205
 1370TIP3   OH2 4054   1.625   7.347   3.032
 1370TIP3    H1 4055   1.692   7.397   3.078
 1370TIP3    H2 4056   1.668   7.266   3.006
 1371TIP3   OH2 4057   3.925   6.176   6.288
 1371TIP3    H1 4058   4.013   6.155   6.257
 1371TIP3    H2 4059   3.937   6.196   6.381
 1372TIP3   OH2 4060   5.918   4.856   0.187
 1372TIP3    H1 4061   5.931   4.948   0.163
 1372TIP3    H2 4062   5.823   4.846   0.193
 1373TIP3   OH2 4063   4.371   2.172   6.162
 1373TIP3    H1 4064   4.309   2.244   6.149
 1373TIP3    H2 4065   4.442   2.190   6.102
 1374TIP3   OH2 4066   4.428   3.300   0.574
 1374TIP3    H1 4067   4.439   3.252   0.656
 1374TIP3    H2 4068   4.458   3.240   0.506
 1375TIP3   OH2 4069   6.599   2.925   2.014
 1375TIP3    H1 4070   6.601   2.908   1.920
 1375TIP3    H2 4071   6.559   3.012   2.023
 1376TIP3   OH2 4072   2.228   0.973   2.964
 1376TIP3    H1 4073   2.314   0.977   2.922
 1376TIP3    H2 4074   2.174   1.034   2.914
 1377TIP3   OH2 4075   6.452   2.481   0.298
 1377TIP3    H1 4076   6.516   2.411   0.280
 1377TIP3    H2 4077   6.415   2.459   0.383
 1378TIP3   OH2 4078   2.226   6.831   3.095
 1378TIP3    H1 4079   2.137   6.849   3.125
 1378TIP3    H2 4080   2.227   6.737   3.076
 1379TIP3   OH2 4081   3.226   5.613   2.160
 1379TIP3    H1 4082   3.299   5.560   2.194
 1379TIP3    H2 4083   3.150   5.554   2.167
 1380TIP3   OH2 4084   2.028   4.957   5.549
 1380TIP3    H1 4085   2.071   4.979   5.467
 1380TIP3    H2 4086   2.083   4.997   5.617
 1381TIP3   OH2 4087   6.544   5.278   6.278
 1381TIP3    H1 4088   6.618   5.237   6.322
 1381TIP3    H2 4089   6.477   5.210   6.275
 1382TIP3   OH2 4090   0.192   5.166   5.457
 1382TIP3    H1 4091   0.198   5.245   5.403
 1382TIP3    H2 4092   0.222   5.096   5.400
 1383TIP3   OH2 4093   5.268   0.992   0.429
 1383TIP3    H1 4094   5.273   0.904   0.390
 1383TIP3    H2 4095   5.343   1.039   0.393
 1384TIP3   OH2 4096   5.133   4.619   1.093
 1384TIP3    H1 4097   5.228   4.610   1.098
 1384TIP3    H2 4098   5.113   4.612   1.000
 1385TIP3   OH2 4099   7.580   2.598   1.925
 1385TIP3    H1 4100   7.619   2.684   1.939
 1385TIP3    H2 4101   7.489   2.608   1.952
 1386TIP3   OH2 4102   0.938   0.275   5.503
 1386TIP3    H1 4103   0.893   0.313   5.428
 1386TIP3    H2 4104   0.993   0.346   5.537
 1387TIP3   OH2 4105   3.116   3.351   5.371
 1387TIP3    H1 4106   3.055   3.368   5.299
 1387TIP3    H2 4107   3.202   3.376   5.336
 1388TIP3   OH2 4108   1.374   4.203   3.017
 1388TIP3    H1 4109   1.380   4.280   2.961
 1388TIP3    H2 4110   1.450   4.210   3.075
 1389TIP3   OH2 4111   5.046   0.141   4.614
 1389TIP3    H1 4112   4.957   0.176   4.606
 1389TIP3    H2 4113   5.060   0.093   4.532
 1390TIP3   OH2 4114   0.383   2.911   2.837
 1390TIP3    H1 4115   0.295   2.922   2.800
 1390TIP3    H2 4116   0.373   2.928   2.930
 1391TIP3   OH2 4117   2.080   6.448   0.694
 1391TIP3    H1 4118   2.048   6.508   0.761
 1391TIP3    H2 4119   2.172   6.435   0.715
 1392TIP3   OH2 4120   7.368   3.451   3.681
 1392TIP3    H1 4121   7.411   3.487   3.603
 1392TIP3    H2 4122   7.435   3.456   3.749
 1393TIP3   OH2 4123   7.520   4.595   0.376
 1393TIP3    H1 4124   7.541   4.502   0.363
 1393TIP3    H2 4125   7.462   4.596   0.452
 1394TIP3   OH2 4126   0.820   3.349   3.315
 1394TIP3    H1 4127   0.764   3.410   3.266
 1394TIP3    H2 4128   0.784   3.349   3.403
 1395TIP3   OH2 4129   0.383   4.980   4.382
 1395TIP3    H1 4130   0.348   4.892   4.399
 1395TIP3    H2 4131   0.323   5.039   4.427
 1396TIP3   OH2 4132   8.015   6.325   0.183
 1396TIP3    H1 4133   8.056   6.241   0.166
 1396TIP3    H2 4134   8.085   6.389   0.174
 1397TIP3   OH2 4135   8.162   0.643   1.643
 1397TIP3    H1 4136   8.106   0.612   1.572
 1397TIP3    H2 4137   8.111   0.712   1.686
 1398TIP3   OH2 4138   6.035   7.107   1.105
 1398TIP3    H1 4139   5.989   7.023   1.095
 1398TIP3    H2 4140   6.016   7.154   1.024
 1399TIP3   OH2 4141   6.716   7.092   2.157
 1399TIP3    H1 4142   6.770   7.128   2.088
 1399TIP3    H2 4143   6.627   7.119   2.135
 1400TIP3   OH2 4144   6.210   1.205   3.463
 1400TIP3    H1 4145   6.252   1.289   3.482
 1400TIP3    H2 4146   6.171   1.178   3.547
 1401TIP3   OH2 4147   2.319   5.558   6.728
 1401TIP3    H1 4148   2.282   5.644   6.708
 1401TIP3    H2 4149   2.265   5.497   6.678
 1402TIP3   OH2 4150   7.758   0.803   3.541
 1402TIP3    H1 4151   7.720   0.768   3.621
 1402TIP3    H2 4152   7.733   0.741   3.473
 1403TIP3   OH2 4153   7.204   2.357   2.066
 1403TIP3    H1 4154   7.163   2.361   2.152
 1403TIP3    H2 4155   7.178   2.271   2.031
 1404TIP3   OH2 4156   0.406   4.882   5.071
 1404TIP3    H1 4157   0.496   4.882   5.039
 1404TIP3    H2 4158   0.371   4.797   5.046
 1405TIP3   OH2 4159   6.229   3.917   4.878
 1405TIP3    H1 4160   6.204   3.905   4.970
 1405TIP3    H2 4161   6.148   3.945   4.836
 1406TIP3   OH2 4162   3.264   7.234   1.713
 1406TIP3    H1 4163   3.176   7.227   1.677
 1406TIP3    H2 4164   3.253   7.224   1.808
 1407TIP3   OH2 4165   1.246   3.334   6.706
 1407TIP3    H1 4166   1.198   3.401   6.658
 1407TIP3    H2 4167   1.316   3.383   6.752
 1408TIP3   OH2 4168   6.491   0.729   3.225
 1408TIP3    H1 4169   6.400   0.723   3.254
 1408TIP3    H2 4170   6.522   0.813   3.259
 1409TIP3   OH2 4171   0.365   1.568   2.592
 1409TIP3    H1 4172   0.369   1.592   2.500
 1409TIP3    H2 4173   0.445   1.518   2.607
 1410TIP3   OH2 4174   3.174   2.715   6.290
 1410TIP3    H1 4175   3.140   2.767   6.362
 1410TIP3    H2 4176   3.207   2.635   6.331
 1411TIP3   OH2 4177   7.326   1.987   3.909
 1411TIP3    H1 4178   7.364   1.974   3.996
 1411TIP3    H2 4179   7.341   2.079   3.889
 1412TIP3   OH2 4180   0.944   4.684   6.094
 1412TIP3    H1 4181   0.977   4.758   6.144
 1412TIP3    H2 4182   0.857   4.667   6.131
 1413TIP3   OH2 4183   2.470   5.283   0.378
 1413TIP3    H1 4184   2.385   5.250   0.349
 1413TIP3    H2 4185   2.534   5.238   0.324
 1414TIP3   OH2 4186   7.628   3.599   4.937
 1414TIP3    H1 4187   7.622   3.551   4.854
 1414TIP3    H2 4188   7.645   3.689   4.910
 1415TIP3   OH2 4189   6.759   3.051   3.101
 1415TIP3    H1 4190   6.733   3.128   3.051
 1415TIP3    H2 4191   6.844   3.074   3.138
 1416TIP3   OH2 4192   5.556   5.159   1.271
 1416TIP3    H1 4193   5.469   5.200   1.268
 1416TIP3    H2 4194   5.556   5.101   1.195
 1417TIP3   OH2 4195   5.047   3.177   0.222
 1417TIP3    H1 4196   5.083   3.248   0.169
 1417TIP3    H2 4197   5.069   3.201   0.312
 1418TIP3   OH2 4198   5.535   5.234   2.168
 1418TIP3    H1 4199   5.611   5.200   2.215
 1418TIP3    H2 4200   5.554   5.328   2.158
 1419TIP3   OH2 4201   4.375   1.508   0.579
 1419TIP3    H1 4202   4.361   1.580   0.518
 1419TIP3    H2 4203   4.469   1.493   0.577
 1420TIP3   OH2 4204   4.021   1.340   1.579
 1420TIP3    H1 4205   3.990   1.382   1.499
 1420TIP3    H2 4206   4.107   1.379   1.595
 1421TIP3   OH2 4207   0.591   5.346   5.697
 1421TIP3    H1 4208   0.580   5.255   5.723
 1421TIP3    H2 4209   0.552   5.351   5.609
 1422TIP3   OH2 4210   1.750   2.617   5.033
 1422TIP3    H1 4211   1.690   2.577   4.970
 1422TIP3    H2 4212   1.694   2.644   5.106
 1423TIP3   OH2 4213   3.011   4.869   4.802
 1423TIP3    H1 4214   3.085   4.853   4.744
 1423TIP3    H2 4215   3.005   4.964   4.808
 1424TIP3   OH2 4216   5.761   1.843   6.729
 1424TIP3    H1 4217   5.785   1.922   6.680
 1424TIP3    H2 4218   5.671   1.826   6.704
 1425TIP3   OH2 4219   1.878   0.433   6.465
 1425TIP3    H1 4220   1.843   0.349   6.495
 1425TIP3    H2 4221   1.803   0.492   6.466
 1426TIP3   OH2 4222   6.568   0.136   5.990
 1426TIP3    H1 4223   6.517   0.081   5.931
 1426TIP3    H2 4224   6.622   0.190   5.932
 1427TIP3   OH2 4225   3.384   7.123   2.822
 1427TIP3    H1 4226   3.368   7.105   2.729
 1427TIP3    H2 4227   3.469   7.082   2.840
 1428TIP3   OH2 4228   4.907   2.721   3.059
 1428TIP3    H1 4229   4.998   2.745   3.038
 1428TIP3    H2 4230   4.890   2.764   3.143
 1429TIP3   OH2 4231   4.112   0.137   1.806
 1429TIP3    H1 4232   4.038   0.197   1.798
 1429TIP3    H2 4233   4.079   0.066   1.860
 1430TIP3   OH2 4234   7.924   5.540   4.499
 1430TIP3    H1 4235   7.903   5.605   4.432
 1430TIP3    H2 4236   8.019   5.541   4.505
 1431TIP3   OH2 4237   1.006   2.140   6.316
 1431TIP3    H1 4238   0.916   2.170   6.327
 1431TIP3    H2 4239   1.047   2.155   6.401
 1432TIP3   OH2 4240   6.488   3.082   3.096
 1432TIP3    H1 4241   6.496   3.159   3.153
 1432TIP3    H2 4242   6.576   3.044   3.095
 1433TIP3   OH2 4243   2.671   1.149   2.660
 1433TIP3    H1 4244   2.684   1.243   2.674
 1433TIP3    H2 4245   2.604   1.144   2.592
 1434TIP3   OH2 4246   2.229   1.914   4.938
 1434TIP3    H1 4247   2.160   1.966   4.978
 1434TIP3    H2 4248   2.212   1.921   4.844
 1435TIP3   OH2 4249   5.358   6.110   6.027
 1435TIP3    H1 4250   5.425   6.044   6.013
 1435TIP3    H2 4251   5.369   6.171   5.954
 1436TIP3   OH2 4252   6.530   5.231   3.974
 1436TIP3    H1 4253   6.522   5.136   3.964
 1436TIP3    H2 4254   6.542   5.245   4.068
 1437TIP3   OH2 4255   2.478   7.103   2.908
 1437TIP3    H1 4256   2.474   7.008   2.897
 1437TIP3    H2 4257   2.534   7.132   2.836
 1438TIP3   OH2 4258   5.823   2.724   3.491
 1438TIP3    H1 4259   5.901   2.759   3.535
 1438TIP3    H2 4260   5.749   2.762   3.538
 1439TIP3   OH2 4261   6.000   3.799   3.432
 1439TIP3    H1 4262   6.022   3.787   3.524
 1439TIP3    H2 4263   6.027   3.718   3.390
 1440TIP3   OH2 4264   1.914   2.812   3.123
 1440TIP3    H1 4265   1.980   2.868   3.080
 1440TIP3    H2 4266   1.959   2.729   3.137
 1441TIP3   OH2 4267   5.629   0.631   3.877
 1441TIP3    H1 4268   5.636   0.547   3.922
 1441TIP3    H2 4269   5.567   0.615   3.805
 1442TIP3   OH2 4270   4.287   7.853   4.389
 1442TIP3    H1 4271   4.246   7.816   4.310
 1442TIP3    H2 4272   4.258   7.796   4.460
 1443TIP3   OH2 4273   1.855   7.185   6.536
 1443TIP3    H1 4274   1.769   7.223   6.520
 1443TIP3    H2 4275   1.846   7.094   6.508
 1444TIP3   OH2 4276   4.103   4.239   6.401
 1444TIP3    H1 4277   4.165   4.182   6.445
 1444TIP3    H2 4278   4.150   4.322   6.390
 1445TIP3   OH2 4279   4.623   2.468   2.837
 1445TIP3    H1 4280   4.659   2.491   2.923
 1445TIP3    H2 4281   4.592   2.378   2.848
 1446TIP3   OH2 4282   0.441   4.037   2.033
 1446TIP3    H1 4283   0.445   4.050   2.128
 1446TIP3    H2 4284   0.360   3.987   2.020
 1447TIP3   OH2 4285   7.762   1.196   2.282
 1447TIP3    H1 4286   7.690   1.257   2.294
 1447TIP3    H2 4287   7.774   1.155   2.368
 1448TIP3   OH2 4288   4.833   7.167   2.278
 1448TIP3    H1 4289   4.739   7.151   2.279
 1448TIP3    H2 4290   4.842   7.259   2.306
 1449TIP3   OH2 4291   0.565   1.150   1.336
 1449TIP3    H1 4292   0.532   1.115   1.419
 1449TIP3    H2 4293   0.652   1.184   1.358
 1450TIP3   OH2 4294   4.662   1.538   6.750
 1450TIP3    H1 4295   4.688   1.462   6.802
 1450TIP3    H2 4296   4.607   1.501   6.681
 1451TIP3   OH2 4297   5.528   1.704   1.610
 1451TIP3    H1 4298   5.604   1.749   1.646
 1451TIP3    H2 4299   5.471   1.690   1.685
 1452TIP3   OH2 4300   7.595   0.352   4.119
 1452TIP3    H1 4301   7.681   0.376   4.154
 1452TIP3    H2 4302   7.578   0.265   4.155
 1453TIP3   OH2 4303   5.192   3.560   0.633
 1453TIP3    H1 4304   5.147   3.597   0.557
 1453TIP3    H2 4305   5.195   3.632   0.696
 1454TIP3   OH2 4306   6.325   0.196   3.632
 1454TIP3    H1 4307   6.305   0.206   3.725
 1454TIP3    H2 4308   6.266   0.257   3.588
 1455TIP3   OH2 4309   3.615   3.863   2.498
 1455TIP3    H1 4310   3.578   3.951   2.498
 1455TIP3    H2 4311   3.588   3.825   2.415
 1456TIP3   OH2 4312   1.356   7.103   0.366
 1456TIP3    H1 4313   1.351   7.197   0.347
 1456TIP3    H2 4314   1.296   7.090   0.439
 1457TIP3   OH2 4315   1.205   2.462   3.785
 1457TIP3    H1 4316   1.236   2.382   3.744
 1457TIP3    H2 4317   1.124   2.437   3.830
 1458TIP3   OH2 4318   5.141   6.794   5.073
 1458TIP3    H1 4319   5.223   6.801   5.123
 1458TIP3    H2 4320   5.073   6.822   5.134
 1459TIP3   OH2 4321   7.142   7.692   4.375
 1459TIP3    H1 4322   7.195   7.631   4.324
 1459TIP3    H2 4323   7.188   7.775   4.370
 1460TIP3   OH2 4324   4.536   4.449   2.780
 1460TIP3    H1 4325   4.513   4.392   2.706
 1460TIP3    H2 4326   4.587   4.519   2.741
 1461TIP3   OH2 4327   7.041   3.089   3.189
 1461TIP3    H1 4328   7.115   3.102   3.248
 1461TIP3    H2 4329   7.021   3.176   3.155
 1462TIP3   OH2 4330   1.856   3.135   5.412
 1462TIP3    H1 4331   1.767   3.143   5.446
 1462TIP3    H2 4332   1.868   3.041   5.397
 1463TIP3   OH2 4333   7.530   4.014   1.377
 1463TIP3    H1 4334   7.495   4.029   1.289
 1463TIP3    H2 4335   7.453   3.996   1.430
 1464TIP3   OH2 4336   2.746   5.516   4.367
 1464TIP3    H1 4337   2.659   5.478   4.373
 1464TIP3    H2 4338   2.758   5.562   4.450
 1465TIP3   OH2 4339   1.821   5.467   0.009
 1465TIP3    H1 4340   1.833   5.379   0.046
 1465TIP3    H2 4341   1.727   5.484   0.019
 1466TIP3   OH2 4342   2.875   1.122   0.256
 1466TIP3    H1 4343   2.896   1.194   0.197
 1466TIP3    H2 4344   2.872   1.162   0.343
 1467TIP3   OH2 4345   2.320   0.626   0.427
 1467TIP3    H1 4346   2.238   0.674   0.427
 1467TIP3    H2 4347   2.377   0.676   0.368
 1468TIP3   OH2 4348   3.859   0.201   0.130
 1468TIP3    H1 4349   3.844   0.296   0.134
 1468TIP3    H2 4350   3.904   0.188   0.046
 1469TIP3   OH2 4351   1.974   5.007   3.906
 1469TIP3    H1 4352   1.962   4.917   3.935
 1469TIP3    H2 4353   2.063   5.008   3.869
 1470TIP3   OH2 4354   2.940   6.601   3.538
 1470TIP3    H1 4355   2.985   6.676   3.499
 1470TIP3    H2 4356   2.937   6.621   3.632
 1471TIP3   OH2 4357   6.321   7.503   1.601
 1471TIP3    H1 4358   6.405   7.476   1.564
 1471TIP3    H2 4359   6.342   7.528   1.691
 1472TIP3   OH2 4360   3.364   2.886   3.758
 1472TIP3    H1 4361   3.393   2.975   3.740
 1472TIP3    H2 4362   3.433   2.848   3.813
 1473TIP3   OH2 4363   0.174   6.241   0.252
 1473TIP3    H1 4364   0.203   6.182   0.321
 1473TIP3    H2 4365   0.209   6.202   0.171
 1474TIP3   OH2 4366   0.488   1.254   0.925
 1474TIP3    H1 4367   0.437   1.182   0.962
 1474TIP3    H2 4368   0.572   1.250   0.972
 1475TIP3   OH2 4369   1.752   3.517   5.376
 1475TIP3    H1 4370   1.684   3.584   5.379
 1475TIP3    H2 4371   1.704   3.435   5.367
 1476TIP3   OH2 4372   3.655   0.461   5.993
 1476TIP3    H1 4373   3.615   0.524   6.054
 1476TIP3    H2 4374   3.711   0.407   6.048
 1477TIP3   OH2 4375   7.409   3.245   1.572
 1477TIP3    H1 4376   7.365   3.165   1.542
 1477TIP3    H2 4377   7.501   3.230   1.554
 1478TIP3   OH2 4378   3.425   6.843   1.551
 1478TIP3    H1 4379   3.359   6.804   1.495
 1478TIP3    H2 4380   3.397   6.934   1.560
 1479TIP3   OH2 4381   5.748   1.998   4.073
 1479TIP3    H1 4382   5.732   2.014   4.166
 1479TIP3    H2 4383   5.824   2.051   4.051
 1480TIP3   OH2 4384   5.783   2.299   5.452
 1480TIP3    H1 4385   5.879   2.301   5.451
 1480TIP3    H2 4386   5.758   2.389   5.472
 1481TIP3   OH2 4387   4.495   0.489   2.364
 1481TIP3    H1 4388   4.406   0.496   2.398
 1481TIP3    H2 4389   4.485   0.440   2.282
 1482TIP3   OH2 4390   3.960   7.641   2.284
 1482TIP3    H1 4391   3.923   7.558   2.255
 1482TIP3    H2 4392   3.922   7.707   2.225
 1483TIP3   OH2 4393   5.548   4.692   2.347
 1483TIP3    H1 4394   5.554   4.604   2.383
 1483TIP3    H2 4395   5.536   4.678   2.253
 1484TIP3   OH2 4396   1.106   3.674   4.823
 1484TIP3    H1 4397   1.065   3.664   4.737
 1484TIP3    H2 4398   1.200   3.667   4.806
 1485TIP3   OH2 4399   6.441   6.827   5.469
 1485TIP3    H1 4400   6.459   6.754   5.411
 1485TIP3    H2 4401   6.353   6.856   5.446
 1486TIP3   OH2 4402   6.657   7.726   6.676
 1486TIP3    H1 4403   6.589   7.662   6.696
 1486TIP3    H2 4404   6.610   7.808   6.660
 1487TIP3   OH2 4405   2.029   4.533   5.341
 1487TIP3    H1 4406   2.032   4.451   5.390
 1487TIP3    H2 4407   1.987   4.595   5.401
 1488TIP3   OH2 4408   5.252   0.593   6.686
 1488TIP3    H1 4409   5.236   0.581   6.593
 1488TIP3    H2 4410   5.253   0.688   6.699
 1489TIP3   OH2 4411   6.822   4.848   0.806
 1489TIP3    H1 4412   6.824   4.934   0.764
 1489TIP3    H2 4413   6.899   4.802   0.772
 1490TIP3   OH2 4414   5.684   2.079   6.083
 1490TIP3    H1 4415   5.617   2.130   6.037
 1490TIP3    H2 4416   5.682   1.993   6.041
 1491TIP3   OH2 4417   2.925   0.230   1.153
 1491TIP3    H1 4418   2.924   0.323   1.131
 1491TIP3    H2 4419   3.006   0.218   1.202
 1492TIP3   OH2 4420   6.333   3.448   1.653
 1492TIP3    H1 4421   6.346   3.386   1.582
 1492TIP3    H2 4422   6.262   3.505   1.622
 1493TIP3   OH2 4423   3.077   3.772   1.856
 1493TIP3    H1 4424   3.089   3.794   1.948
 1493TIP3    H2 4425   3.110   3.682   1.848
 1494TIP3   OH2 4426   5.513   6.644   1.162
 1494TIP3    H1 4427   5.546   6.733   1.172
 1494TIP3    H2 4428   5.544   6.597   1.240
 1495TIP3   OH2 4429   2.021   2.099   5.130
 1495TIP3    H1 4430   2.105   2.145   5.125
 1495TIP3    H2 4431   1.956   2.166   5.109
 1496TIP3   OH2 4432   6.048   2.900   4.657
 1496TIP3    H1 4433   6.119   2.917   4.595
 1496TIP3    H2 4434   6.022   2.810   4.640
 1497TIP3   OH2 4435   1.235   1.160   3.241
 1497TIP3    H1 4436   1.274   1.161   3.328
 1497TIP3    H2 4437   1.310   1.154   3.181
 1498TIP3   OH2 4438   8.124   6.023   6.169
 1498TIP3    H1 4439   8.154   6.113   6.152
 1498TIP3    H2 4440   8.125   5.981   6.084
 1499TIP3   OH2 4441   4.017   5.151   4.277
 1499TIP3    H1 4442   4.100   5.113   4.306
 1499TIP3    H2 4443   3.964   5.156   4.356
 1500TIP3   OH2 4444   1.303   4.320   1.615
 1500TIP3    H1 4445   1.271   4.407   1.638
 1500TIP3    H2 4446   1.385   4.311   1.665
 1501TIP3   OH2 4447   6.096   0.853   3.722
 1501TIP3    H1 4448   6.028   0.920   3.719
 1501TIP3    H2 4449   6.170   0.891   3.675
 1502TIP3   OH2 4450   5.602   3.313   1.273
 1502TIP3    H1 4451   5.660   3.286   1.202
 1502TIP3    H2 4452   5.627   3.259   1.347
 1503TIP3   OH2 4453   2.984   2.507   1.737
 1503TIP3    H1 4454   3.006   2.492   1.645
 1503TIP3    H2 4455   2.991   2.602   1.748
 1504TIP3   OH2 4456   4.965   0.471   4.545
 1504TIP3    H1 4457   4.928   0.556   4.524
 1504TIP3    H2 4458   4.899   0.428   4.599
 1505TIP3   OH2 4459   2.301   5.171   4.519
 1505TIP3    H1 4460   2.272   5.262   4.507
 1505TIP3    H2 4461   2.228   5.118   4.485
 1506TIP3   OH2 4462   3.288   5.727   3.182
 1506TIP3    H1 4463   3.199   5.737   3.214
 1506TIP3    H2 4464   3.328   5.814   3.193
 1507TIP3   OH2 4465   3.413   2.502   2.490
 1507TIP3    H1 4466   3.361   2.578   2.514
 1507TIP3    H2 4467   3.497   2.515   2.535
 1508TIP3   OH2 4468   8.275   6.930   1.836
 1508TIP3    H1 4469   8.191   6.888   1.856
 1508TIP3    H2 4470   8.299   6.974   1.917
 1509TIP3   OH2 4471   7.268   2.178   0.078
 1509TIP3    H1 4472   7.174   2.181   0.057
 1509TIP3    H2 4473   7.277   2.227   0.159
 1510TIP3   OH2 4474   1.076   5.044   1.838
 1510TIP3    H1 4475   1.035   4.976   1.892
 1510TIP3    H2 4476   1.107   4.997   1.760
 1511TIP3   OH2 4477   3.136   3.422   2.901
 1511TIP3    H1 4478   3.175   3.463   2.978
 1511TIP3    H2 4479   3.169   3.473   2.827
 1512TIP3   OH2 4480   8.185   0.945   3.993
 1512TIP3    H1 4481   8.272   0.951   3.953
 1512TIP3    H2 4482   8.133   0.896   3.929
 1513TIP3   OH2 4483   1.355   7.306   6.479
 1513TIP3    H1 4484   1.312   7.358   6.548
 1513TIP3    H2 4485   1.339   7.355   6.399
 1514TIP3   OH2 4486   0.927   5.680   3.022
 1514TIP3    H1 4487   0.895   5.603   2.976
 1514TIP3    H2 4488   0.961   5.646   3.105
 1515TIP3   OH2 4489   8.071   5.008   3.360
 1515TIP3    H1 4490   8.053   5.061   3.438
 1515TIP3    H2 4491   8.019   4.928   3.372
 1516TIP3   OH2 4492   7.356   4.485   6.042
 1516TIP3    H1 4493   7.343   4.574   6.010
 1516TIP3    H2 4494   7.415   4.495   6.117
 1517TIP3   OH2 4495   3.987   6.855   2.991
 1517TIP3    H1 4496   3.985   6.933   2.934
 1517TIP3    H2 4497   3.985   6.890   3.080
 1518TIP3   OH2 4498   7.664   0.995   4.031
 1518TIP3    H1 4499   7.718   0.934   3.980
 1518TIP3    H2 4500   7.578   0.992   3.989
 1519TIP3   OH2 4501   2.983   3.074   2.812
 1519TIP3    H1 4502   2.930   3.017   2.867
 1519TIP3    H2 4503   3.007   3.147   2.868
 1520TIP3   OH2 4504   0.351   3.121   0.725
 1520TIP3    H1 4505   0.350   3.086   0.636
 1520TIP3    H2 4506   0.430   3.086   0.764
 1521TIP3   OH2 4507   0.389   4.934   4.108
 1521TIP3    H1 4508   0.384   4.948   4.203
 1521TIP3    H2 4509   0.305   4.895   4.085
 1522TIP3   OH2 4510   4.474   4.135   3.196
 1522TIP3    H1 4511   4.498   4.200   3.262
 1522TIP3    H2 4512   4.533   4.152   3.122
 1523TIP3   OH2 4513   2.958   3.937   2.558
 1523TIP3    H1 4514   2.909   3.922   2.639
 1523TIP3    H2 4515   2.913   4.010   2.516
 1524TIP3   OH2 4516   0.156   4.688   4.998
 1524TIP3    H1 4517   0.234   4.648   4.961
 1524TIP3    H2 4518   0.136   4.635   5.075
 1525TIP3   OH2 4519   2.614   3.686   3.952
 1525TIP3    H1 4520   2.561   3.651   4.023
 1525TIP3    H2 4521   2.702   3.694   3.988
 1526TIP3   OH2 4522   7.049   5.875   4.480
 1526TIP3    H1 4523   7.040   5.845   4.571
 1526TIP3    H2 4524   6.970   5.842   4.437
 1527TIP3   OH2 4525   4.318   4.988   4.926
 1527TIP3    H1 4526   4.395   5.045   4.920
 1527TIP3    H2 4527   4.255   5.025   4.864
 1528TIP3   OH2 4528   2.286   7.628   0.301
 1528TIP3    H1 4529   2.334   7.694   0.252
 1528TIP3    H2 4530   2.352   7.581   0.351
 1529TIP3   OH2 4531   7.630   3.776   2.933
 1529TIP3    H1 4532   7.659   3.864   2.911
 1529TIP3    H2 4533   7.681   3.752   3.010
 1530TIP3   OH2 4534   4.350   3.432   2.001
 1530TIP3    H1 4535   4.270   3.484   1.996
 1530TIP3    H2 4536   4.327   3.349   1.960
 1531TIP3   OH2 4537   7.052   1.004   1.249
 1531TIP3    H1 4538   6.983   1.067   1.228
 1531TIP3    H2 4539   7.020   0.956   1.325
 1532TIP3   OH2 4540   0.795   6.702   0.469
 1532TIP3    H1 4541   0.767   6.793   0.457
 1532TIP3    H2 4542   0.726   6.650   0.427
 1533TIP3   OH2 4543   7.011   0.468   2.980
 1533TIP3    H1 4544   6.968   0.399   2.929
 1533TIP3    H2 4545   7.014   0.433   3.069
 1534TIP3   OH2 4546   0.237   7.387   3.431
 1534TIP3    H1 4547   0.297   7.434   3.373
 1534TIP3    H2 4548   0.240   7.297   3.401
 1535TIP3   OH2 4549   0.991   2.863   1.491
 1535TIP3    H1 4550   0.915   2.828   1.444
 1535TIP3    H2 4551   0.953   2.912   1.563
 1536TIP3   OH2 4552   5.648   7.051   2.858
 1536TIP3    H1 4553   5.599   7.125   2.892
 1536TIP3    H2 4554   5.697   7.087   2.784
 1537TIP3   OH2 4555   4.229   3.099   2.633
 1537TIP3    H1 4556   4.209   3.156   2.560
 1537TIP3    H2 4557   4.144   3.067   2.663
 1538TIP3   OH2 4558   3.146   5.659   5.431
 1538TIP3    H1 4559   3.075   5.716   5.460
 1538TIP3    H2 4560   3.206   5.655   5.506
 1539TIP3   OH2 4561   1.536   5.434   5.425
 1539TIP3    H1 4562   1.529   5.342   5.398
 1539TIP3    H2 4563   1.460   5.477   5.386
 1540TIP3   OH2 4564   6.560   2.370   1.639
 1540TIP3    H1 4565   6.565   2.284   1.598
 1540TIP3    H2 4566   6.652   2.397   1.647
 1541TIP3   OH2 4567   1.247   6.228   0.755
 1541TIP3    H1 4568   1.203   6.144   0.738
 1541TIP3    H2 4569   1.188   6.275   0.814
 1542TIP3   OH2 4570   3.188   1.497   6.416
 1542TIP3    H1 4571   3.171   1.454   6.500
 1542TIP3    H2 4572   3.191   1.590   6.437
 1543TIP3   OH2 4573   1.326   0.772   3.408
 1543TIP3    H1 4574   1.261   0.799   3.343
 1543TIP3    H2 4575   1.275   0.761   3.489
 1544TIP3   OH2 4576   5.823   5.306   5.230
 1544TIP3    H1 4577   5.833   5.266   5.143
 1544TIP3    H2 4578   5.748   5.365   5.221
 1545TIP3   OH2 4579   0.213   3.983   1.479
 1545TIP3    H1 4580   0.207   3.972   1.574
 1545TIP3    H2 4581   0.152   4.054   1.459
 1546TIP3   OH2 4582   7.244   4.719   6.213
 1546TIP3    H1 4583   7.258   4.699   6.306
 1546TIP3    H2 4584   7.332   4.737   6.179
 1547TIP3   OH2 4585   8.322   1.097   0.144
 1547TIP3    H1 4586   8.238   1.098   0.098
 1547TIP3    H2 4587   8.367   1.176   0.114
 1548TIP3   OH2 4588   0.146   5.568   4.418
 1548TIP3    H1 4589   0.169   5.496   4.477
 1548TIP3    H2 4590   0.231   5.601   4.387
 1549TIP3   OH2 4591   4.971   6.679   3.530
 1549TIP3    H1 4592   5.052   6.633   3.550
 1549TIP3    H2 4593   4.919   6.672   3.610
 1550TIP3   OH2 4594   0.510   0.124   3.584
 1550TIP3    H1 4595   0.459   0.180   3.526
 1550TIP3    H2 4596   0.498   0.036   3.550
 1551TIP3   OH2 4597   1.665   5.748   1.011
 1551TIP3    H1 4598   1.755   5.739   0.981
 1551TIP3    H2 4599   1.668   5.727   1.104
 1552TIP3   OH2 4600   2.487   7.640   5.799
 1552TIP3    H1 4601   2.401   7.599   5.787
 1552TIP3    H2 4602   2.481   7.724   5.753
 1553TIP3   OH2 4603   0.532   2.452   4.188
 1553TIP3    H1 4604   0.484   2.440   4.270
 1553TIP3    H2 4605   0.465   2.445   4.120
 1554TIP3   OH2 4606   5.423   6.128   4.526
 1554TIP3    H1 4607   5.455   6.150   4.613
 1554TIP3    H2 4608   5.453   6.200   4.471
 1555TIP3   OH2 4609   6.437   7.623   5.696
 1555TIP3    H1 4610   6.478   7.706   5.673
 1555TIP3    H2 4611   6.346   7.646   5.714
 1556TIP3   OH2 4612   5.959   5.134   0.371
 1556TIP3    H1 4613   5.955   5.167   0.281
 1556TIP3    H2 4614   5.901   5.059   0.372
 1557TIP3   OH2 4615   4.733   4.408   5.810
 1557TIP3    H1 4616   4.682   4.485   5.785
 1557TIP3    H2 4617   4.823   4.430   5.785
 1558TIP3   OH2 4618   5.982   7.794   4.041
 1558TIP3    H1 4619   6.052   7.815   4.102
 1558TIP3    H2 4620   5.940   7.717   4.079
 1559TIP3   OH2 4621   8.042   1.595   3.907
 1559TIP3    H1 4622   8.086   1.675   3.879
 1559TIP3    H2 4623   7.976   1.579   3.839
 1560TIP3   OH2 4624   7.700   5.263   5.249
 1560TIP3    H1 4625   7.751   5.313   5.186
 1560TIP3    H2 4626   7.623   5.234   5.201
 1561TIP3   OH2 4627   0.540   3.049   2.441
 1561TIP3    H1 4628   0.446   3.058   2.454
 1561TIP3    H2 4629   0.579   3.100   2.511
 1562TIP3   OH2 4630   1.097   0.951   1.781
 1562TIP3    H1 4631   1.057   0.865   1.797
 1562TIP3    H2 4632   1.188   0.940   1.808
 1563TIP3   OH2 4633   2.230   3.324   1.669
 1563TIP3    H1 4634   2.275   3.299   1.749
 1563TIP3    H2 4635   2.165   3.389   1.696
 1564TIP3   OH2 4636   1.932   4.208   3.300
 1564TIP3    H1 4637   1.966   4.283   3.349
 1564TIP3    H2 4638   1.940   4.134   3.360
 1565TIP3   OH2 4639   6.015   5.322   5.717
 1565TIP3    H1 4640   6.086   5.368   5.674
 1565TIP3    H2 4641   5.940   5.382   5.712
 1566TIP3   OH2 4642   6.696   6.716   1.145
 1566TIP3    H1 4643   6.675   6.631   1.105
 1566TIP3    H2 4644   6.790   6.727   1.128
 1567TIP3   OH2 4645   6.014   1.933   2.112
 1567TIP3    H1 4646   6.060   1.889   2.183
 1567TIP3    H2 4647   6.081   1.986   2.069
 1568TIP3   OH2 4648   5.208   5.103   0.227
 1568TIP3    H1 4649   5.295   5.089   0.265
 1568TIP3    H2 4650   5.209   5.193   0.195
 1569TIP3   OH2 4651   6.175   0.615   2.194
 1569TIP3    H1 4652   6.245   0.561   2.231
 1569TIP3    H2 4653   6.128   0.648   2.270
 1570TIP3   OH2 4654   1.898   4.840   0.516
 1570TIP3    H1 4655   1.911   4.754   0.474
 1570TIP3    H2 4656   1.807   4.862   0.497
 1571TIP3   OH2 4657   3.083   4.888   1.096
 1571TIP3    H1 4658   2.998   4.853   1.068
 1571TIP3    H2 4659   3.122   4.818   1.147
 1572TIP3   OH2 4660   0.761   2.771   5.219
 1572TIP3    H1 4661   0.776   2.820   5.138
 1572TIP3    H2 4662   0.842   2.721   5.232
 1573TIP3   OH2 4663   6.905   2.124   2.210
 1573TIP3    H1 4664   6.821   2.132   2.255
 1573TIP3    H2 4665   6.951   2.206   2.228
 1574TIP3   OH2 4666   5.963   0.949   3.459
 1574TIP3    H1 4667   5.928   0.970   3.545
 1574TIP3    H2 4668   6.032   0.885   3.475
 1575TIP3   OH2 4669   7.057   3.688   1.215
 1575TIP3    H1 4670   7.079   3.717   1.304
 1575TIP3    H2 4671   7.044   3.768   1.166
 1576TIP3   OH2 4672   5.680   2.272   6.508
 1576TIP3    H1 4673   5.722   2.259   6.423
 1576TIP3    H2 4674   5.752   2.294   6.568
 1577TIP3   OH2 4675   6.865   3.082   4.063
 1577TIP3    H1 4676   6.868   3.167   4.108
 1577TIP3    H2 4677   6.827   3.102   3.977
 1578TIP3   OH2 4678   0.512   3.566   2.227
 1578TIP3    H1 4679   0.525   3.657   2.256
 1578TIP3    H2 4680   0.422   3.546   2.251
 1579TIP3   OH2 4681   2.917   5.523   3.103
 1579TIP3    H1 4682   2.984   5.470   3.060
 1579TIP3    H2 4683   2.964   5.597   3.139
 1580TIP3   OH2 4684   2.868   6.553   1.896
 1580TIP3    H1 4685   2.939   6.583   1.953
 1580TIP3    H2 4686   2.901   6.472   1.858
 1581TIP3   OH2 4687   3.262   5.997   4.453
 1581TIP3    H1 4688   3.287   6.087   4.430
 1581TIP3    H2 4689   3.197   5.973   4.386
 1582TIP3   OH2 4690   7.588   6.638   0.113
 1582TIP3    H1 4691   7.653   6.570   0.131
 1582TIP3    H2 4692   7.520   6.593   0.063
 1583TIP3   OH2 4693   6.643   5.706   2.548
 1583TIP3    H1 4694   6.697   5.629   2.565
 1583TIP3    H2 4695   6.636   5.750   2.633
 1584TIP3   OH2 4696   4.946   1.871   3.615
 1584TIP3    H1 4697   4.868   1.882   3.561
 1584TIP3    H2 4698   4.938   1.938   3.684
 1585TIP3   OH2 4699   0.596   4.468   1.814
 1585TIP3    H1 4700   0.555   4.538   1.763
 1585TIP3    H2 4701   0.661   4.513   1.868
 1586TIP3   OH2 4702   7.989   1.847   6.140
 1586TIP3    H1 4703   8.075   1.856   6.099
 1586TIP3    H2 4704   7.998   1.772   6.199
 1587TIP3   OH2 4705   3.564   7.635   6.408
 1587TIP3    H1 4706   3.646   7.675   6.437
 1587TIP3    H2 4707   3.575   7.621   6.314
 1588TIP3   OH2 4708   7.817   4.906   5.502
 1588TIP3    H1 4709   7.755   4.969   5.538
 1588TIP3    H2 4710   7.881   4.959   5.455
 1589TIP3   OH2 4711   6.508   3.393   3.856
 1589TIP3    H1 4712   6.490   3.383   3.949
 1589TIP3    H2 4713   6.602   3.409   3.851
 1590TIP3   OH2 4714   1.399   5.248   4.249
 1590TIP3    H1 4715   1.312   5.237   4.212
 1590TIP3    H2 4716   1.457   5.201   4.189
 1591TIP3   OH2 4717   7.814   4.013   6.719
 1591TIP3    H1 4718   7.778   3.930   6.689
 1591TIP3    H2 4719   7.889   3.988   6.774
 1592TIP3   OH2 4720   3.884   0.331   1.883
 1592TIP3    H1 4721   3.875   0.393   1.811
 1592TIP3    H2 4722   3.934   0.377   1.949
 1593TIP3   OH2 4723   2.237   2.552   3.346
 1593TIP3    H1 4724   2.260   2.635   3.304
 1593TIP3    H2 4725   2.315   2.498   3.337
 1594TIP3   OH2 4726   4.446   7.484   4.267
 1594TIP3    H1 4727   4.444   7.530   4.183
 1594TIP3    H2 4728   4.499   7.540   4.324
 1595TIP3   OH2 4729   2.900   5.909   5.836
 1595TIP3    H1 4730   2.972   5.845   5.833
 1595TIP3    H2 4731   2.938   5.989   5.802
 1596TIP3   OH2 4732   1.132   2.170   6.602
 1596TIP3    H1 4733   1.148   2.098   6.664
 1596TIP3    H2 4734   1.039   2.190   6.611
 1597TIP3   OH2 4735   4.139   6.848   4.642
 1597TIP3    H1 4736   4.174   6.885   4.723
 1597TIP3    H2 4737   4.077   6.914   4.610
 1598TIP3   OH2 4738   5.928   4.147   0.614
 1598TIP3    H1 4739   5.847   4.166   0.568
 1598TIP3    H2 4740   5.981   4.226   0.603
 1599TIP3   OH2 4741   0.122   5.611   1.890
 1599TIP3    H1 4742   0.112   5.701   1.861
 1599TIP3    H2 4743   0.123   5.616   1.985
 1600TIP3   OH2 4744   2.272   3.973   6.662
 1600TIP3    H1 4745   2.290   4.061   6.694
 1600TIP3    H2 4746   2.176   3.969   6.656
 1601TIP3   OH2 4747   3.382   6.934   6.135
 1601TIP3    H1 4748   3.325   6.949   6.211
 1601TIP3    H2 4749   3.393   6.839   6.132
 1602TIP3   OH2 4750   5.322   0.957   3.668
 1602TIP3    H1 4751   5.244   0.995   3.628
 1602TIP3    H2 4752   5.295   0.870   3.697
 1603TIP3   OH2 4753   7.212   6.549   4.628
 1603TIP3    H1 4754   7.257   6.632   4.616
 1603TIP3    H2 4755   7.239   6.519   4.714
 1604TIP3   OH2 4756   7.849   0.574   0.198
 1604TIP3    H1 4757   7.845   0.525   0.117
 1604TIP3    H2 4758   7.925   0.540   0.244
 1605TIP3   OH2 4759   4.935   1.001   3.316
 1605TIP3    H1 4760   5.009   0.940   3.316
 1605TIP3    H2 4761   4.970   1.082   3.281
 1606TIP3   OH2 4762   6.646   1.310   6.267
 1606TIP3    H1 4763   6.561   1.266   6.263
 1606TIP3    H2 4764   6.696   1.272   6.195
 1607TIP3   OH2 4765   0.822   0.376   1.409
 1607TIP3    H1 4766   0.846   0.376   1.501
 1607TIP3    H2 4767   0.750   0.314   1.402
 1608TIP3   OH2 4768   8.135   3.043   1.254
 1608TIP3    H1 4769   8.199   3.045   1.326
 1608TIP3    H2 4770   8.187   3.058   1.175
 1609TIP3   OH2 4771   6.248   5.978   0.464
 1609TIP3    H1 4772   6.240   5.999   0.557
 1609TIP3    H2 4773   6.198   5.897   0.453
 1610TIP3   OH2 4774   1.836   1.730   2.078
 1610TIP3    H1 4775   1.867   1.675   2.149
 1610TIP3    H2 4776   1.820   1.670   2.006
 1611TIP3   OH2 4777   1.765   3.665   2.253
 1611TIP3    H1 4778   1.760   3.742   2.197
 1611TIP3    H2 4779   1.854   3.634   2.243
 1612TIP3   OH2 4780   1.896   2.601   6.036
 1612TIP3    H1 4781   1.978   2.560   6.065
 1612TIP3    H2 4782   1.924   2.666   5.971
 1613TIP3   OH2 4783   5.762   0.646   5.356
 1613TIP3    H1 4784   5.711   0.689   5.425
 1613TIP3    H2 4785   5.723   0.559   5.347
 1614TIP3   OH2 4786   6.721   3.046   6.361
 1614TIP3    H1 4787   6.725   2.977   6.295
 1614TIP3    H2 4788   6.799   3.099   6.345
 1615TIP3   OH2 4789   1.947   7.064   2.451
 1615TIP3    H1 4790   2.039   7.044   2.432
 1615TIP3    H2 4791   1.915   6.988   2.499
 1616TIP3   OH2 4792   5.753   4.706   1.969
 1616TIP3    H1 4793   5.828   4.727   2.024
 1616TIP3    H2 4794   5.742   4.783   1.913
 1617TIP3   OH2 4795   7.843   7.360   3.633
 1617TIP3    H1 4796   7.902   7.337   3.704
 1617TIP3    H2 4797   7.900   7.392   3.563
 1618TIP3   OH2 4798   6.325   0.387   4.866
 1618TIP3    H1 4799   6.307   0.296   4.890
 1618TIP3    H2 4800   6.341   0.432   4.949
 1619TIP3   OH2 4801   0.107   3.192   3.574
 1619TIP3    H1 4802   0.123   3.156   3.662
 1619TIP3    H2 4803   0.192   3.184   3.530
 1620TIP3   OH2 4804   2.921   7.694   2.612
 1620TIP3    H1 4805   2.942   7.621   2.669
 1620TIP3    H2 4806   2.998   7.751   2.614
 1621TIP3   OH2 4807   6.442   2.765   3.977
 1621TIP3    H1 4808   6.347   2.770   3.962
 1621TIP3    H2 4809   6.472   2.855   3.969
 1622TIP3   OH2 4810   4.184   1.461   2.594
 1622TIP3    H1 4811   4.229   1.534   2.551
 1622TIP3    H2 4812   4.216   1.463   2.684
 1623TIP3   OH2 4813   0.600   4.139   2.897
 1623TIP3    H1 4814   0.599   4.062   2.954
 1623TIP3    H2 4815   0.517   4.134   2.850
 1624TIP3   OH2 4816   0.862   1.722   0.570
 1624TIP3    H1 4817   0.868   1.703   0.476
 1624TIP3    H2 4818   0.768   1.720   0.589
 1625TIP3   OH2 4819   1.251   2.885   1.428
 1625TIP3    H1 4820   1.215   2.869   1.515
 1625TIP3    H2 4821   1.194   2.838   1.369
 1626TIP3   OH2 4822   6.623   7.176   2.784
 1626TIP3    H1 4823   6.690   7.241   2.764
 1626TIP3    H2 4824   6.640   7.151   2.875
 1627TIP3   OH2 4825   0.928   7.582   1.063
 1627TIP3    H1 4826   0.933   7.677   1.058
 1627TIP3    H2 4827   1.006   7.552   1.016
 1628TIP3   OH2 4828   7.548   3.813   0.550
 1628TIP3    H1 4829   7.569   3.899   0.512
 1628TIP3    H2 4830   7.463   3.826   0.593
 1629TIP3   OH2 4831   0.185   7.086   5.156
 1629TIP3    H1 4832   0.213   6.996   5.167
 1629TIP3    H2 4833   0.188   7.123   5.245
 1630TIP3   OH2 4834   4.557   0.315   3.638
 1630TIP3    H1 4835   4.514   0.249   3.692
 1630TIP3    H2 4836   4.643   0.328   3.678
 1631TIP3   OH2 4837   1.207   5.711   3.544
 1631TIP3    H1 4838   1.175   5.681   3.458
 1631TIP3    H2 4839   1.198   5.806   3.541
 1632TIP3   OH2 4840   5.249   3.298   3.560
 1632TIP3    H1 4841   5.226   3.206   3.546
 1632TIP3    H2 4842   5.182   3.346   3.512
 1633TIP3   OH2 4843   7.361   4.597   1.887
 1633TIP3    H1 4844   7.317   4.520   1.923
 1633TIP3    H2 4845   7.452   4.589   1.916
 1634TIP3   OH2 4846   5.858   5.512   4.135
 1634TIP3    H1 4847   5.923   5.447   4.107
 1634TIP3    H2 4848   5.773   5.468   4.123
 1635TIP3   OH2 4849   2.258   0.739   6.143
 1635TIP3    H1 4850   2.212   0.698   6.216
 1635TIP3    H2 4851   2.216   0.825   6.134
 1636TIP3   OH2 4852   6.302   5.812   4.456
 1636TIP3    H1 4853   6.285   5.844   4.367
 1636TIP3    H2 4854   6.334   5.888   4.503
 1637TIP3   OH2 4855   6.778   3.656   5.897
 1637TIP3    H1 4856   6.709   3.713   5.932
 1637TIP3    H2 4857   6.819   3.708   5.829
 1638TIP3   OH2 4858   7.384   3.773   2.170
 1638TIP3    H1 4859   7.399   3.689   2.126
 1638TIP3    H2 4860   7.471   3.813   2.176
 1639TIP3   OH2 4861   3.798   5.015   1.193
 1639TIP3    H1 4862   3.707   4.995   1.215
 1639TIP3    H2 4863   3.793   5.068   1.113
 1640TIP3   OH2 4864   3.608   5.336   2.208
 1640TIP3    H1 4865   3.632   5.252   2.170
 1640TIP3    H2 4866   3.639   5.401   2.145
 1641TIP3   OH2 4867   5.176   4.727   1.869
 1641TIP3    H1 4868   5.103   4.783   1.894
 1641TIP3    H2 4869   5.217   4.702   1.952
 1642TIP3   OH2 4870   4.771   1.774   2.649
 1642TIP3    H1 4871   4.820   1.691   2.650
 1642TIP3    H2 4872   4.680   1.747   2.650
 1643TIP3   OH2 4873   0.930   0.867   5.573
 1643TIP3    H1 4874   0.957   0.789   5.621
 1643TIP3    H2 4875   0.939   0.938   5.636
 1644TIP3   OH2 4876   7.332   1.106   0.223
 1644TIP3    H1 4877   7.355   1.031   0.278
 1644TIP3    H2 4878   7.412   1.157   0.216
 1645TIP3   OH2 4879   7.134   0.989   4.803
 1645TIP3    H1 4880   7.042   1.008   4.787
 1645TIP3    H2 4881   7.182   1.050   4.746
 1646TIP3   OH2 4882   0.377   5.027   5.619
 1646TIP3    H1 4883   0.396   5.045   5.711
 1646TIP3    H2 4884   0.289   5.062   5.605
 1647TIP3   OH2 4885   4.225   0.921   4.499
 1647TIP3    H1 4886   4.258   0.990   4.442
 1647TIP3    H2 4887   4.138   0.901   4.464
 1648TIP3   OH2 4888   3.175   1.207   5.812
 1648TIP3    H1 4889   3.184   1.252   5.728
 1648TIP3    H2 4890   3.090   1.235   5.844
 1649TIP3   OH2 4891   8.170   2.447   1.523
 1649TIP3    H1 4892   8.156   2.542   1.517
 1649TIP3    H2 4893   8.093   2.409   1.480
 1650TIP3   OH2 4894   7.013   5.088   0.897
 1650TIP3    H1 4895   6.979   5.042   0.820
 1650TIP3    H2 4896   7.037   5.175   0.865
 1651TIP3   OH2 4897   2.737  -0.014   3.490
 1651TIP3    H1 4898   2.653  -0.036   3.531
 1651TIP3    H2 4899   2.800  -0.017   3.562
 1652TIP3   OH2 4900   3.136   1.049   4.841
 1652TIP3    H1 4901   3.225   1.081   4.860
 1652TIP3    H2 4902   3.088   1.063   4.923
 1653TIP3   OH2 4903   0.085   4.586   5.232
 1653TIP3    H1 4904   0.144   4.547   5.296
 1653TIP3    H2 4905   0.000   4.587   5.275
 1654TIP3   OH2 4906   6.010   6.869   4.312
 1654TIP3    H1 4907   5.977   6.849   4.399
 1654TIP3    H2 4908   5.942   6.837   4.252
 1655TIP3   OH2 4909   4.757   2.987   2.630
 1655TIP3    H1 4910   4.801   2.970   2.546
 1655TIP3    H2 4911   4.796   2.924   2.691
 1656TIP3   OH2 4912   1.191   2.671   5.703
 1656TIP3    H1 4913   1.241   2.694   5.781
 1656TIP3    H2 4914   1.215   2.738   5.639
 1657TIP3   OH2 4915   1.584   4.482   0.730
 1657TIP3    H1 4916   1.495   4.451   0.714
 1657TIP3    H2 4917   1.640   4.412   0.696
 1658TIP3   OH2 4918   7.097   7.743   4.044
 1658TIP3    H1 4919   7.171   7.682   4.053
 1658TIP3    H2 4920   7.027   7.703   4.097
 1659TIP3   OH2 4921   4.382   7.129   2.569
 1659TIP3    H1 4922   4.332   7.075   2.630
 1659TIP3    H2 4923   4.335   7.122   2.486
 1660TIP3   OH2 4924   5.011   2.189   6.450
 1660TIP3    H1 4925   4.962   2.111   6.478
 1660TIP3    H2 4926   4.967   2.262   6.492
 1661TIP3   OH2 4927   0.239   2.408   3.031
 1661TIP3    H1 4928   0.152   2.434   3.063
 1661TIP3    H2 4929   0.297   2.479   3.059
 1662TIP3   OH2 4930   0.335   4.281   4.463
 1662TIP3    H1 4931   0.418   4.301   4.419
 1662TIP3    H2 4932   0.358   4.212   4.526
 1663TIP3   OH2 4933   2.201   5.843   4.994
 1663TIP3    H1 4934   2.285   5.825   4.953
 1663TIP3    H2 4935   2.206   5.800   5.080
 1664TIP3   OH2 4936   5.853   0.977   0.570
 1664TIP3    H1 4937   5.799   1.042   0.614
 1664TIP3    H2 4938   5.936   0.978   0.618
 1665TIP3   OH2 4939   7.318   2.083   4.376
 1665TIP3    H1 4940   7.361   2.022   4.316
 1665TIP3    H2 4941   7.388   2.111   4.435
 1666TIP3   OH2 4942   2.404   2.766   0.054
 1666TIP3    H1 4943   2.315   2.777   0.087
 1666TIP3    H2 4944   2.395   2.773  -0.041
 1667TIP3   OH2 4945   1.373   2.386   5.379
 1667TIP3    H1 4946   1.462   2.379   5.343
 1667TIP3    H2 4947   1.367   2.315   5.442
 1668TIP3   OH2 4948   7.267   6.096   5.620
 1668TIP3    H1 4949   7.309   6.112   5.535
 1668TIP3    H2 4950   7.296   6.008   5.644
 1669TIP3   OH2 4951   7.709   7.412   0.399
 1669TIP3    H1 4952   7.621   7.440   0.421
 1669TIP3    H2 4953   7.755   7.410   0.483
 1670TIP3   OH2 4954   4.879   5.719   5.033
 1670TIP3    H1 4955   4.907   5.660   5.103
 1670TIP3    H2 4956   4.791   5.688   5.010
 1671TIP3   OH2 4957   7.257   6.493   2.072
 1671TIP3    H1 4958   7.311   6.557   2.118
 1671TIP3    H2 4959   7.168   6.528   2.076
 1672TIP3   OH2 4960   3.426   4.669   2.353
 1672TIP3    H1 4961   3.451   4.667   2.260
 1672TIP3    H2 4962   3.448   4.581   2.385
 1673TIP3   OH2 4963   0.043   2.629   1.276
 1673TIP3    H1 4964   0.016   2.679   1.353
 1673TIP3    H2 4965   0.097   2.690   1.225
 1674TIP3   OH2 4966   7.786   1.694   2.790
 1674TIP3    H1 4967   7.745   1.618   2.749
 1674TIP3    H2 4968   7.713   1.751   2.814
 1675TIP3   OH2 4969   3.139   0.228   3.810
 1675TIP3    H1 4970   3.115   0.153   3.865
 1675TIP3    H2 4971   3.233   0.220   3.798
 1676TIP3   OH2 4972   5.760   1.392   4.785
 1676TIP3    H1 4973   5.757   1.481   4.751
 1676TIP3    H2 4974   5.744   1.402   4.879
 1677TIP3   OH2 4975   6.341   4.533   1.935
 1677TIP3    H1 4976   6.245   4.532   1.930
 1677TIP3    H2 4977   6.359   4.574   2.020
 1678TIP3   OH2 4978   3.202   0.451   4.661
 1678TIP3    H1 4979   3.137   0.516   4.689
 1678TIP3    H2 4980   3.286   0.496   4.669
 1679TIP3   OH2 4981   4.397   1.427   3.632
 1679TIP3    H1 4982   4.424   1.505   3.680
 1679TIP3    H2 4983   4.389   1.457   3.541
 1680TIP3   OH2 4984   4.849   7.848   1.265
 1680TIP3    H1 4985   4.844   7.819   1.174
 1680TIP3    H2 4986   4.942   7.861   1.281
 1681TIP3   OH2 4987   7.594   6.653   3.245
 1681TIP3    H1 4988   7.651   6.708   3.298
 1681TIP3    H2 4989   7.515   6.642   3.298
 1682TIP3   OH2 4990   7.178   2.873   0.171
 1682TIP3    H1 4991   7.238   2.875   0.096
 1682TIP3    H2 4992   7.188   2.959   0.211
 1683TIP3   OH2 4993   0.073   6.562   2.624
 1683TIP3    H1 4994   0.009   6.491   2.631
 1683TIP3    H2 4995   0.123   6.541   2.545
 1684TIP3   OH2 4996   7.148   2.682   3.407
 1684TIP3    H1 4997   7.199   2.729   3.473
 1684TIP3    H2 4998   7.093   2.622   3.458
 1685TIP3   OH2 4999   1.363   0.945   1.868
 1685TIP3    H1 5000   1.371   0.880   1.938
 1685TIP3    H2 5001   1.434   0.925   1.808
 1686TIP3   OH2 5002   3.732   2.412   0.228
 1686TIP3    H1 5003   3.822   2.428   0.198
 1686TIP3    H2 5004   3.718   2.477   0.298
 1687TIP3   OH2 5005   2.470   2.510   0.646
 1687TIP3    H1 5006   2.501   2.476   0.730
 1687TIP3    H2 5007   2.478   2.436   0.585
 1688TIP3   OH2 5008   2.274   4.952   2.231
 1688TIP3    H1 5009   2.202   4.974   2.289
 1688TIP3    H2 5010   2.242   4.974   2.143
 1689TIP3   OH2 5011   2.997   2.903   1.020
 1689TIP3    H1 5012   3.051   2.981   1.029
 1689TIP3    H2 5013   3.005   2.878   0.928
 1690TIP3   OH2 5014   4.330   6.480   1.436
 1690TIP3    H1 5015   4.255   6.427   1.462
 1690TIP3    H2 5016   4.340   6.461   1.343
 1691TIP3   OH2 5017   6.273   3.639   1.163
 1691TIP3    H1 5018   6.317   3.565   1.203
 1691TIP3    H2 5019   6.278   3.622   1.069
 1692TIP3   OH2 5020   1.324   0.161   1.747
 1692TIP3    H1 5021   1.290   0.196   1.829
 1692TIP3    H2 5022   1.382   0.089   1.774
 1693TIP3   OH2 5023   6.180   2.957   3.429
 1693TIP3    H1 5024   6.236   2.946   3.353
 1693TIP3    H2 5025   6.164   2.868   3.461
 1694TIP3   OH2 5026   6.923   4.655   6.247
 1694TIP3    H1 5027   6.903   4.579   6.193
 1694TIP3    H2 5028   7.017   4.668   6.236
 1695TIP3   OH2 5029   5.704   7.703   2.538
 1695TIP3    H1 5030   5.763   7.738   2.605
 1695TIP3    H2 5031   5.616   7.718   2.573
 1696TIP3   OH2 5032   2.820   6.228   3.147
 1696TIP3    H1 5033   2.832   6.148   3.200
 1696TIP3    H2 5034   2.876   6.214   3.070
 1697TIP3   OH2 5035   2.184   1.762   1.676
 1697TIP3    H1 5036   2.119   1.723   1.617
 1697TIP3    H2 5037   2.233   1.688   1.710
 1698TIP3   OH2 5038   0.834   2.908   3.988
 1698TIP3    H1 5039   0.764   2.896   4.053
 1698TIP3    H2 5040   0.895   2.836   4.005
 1699TIP3   OH2 5041   2.461   5.826   4.283
 1699TIP3    H1 5042   2.474   5.744   4.236
 1699TIP3    H2 5043   2.381   5.863   4.244
 1700TIP3   OH2 5044   6.886   0.077   1.199
 1700TIP3    H1 5045   6.946   0.016   1.244
 1700TIP3    H2 5046   6.942   0.150   1.172
 1701TIP3   OH2 5047   6.450   7.481   1.120
 1701TIP3    H1 5048   6.449   7.558   1.178
 1701TIP3    H2 5049   6.538   7.443   1.133
 1702TIP3   OH2 5050   6.714   5.470   4.406
 1702TIP3    H1 5051   6.749   5.442   4.490
 1702TIP3    H2 5052   6.653   5.541   4.428
 1703TIP3   OH2 5053   0.537   7.326   1.100
 1703TIP3    H1 5054   0.624   7.361   1.082
 1703TIP3    H2 5055   0.508   7.372   1.178
 1704TIP3   OH2 5056   8.049   5.544   4.992
 1704TIP3    H1 5057   8.122   5.484   4.975
 1704TIP3    H2 5058   8.035   5.588   4.908
 1705TIP3   OH2 5059   4.330   1.918   6.626
 1705TIP3    H1 5060   4.250   1.951   6.667
 1705TIP3    H2 5061   4.372   1.866   6.695
 1706TIP3   OH2 5062   2.029   6.279   3.215
 1706TIP3    H1 5063   2.059   6.328   3.291
 1706TIP3    H2 5064   1.995   6.197   3.251
 1707TIP3   OH2 5065   4.383   2.245   3.444
 1707TIP3    H1 5066   4.443   2.195   3.388
 1707TIP3    H2 5067   4.343   2.309   3.385
 1708TIP3   OH2 5068   4.531   2.296   1.989
 1708TIP3    H1 5069   4.467   2.234   1.954
 1708TIP3    H2 5070   4.494   2.382   1.970
 1709TIP3   OH2 5071   7.408   2.044   6.019
 1709TIP3    H1 5072   7.454   2.126   6.035
 1709TIP3    H2 5073   7.455   2.004   5.946
 1710TIP3   OH2 5074   1.092   0.385   4.859
 1710TIP3    H1 5075   1.088   0.405   4.952
 1710TIP3    H2 5076   1.060   0.465   4.816
 1711TIP3   OH2 5077   1.133   1.474   5.534
 1711TIP3    H1 5078   1.145   1.381   5.513
 1711TIP3    H2 5079   1.114   1.515   5.450
 1712TIP3   OH2 5080   2.261   2.891   4.060
 1712TIP3    H1 5081   2.191   2.934   4.109
 1712TIP3    H2 5082   2.243   2.798   4.068
 1713TIP3   OH2 5083   7.027   0.814   0.046
 1713TIP3    H1 5084   7.101   0.849  -0.005
 1713TIP3    H2 5085   6.993   0.889   0.093
 1714TIP3   OH2 5086   6.302   1.503   6.227
 1714TIP3    H1 5087   6.394   1.522   6.243
 1714TIP3    H2 5088   6.263   1.499   6.314
 1715TIP3   OH2 5089   0.464   3.318   1.679
 1715TIP3    H1 5090   0.530   3.287   1.616
 1715TIP3    H2 5091   0.463   3.413   1.668
 1716TIP3   OH2 5092   0.762   3.217   1.653
 1716TIP3    H1 5093   0.731   3.134   1.617
 1716TIP3    H2 5094   0.749   3.208   1.747
 1717TIP3   OH2 5095   2.325   5.261   2.697
 1717TIP3    H1 5096   2.406   5.282   2.745
 1717TIP3    H2 5097   2.349   5.187   2.642
 1718TIP3   OH2 5098   4.778   4.902   2.771
 1718TIP3    H1 5099   4.786   4.944   2.685
 1718TIP3    H2 5100   4.868   4.896   2.803
 1719TIP3   OH2 5101   3.234   2.516   6.470
 1719TIP3    H1 5102   3.199   2.513   6.559
 1719TIP3    H2 5103   3.294   2.441   6.465
 1720TIP3   OH2 5104   0.733   5.559   4.238
 1720TIP3    H1 5105   0.662   5.498   4.254
 1720TIP3    H2 5106   0.799   5.508   4.191
 1721TIP3   OH2 5107   8.104   3.152   1.539
 1721TIP3    H1 5108   8.116   3.231   1.487
 1721TIP3    H2 5109   8.175   3.094   1.513
 1722TIP3   OH2 5110   1.183   6.871   4.840
 1722TIP3    H1 5111   1.089   6.856   4.841
 1722TIP3    H2 5112   1.219   6.791   4.802
 1723TIP3   OH2 5113   2.312   2.290   4.797
 1723TIP3    H1 5114   2.307   2.298   4.892
 1723TIP3    H2 5115   2.243   2.347   4.763
 1724TIP3   OH2 5116   0.621   2.753   4.904
 1724TIP3    H1 5117   0.678   2.823   4.875
 1724TIP3    H2 5118   0.678   2.676   4.908
 1725TIP3   OH2 5119   1.752   3.946   3.907
 1725TIP3    H1 5120   1.847   3.953   3.899
 1725TIP3    H2 5121   1.734   3.967   3.999
 1726TIP3   OH2 5122   0.798   5.015   4.015
 1726TIP3    H1 5123   0.865   4.954   4.047
 1726TIP3    H2 5124   0.824   5.100   4.049
 1727TIP3   OH2 5125   7.021   4.247   2.926
 1727TIP3    H1 5126   6.990   4.310   2.860
 1727TIP3    H2 5127   7.085   4.295   2.978
 1728TIP3   OH2 5128   0.524   3.793   2.813
 1728TIP3    H1 5129   0.433   3.824   2.812
 1728TIP3    H2 5130   0.572   3.858   2.761
 1729TIP3   OH2 5131   6.449   3.589   6.622
 1729TIP3    H1 5132   6.394   3.583   6.700
 1729TIP3    H2 5133   6.502   3.510   6.623
 1730TIP3   OH2 5134   4.352   0.242   4.815
 1730TIP3    H1 5135   4.327   0.202   4.732
 1730TIP3    H2 5136   4.437   0.283   4.797
 1731TIP3   OH2 5137   4.849   5.630   3.390
 1731TIP3    H1 5138   4.887   5.717   3.402
 1731TIP3    H2 5139   4.759   5.647   3.363
 1732TIP3   OH2 5140   1.354   3.745   2.768
 1732TIP3    H1 5141   1.310   3.660   2.770
 1732TIP3    H2 5142   1.372   3.765   2.860
 1733TIP3   OH2 5143   4.103   4.447   0.972
 1733TIP3    H1 5144   4.149   4.452   0.888
 1733TIP3    H2 5145   4.171   4.422   1.035
 1734TIP3   OH2 5146   2.172   5.548   3.710
 1734TIP3    H1 5147   2.240   5.486   3.737
 1734TIP3    H2 5148   2.164   5.608   3.784
 1735TIP3   OH2 5149   0.345   3.683   4.316
 1735TIP3    H1 5150   0.264   3.646   4.349
 1735TIP3    H2 5151   0.320   3.724   4.233
 1736TIP3   OH2 5152   4.042   5.591   5.280
 1736TIP3    H1 5153   4.052   5.496   5.284
 1736TIP3    H2 5154   4.092   5.624   5.355
 1737TIP3   OH2 5155   6.927   3.647   5.387
 1737TIP3    H1 5156   6.969   3.732   5.373
 1737TIP3    H2 5157   6.968   3.613   5.466
 1738TIP3   OH2 5158   3.623   6.750   0.551
 1738TIP3    H1 5159   3.565   6.733   0.478
 1738TIP3    H2 5160   3.588   6.829   0.593
 1739TIP3   OH2 5161   0.280   0.746   5.071
 1739TIP3    H1 5162   0.273   0.808   5.144
 1739TIP3    H2 5163   0.275   0.660   5.112
 1740TIP3   OH2 5164   3.598   2.783   2.737
 1740TIP3    H1 5165   3.611   2.688   2.747
 1740TIP3    H2 5166   3.565   2.811   2.822
 1741TIP3   OH2 5167   0.908   3.311   2.037
 1741TIP3    H1 5168   0.918   3.373   1.964
 1741TIP3    H2 5169   0.834   3.255   2.011
 1742TIP3   OH2 5170   1.264   2.402   2.813
 1742TIP3    H1 5171   1.308   2.319   2.829
 1742TIP3    H2 5172   1.179   2.378   2.777
 1743TIP3   OH2 5173   7.173   6.202   4.858
 1743TIP3    H1 5174   7.111   6.134   4.832
 1743TIP3    H2 5175   7.258   6.169   4.830
 1744TIP3   OH2 5176   5.931   6.364   2.203
 1744TIP3    H1 5177   6.014   6.386   2.160
 1744TIP3    H2 5178   5.870   6.349   2.131
 1745TIP3   OH2 5179   2.590   1.707   5.302
 1745TIP3    H1 5180   2.622   1.730   5.389
 1745TIP3    H2 5181   2.544   1.786   5.271
 1746TIP3   OH2 5182   0.794   0.810   5.942
 1746TIP3    H1 5183   0.748   0.804   5.858
 1746TIP3    H2 5184   0.764   0.733   5.991
 1747TIP3   OH2 5185   5.476   2.435   0.548
 1747TIP3    H1 5186   5.520   2.350   0.548
 1747TIP3    H2 5187   5.540   2.495   0.585
 1748TIP3   OH2 5188   5.042   0.222   4.095
 1748TIP3    H1 5189   5.069   0.148   4.148
 1748TIP3    H2 5190   5.074   0.299   4.142
 1749TIP3   OH2 5191   7.179   0.818   4.546
 1749TIP3    H1 5192   7.143   0.739   4.506
 1749TIP3    H2 5193   7.165   0.806   4.640
 1750TIP3   OH2 5194   3.719   7.265   5.172
 1750TIP3    H1 5195   3.667   7.274   5.251
 1750TIP3    H2 5196   3.720   7.354   5.134
 1751TIP3   OH2 5197   5.937   2.972   2.641
 1751TIP3    H1 5198   5.869   2.973   2.709
 1751TIP3    H2 5199   5.962   3.064   2.630
 1752TIP3   OH2 5200   3.074   0.769   0.640
 1752TIP3    H1 5201   3.068   0.865   0.636
 1752TIP3    H2 5202   3.146   0.747   0.580
 1753TIP3   OH2 5203   7.512   6.143   2.892
 1753TIP3    H1 5204   7.417   6.138   2.877
 1753TIP3    H2 5205   7.539   6.053   2.907
 1754TIP3   OH2 5206   7.168   7.583   0.590
 1754TIP3    H1 5207   7.201   7.536   0.667
 1754TIP3    H2 5208   7.124   7.660   0.627
 1755TIP3   OH2 5209   3.367   0.350   6.658
 1755TIP3    H1 5210   3.445   0.384   6.615
 1755TIP3    H2 5211   3.321   0.428   6.690
 1756TIP3   OH2 5212   5.481   3.798   3.500
 1756TIP3    H1 5213   5.455   3.866   3.438
 1756TIP3    H2 5214   5.573   3.781   3.479
 1757TIP3   OH2 5215   5.940   6.750   4.832
 1757TIP3    H1 5216   5.934   6.654   4.835
 1757TIP3    H2 5217   5.911   6.779   4.918
 1758TIP3   OH2 5218   4.270   0.627   5.653
 1758TIP3    H1 5219   4.250   0.543   5.694
 1758TIP3    H2 5220   4.242   0.692   5.717
 1759TIP3   OH2 5221   6.927   3.184   1.447
 1759TIP3    H1 5222   6.834   3.198   1.464
 1759TIP3    H2 5223   6.952   3.254   1.387
 1760TIP3   OH2 5224   7.258   7.391   2.501
 1760TIP3    H1 5225   7.309   7.387   2.582
 1760TIP3    H2 5226   7.178   7.343   2.521
 1761TIP3   OH2 5227   4.125   2.866   1.083
 1761TIP3    H1 5228   4.048   2.921   1.065
 1761TIP3    H2 5229   4.120   2.796   1.018
 1762TIP3   OH2 5230   3.404   5.252   4.059
 1762TIP3    H1 5231   3.477   5.315   4.058
 1762TIP3    H2 5232   3.437   5.179   4.110
 1763TIP3   OH2 5233   5.796   0.047   3.066
 1763TIP3    H1 5234   5.859   0.016   3.131
 1763TIP3    H2 5235   5.713   0.050   3.112
 1764TIP3   OH2 5236   6.890   2.663   1.040
 1764TIP3    H1 5237   6.848   2.589   0.996
 1764TIP3    H2 5238   6.950   2.700   0.975
 1765TIP3   OH2 5239   2.450   4.127   4.207
 1765TIP3    H1 5240   2.399   4.129   4.287
 1765TIP3    H2 5241   2.533   4.169   4.230
 1766TIP3   OH2 5242   5.836   1.100   4.520
 1766TIP3    H1 5243   5.850   1.114   4.614
 1766TIP3    H2 5244   5.847   1.005   4.509
 1767TIP3   OH2 5245   7.405   6.496   3.662
 1767TIP3    H1 5246   7.390   6.551   3.739
 1767TIP3    H2 5247   7.477   6.438   3.688
 1768TIP3   OH2 5248   0.667   7.074   1.118
 1768TIP3    H1 5249   0.720   7.115   1.050
 1768TIP3    H2 5250   0.599   7.137   1.137
 1769TIP3   OH2 5251   0.826   7.605   6.097
 1769TIP3    H1 5252   0.809   7.520   6.057
 1769TIP3    H2 5253   0.758   7.662   6.062
 1770TIP3   OH2 5254   6.997   3.294   1.029
 1770TIP3    H1 5255   7.024   3.373   0.981
 1770TIP3    H2 5256   6.928   3.256   0.975
 1771TIP3   OH2 5257   5.405   4.141   1.943
 1771TIP3    H1 5258   5.354   4.216   1.971
 1771TIP3    H2 5259   5.350   4.065   1.966
 1772TIP3   OH2 5260   1.479   0.017   6.622
 1772TIP3    H1 5261   1.523   0.101   6.618
 1772TIP3    H2 5262   1.460  -0.005   6.530
 1773TIP3   OH2 5263   4.567   2.041   0.076
 1773TIP3    H1 5264   4.554   2.021   0.169
 1773TIP3    H2 5265   4.602   2.130   0.075
 1774TIP3   OH2 5266   0.304   5.572   0.704
 1774TIP3    H1 5267   0.335   5.591   0.616
 1774TIP3    H2 5268   0.217   5.610   0.708
 1775TIP3   OH2 5269   0.029   6.844   2.361
 1775TIP3    H1 5270   0.032   6.749   2.358
 1775TIP3    H2 5271   0.121   6.870   2.363
 1776TIP3   OH2 5272   6.811   5.282   1.479
 1776TIP3    H1 5273   6.906   5.288   1.493
 1776TIP3    H2 5274   6.787   5.195   1.512
 1777TIP3   OH2 5275   5.090   0.363   2.039
 1777TIP3    H1 5276   5.144   0.428   2.084
 1777TIP3    H2 5277   5.055   0.409   1.963
 1778TIP3   OH2 5278   7.139   2.626   0.291
 1778TIP3    H1 5279   7.157   2.712   0.255
 1778TIP3    H2 5280   7.051   2.605   0.262
 1779TIP3   OH2 5281   7.379   6.056   4.073
 1779TIP3    H1 5282   7.372   6.124   4.006
 1779TIP3    H2 5283   7.294   6.054   4.115
 1780TIP3   OH2 5284   7.703   7.202   4.566
 1780TIP3    H1 5285   7.790   7.212   4.606
 1780TIP3    H2 5286   7.690   7.284   4.517
 1781TIP3   OH2 5287   3.202   5.132   3.752
 1781TIP3    H1 5288   3.257   5.158   3.826
 1781TIP3    H2 5289   3.214   5.038   3.744
 1782TIP3   OH2 5290   2.599   7.474   0.938
 1782TIP3    H1 5291   2.588   7.568   0.950
 1782TIP3    H2 5292   2.615   7.464   0.844
 1783TIP3   OH2 5293   3.469   6.569   4.615
 1783TIP3    H1 5294   3.497   6.654   4.647
 1783TIP3    H2 5295   3.376   6.564   4.638
 1784TIP3   OH2 5296   2.432   4.760   4.210
 1784TIP3    H1 5297   2.347   4.722   4.233
 1784TIP3    H2 5298   2.492   4.729   4.277
 1785TIP3   OH2 5299   5.036   2.855   0.158
 1785TIP3    H1 5300   5.056   2.942   0.124
 1785TIP3    H2 5301   5.050   2.863   0.253
 1786TIP3   OH2 5302   3.945   6.887   6.416
 1786TIP3    H1 5303   3.874   6.944   6.386
 1786TIP3    H2 5304   3.992   6.940   6.481
 1787TIP3   OH2 5305   6.588   4.234   4.427
 1787TIP3    H1 5306   6.512   4.189   4.465
 1787TIP3    H2 5307   6.635   4.270   4.502
 1788TIP3   OH2 5308   7.080   5.394   4.370
 1788TIP3    H1 5309   7.000   5.385   4.320
 1788TIP3    H2 5310   7.121   5.308   4.365
 1789TIP3   OH2 5311   4.869   3.208   5.338
 1789TIP3    H1 5312   4.869   3.303   5.349
 1789TIP3    H2 5313   4.782   3.181   5.368
 1790TIP3   OH2 5314   5.612   4.159   1.391
 1790TIP3    H1 5315   5.613   4.254   1.379
 1790TIP3    H2 5316   5.698   4.138   1.428
 1791TIP3   OH2 5317   3.444   5.550   3.783
 1791TIP3    H1 5318   3.509   5.496   3.739
 1791TIP3    H2 5319   3.421   5.617   3.719
 1792TIP3   OH2 5320   0.868   0.065   0.850
 1792TIP3    H1 5321   0.942   0.005   0.863
 1792TIP3    H2 5322   0.902   0.151   0.875
 1793TIP3   OH2 5323   2.820   1.469   0.596
 1793TIP3    H1 5324   2.905   1.476   0.642
 1793TIP3    H2 5325   2.825   1.536   0.528
 1794TIP3   OH2 5326   0.941   7.236   2.781
 1794TIP3    H1 5327   0.987   7.175   2.722
 1794TIP3    H2 5328   0.969   7.210   2.868
 1795TIP3   OH2 5329   7.502   6.857   1.436
 1795TIP3    H1 5330   7.541   6.850   1.523
 1795TIP3    H2 5331   7.416   6.896   1.453
 1796TIP3   OH2 5332   5.420   7.111   5.780
 1796TIP3    H1 5333   5.423   7.047   5.851
 1796TIP3    H2 5334   5.486   7.176   5.804
 1797TIP3   OH2 5335   1.831   1.147   1.225
 1797TIP3    H1 5336   1.891   1.185   1.290
 1797TIP3    H2 5337   1.860   1.056   1.216
 1798TIP3   OH2 5338   1.730   2.016   2.217
 1798TIP3    H1 5339   1.691   1.930   2.203
 1798TIP3    H2 5340   1.727   2.058   2.131
 1799TIP3   OH2 5341   6.523   1.048   3.975
 1799TIP3    H1 5342   6.573   1.013   4.048
 1799TIP3    H2 5343   6.444   0.993   3.971
 1800TIP3   OH2 5344   3.835   6.534   1.853
 1800TIP3    H1 5345   3.821   6.610   1.797
 1800TIP3    H2 5346   3.929   6.516   1.845
 1801TIP3   OH2 5347   3.690   1.962   6.696
 1801TIP3    H1 5348   3.689   2.057   6.706
 1801TIP3    H2 5349   3.773   1.935   6.735
 1802TIP3   OH2 5350   0.525   7.517   1.301
 1802TIP3    H1 5351   0.431   7.526   1.290
 1802TIP3    H2 5352   0.562   7.592   1.254
 1803TIP3   OH2 5353   1.276   7.388   4.466
 1803TIP3    H1 5354   1.211   7.326   4.433
 1803TIP3    H2 5355   1.257   7.469   4.419
 1804TIP3   OH2 5356   2.116   5.373   1.860
 1804TIP3    H1 5357   2.114   5.463   1.826
 1804TIP3    H2 5358   2.209   5.351   1.862
 1805TIP3   OH2 5359   4.738   1.047   2.728
 1805TIP3    H1 5360   4.746   1.035   2.823
 1805TIP3    H2 5361   4.659   1.099   2.717
 1806TIP3   OH2 5362   7.694   3.523   5.634
 1806TIP3    H1 5363   7.721   3.432   5.624
 1806TIP3    H2 5364   7.695   3.557   5.544
 1807TIP3   OH2 5365   5.504   4.512   6.610
 1807TIP3    H1 5366   5.428   4.461   6.639
 1807TIP3    H2 5367   5.556   4.525   6.690
 1808TIP3   OH2 5368   0.090   5.413   5.664
 1808TIP3    H1 5369   0.059   5.470   5.735
 1808TIP3    H2 5370   0.145   5.348   5.708
 1809TIP3   OH2 5371   7.471   0.632   4.291
 1809TIP3    H1 5372   7.466   0.705   4.230
 1809TIP3    H2 5373   7.397   0.576   4.268
 1810TIP3   OH2 5374   2.141   7.200   0.329
 1810TIP3    H1 5375   2.082   7.237   0.395
 1810TIP3    H2 5376   2.082   7.172   0.259
 1811TIP3   OH2 5377   3.394   3.412   5.825
 1811TIP3    H1 5378   3.426   3.411   5.915
 1811TIP3    H2 5379   3.376   3.321   5.804
 1812TIP3   OH2 5380   3.218   3.212   2.718
 1812TIP3    H1 5381   3.310   3.239   2.720
 1812TIP3    H2 5382   3.179   3.253   2.795
 1813TIP3   OH2 5383   0.107   2.485   5.459
 1813TIP3    H1 5384   0.177   2.547   5.439
 1813TIP3    H2 5385   0.112   2.473   5.554
 1814TIP3   OH2 5386   4.136   3.368   5.766
 1814TIP3    H1 5387   4.198   3.295   5.766
 1814TIP3    H2 5388   4.186   3.441   5.804
 1815TIP3   OH2 5389   5.584   6.645   6.005
 1815TIP3    H1 5390   5.666   6.608   6.037
 1815TIP3    H2 5391   5.521   6.630   6.076
 1816TIP3   OH2 5392   8.045   3.651   2.128
 1816TIP3    H1 5393   7.976   3.672   2.065
 1816TIP3    H2 5394   8.001   3.650   2.212
 1817TIP3   OH2 5395   3.077   0.210   3.460
 1817TIP3    H1 5396   3.043   0.227   3.548
 1817TIP3    H2 5397   3.022   0.263   3.403
 1818TIP3   OH2 5398   0.636   0.036   4.794
 1818TIP3    H1 5399   0.604   0.106   4.738
 1818TIP3    H2 5400   0.710   0.075   4.841
 1819TIP3   OH2 5401   7.749   6.835   3.568
 1819TIP3    H1 5402   7.812   6.763   3.567
 1819TIP3    H2 5403   7.803   6.914   3.560
 1820TIP3   OH2 5404   1.404   4.757   4.370
 1820TIP3    H1 5405   1.486   4.807   4.365
 1820TIP3    H2 5406   1.371   4.756   4.280
 1821TIP3   OH2 5407   7.858   1.474   3.708
 1821TIP3    H1 5408   7.802   1.396   3.708
 1821TIP3    H2 5409   7.942   1.442   3.740
 1822TIP3   OH2 5410   6.548   6.944   6.399
 1822TIP3    H1 5411   6.583   6.897   6.324
 1822TIP3    H2 5412   6.506   6.877   6.452
 1823TIP3   OH2 5413   5.466   0.550   6.291
 1823TIP3    H1 5414   5.371   0.537   6.299
 1823TIP3    H2 5415   5.504   0.464   6.311
 1824TIP3   OH2 5416   5.240   7.398   1.698
 1824TIP3    H1 5417   5.186   7.448   1.760
 1824TIP3    H2 5418   5.193   7.316   1.687
 1825TIP3   OH2 5419   7.878   6.600   3.439
 1825TIP3    H1 5420   7.871   6.614   3.344
 1825TIP3    H2 5421   7.787   6.590   3.468
 1826TIP3   OH2 5422   0.630   0.417   0.150
 1826TIP3    H1 5423   0.541   0.383   0.159
 1826TIP3    H2 5424   0.620   0.512   0.146
 1827TIP3   OH2 5425   4.372   5.980   5.901
 1827TIP3    H1 5426   4.399   5.993   5.992
 1827TIP3    H2 5427   4.341   6.066   5.874
 1828TIP3   OH2 5428   5.928   6.453   3.561
 1828TIP3    H1 5429   5.911   6.544   3.537
 1828TIP3    H2 5430   5.946   6.457   3.655
 1829TIP3   OH2 5431   5.505   6.283   0.581
 1829TIP3    H1 5432   5.578   6.268   0.641
 1829TIP3    H2 5433   5.436   6.320   0.636
 1830TIP3   OH2 5434   6.400   7.354   5.683
 1830TIP3    H1 5435   6.403   7.356   5.779
 1830TIP3    H2 5436   6.411   7.446   5.657
 1831TIP3   OH2 5437   7.323   7.751   3.472
 1831TIP3    H1 5438   7.397   7.810   3.486
 1831TIP3    H2 5439   7.246   7.801   3.497
 1832TIP3   OH2 5440   4.746   6.247   1.335
 1832TIP3    H1 5441   4.651   6.242   1.343
 1832TIP3    H2 5442   4.776   6.286   1.417
 1833TIP3   OH2 5443   7.443   2.566   2.328
 1833TIP3    H1 5444   7.416   2.638   2.271
 1833TIP3    H2 5445   7.465   2.608   2.411
 1834TIP3   OH2 5446   1.629   2.489   2.279
 1834TIP3    H1 5447   1.686   2.473   2.354
 1834TIP3    H2 5448   1.638   2.583   2.262
 1835TIP3   OH2 5449   0.045   3.600   0.085
 1835TIP3    H1 5450  -0.025   3.551   0.129
 1835TIP3    H2 5451   0.067   3.670   0.146
 1836TIP3   OH2 5452   6.187   5.663   1.359
 1836TIP3    H1 5453   6.170   5.595   1.424
 1836TIP3    H2 5454   6.275   5.694   1.379
 1837TIP3   OH2 5455   7.555   5.573   4.782
 1837TIP3    H1 5456   7.495   5.510   4.743
 1837TIP3    H2 5457   7.502   5.623   4.844
 1838TIP3   OH2 5458   5.794   4.604   4.284
 1838TIP3    H1 5459   5.756   4.529   4.331
 1838TIP3    H2 5460   5.729   4.673   4.295
 1839TIP3   OH2 5461   2.691   2.428   1.474
 1839TIP3    H1 5462   2.670   2.433   1.567
 1839TIP3    H2 5463   2.773   2.478   1.466
 1840TIP3   OH2 5464   1.993   5.898   1.694
 1840TIP3    H1 5465   2.053   5.932   1.759
 1840TIP3    H2 5466   2.044   5.893   1.613
 1841TIP3   OH2 5467   7.923   3.254   1.735
 1841TIP3    H1 5468   7.974   3.295   1.805
 1841TIP3    H2 5469   7.988   3.215   1.677
 1842TIP3   OH2 5470   7.916   4.088   4.992
 1842TIP3    H1 5471   7.881   4.173   5.021
 1842TIP3    H2 5472   7.838   4.039   4.966
 1843TIP3   OH2 5473   4.801   4.713   2.460
 1843TIP3    H1 5474   4.722   4.740   2.414
 1843TIP3    H2 5475   4.844   4.652   2.400
 1844TIP3   OH2 5476   8.152   4.633   3.602
 1844TIP3    H1 5477   8.174   4.723   3.625
 1844TIP3    H2 5478   8.231   4.583   3.624
 1845TIP3   OH2 5479   0.915   1.040   0.687
 1845TIP3    H1 5480   0.928   0.955   0.646
 1845TIP3    H2 5481   0.823   1.062   0.669
 1846TIP3   OH2 5482  -0.001   2.968   4.856
 1846TIP3    H1 5483   0.066   2.929   4.911
 1846TIP3    H2 5484  -0.026   2.898   4.795
 1847TIP3   OH2 5485   4.440   4.363   2.156
 1847TIP3    H1 5486   4.478   4.328   2.076
 1847TIP3    H2 5487   4.367   4.303   2.176
 1848TIP3   OH2 5488   4.341   1.682   6.388
 1848TIP3    H1 5489   4.270   1.745   6.398
 1848TIP3    H2 5490   4.332   1.624   6.463
 1849TIP3   OH2 5491   3.876   6.993   4.630
 1849TIP3    H1 5492   3.864   6.970   4.538
 1849TIP3    H2 5493   3.811   6.940   4.676
 1850TIP3   OH2 5494   6.795   0.607   4.147
 1850TIP3    H1 5495   6.700   0.598   4.137
 1850TIP3    H2 5496   6.810   0.597   4.241
 1851TIP3   OH2 5497   0.486   4.031   2.326
 1851TIP3    H1 5498   0.536   3.950   2.316
 1851TIP3    H2 5499   0.551   4.101   2.316
 1852TIP3   OH2 5500   2.660   4.572   1.888
 1852TIP3    H1 5501   2.600   4.549   1.817
 1852TIP3    H2 5502   2.721   4.498   1.893
 1853TIP3   OH2 5503   5.912   5.156   2.571
 1853TIP3    H1 5504   5.901   5.209   2.650
 1853TIP3    H2 5505   5.982   5.199   2.522
 1854TIP3   OH2 5506   0.454   3.353   2.490
 1854TIP3    H1 5507   0.426   3.406   2.565
 1854TIP3    H2 5508   0.379   3.297   2.471
 1855TIP3   OH2 5509   6.022   7.142   6.489
 1855TIP3    H1 5510   5.943   7.091   6.508
 1855TIP3    H2 5511   5.993   7.233   6.493
 1856TIP3   OH2 5512   0.081   4.615   1.764
 1856TIP3    H1 5513   0.076   4.675   1.838
 1856TIP3    H2 5514   0.037   4.536   1.795
 1857TIP3   OH2 5515   1.953   2.619   0.531
 1857TIP3    H1 5516   2.026   2.617   0.470
 1857TIP3    H2 5517   1.991   2.598   0.616
 1858TIP3   OH2 5518   6.842   7.387   1.159
 1858TIP3    H1 5519   6.796   7.392   1.075
 1858TIP3    H2 5520   6.845   7.294   1.180
 1859TIP3   OH2 5521   2.279   0.810   5.838
 1859TIP3    H1 5522   2.320   0.801   5.924
 1859TIP3    H2 5523   2.185   0.805   5.856
 1860TIP3   OH2 5524   1.593   2.056   0.182
 1860TIP3    H1 5525   1.498   2.044   0.186
 1860TIP3    H2 5526   1.608   2.144   0.216
 1861TIP3   OH2 5527   4.330   2.676   5.097
 1861TIP3    H1 5528   4.338   2.583   5.077
 1861TIP3    H2 5529   4.377   2.687   5.179
 1862TIP3   OH2 5530   0.545   6.466   5.450
 1862TIP3    H1 5531   0.483   6.531   5.480
 1862TIP3    H2 5532   0.524   6.387   5.500
 1863TIP3   OH2 5533   7.017   7.495   0.926
 1863TIP3    H1 5534   7.034   7.450   0.843
 1863TIP3    H2 5535   7.096   7.478   0.978
 1864TIP3   OH2 5536   6.056   5.769   3.221
 1864TIP3    H1 5537   5.985   5.829   3.199
 1864TIP3    H2 5538   6.135   5.822   3.211
 1865TIP3   OH2 5539   3.039   5.966   2.468
 1865TIP3    H1 5540   3.039   6.053   2.508
 1865TIP3    H2 5541   3.002   5.980   2.380
 1866TIP3   OH2 5542   3.676   4.741   1.552
 1866TIP3    H1 5543   3.731   4.807   1.595
 1866TIP3    H2 5544   3.713   4.657   1.580
 1867TIP3   OH2 5545   5.534   0.318   4.519
 1867TIP3    H1 5546   5.512   0.393   4.574
 1867TIP3    H2 5547   5.630   0.315   4.522
 1868TIP3   OH2 5548   7.782   5.045   3.853
 1868TIP3    H1 5549   7.715   5.027   3.787
 1868TIP3    H2 5550   7.772   4.975   3.917
 1869TIP3   OH2 5551   6.619   2.953   6.031
 1869TIP3    H1 5552   6.694   2.975   5.975
 1869TIP3    H2 5553   6.652   2.884   6.089
 1870TIP3   OH2 5554   8.032   1.075   3.446
 1870TIP3    H1 5555   8.095   1.146   3.434
 1870TIP3    H2 5556   8.085   1.000   3.473
 1871TIP3   OH2 5557   3.476   2.140   6.196
 1871TIP3    H1 5558   3.514   2.085   6.127
 1871TIP3    H2 5559   3.526   2.221   6.192
 1872TIP3   OH2 5560   7.381   6.020   1.481
 1872TIP3    H1 5561   7.310   6.081   1.462
 1872TIP3    H2 5562   7.454   6.077   1.509
 1873TIP3   OH2 5563   1.519   4.965   1.241
 1873TIP3    H1 5564   1.602   4.993   1.202
 1873TIP3    H2 5565   1.522   4.870   1.237
 1874TIP3   OH2 5566   6.071   1.533   0.650
 1874TIP3    H1 5567   5.979   1.510   0.652
 1874TIP3    H2 5568   6.077   1.603   0.585
 1875TIP3   OH2 5569   3.065   1.695   5.195
 1875TIP3    H1 5570   3.001   1.764   5.173
 1875TIP3    H2 5571   3.022   1.614   5.168
 1876TIP3   OH2 5572   1.132   5.833   1.278
 1876TIP3    H1 5573   1.141   5.792   1.192
 1876TIP3    H2 5574   1.048   5.879   1.274
 1877TIP3   OH2 5575   0.493   0.650   0.468
 1877TIP3    H1 5576   0.408   0.649   0.423
 1877TIP3    H2 5577   0.485   0.582   0.535
 1878TIP3   OH2 5578   3.333   7.507   2.645
 1878TIP3    H1 5579   3.246   7.518   2.684
 1878TIP3    H2 5580   3.323   7.535   2.554
 1879TIP3   OH2 5581   6.064   3.872   5.958
 1879TIP3    H1 5582   6.060   3.833   5.871
 1879TIP3    H2 5583   6.019   3.955   5.950
 1880TIP3   OH2 5584   5.301   6.537   3.801
 1880TIP3    H1 5585   5.374   6.535   3.863
 1880TIP3    H2 5586   5.272   6.628   3.802
 1881TIP3   OH2 5587   4.835   3.895   2.415
 1881TIP3    H1 5588   4.789   3.932   2.490
 1881TIP3    H2 5589   4.808   3.803   2.413
 1882TIP3   OH2 5590   4.447   2.120   5.491
 1882TIP3    H1 5591   4.490   2.076   5.564
 1882TIP3    H2 5592   4.395   2.189   5.532
 1883TIP3   OH2 5593   4.198   0.614   2.695
 1883TIP3    H1 5594   4.145   0.673   2.749
 1883TIP3    H2 5595   4.248   0.562   2.758
 1884TIP3   OH2 5596   2.855   5.996   3.279
 1884TIP3    H1 5597   2.826   5.933   3.345
 1884TIP3    H2 5598   2.950   5.991   3.282
 1885TIP3   OH2 5599   3.922   1.208   6.202
 1885TIP3    H1 5600   3.837   1.204   6.159
 1885TIP3    H2 5601   3.985   1.205   6.130
 1886TIP3   OH2 5602   6.243   1.679   5.275
 1886TIP3    H1 5603   6.260   1.631   5.357
 1886TIP3    H2 5604   6.323   1.730   5.260
 1887TIP3   OH2 5605   1.668   2.320   3.044
 1887TIP3    H1 5606   1.656   2.226   3.036
 1887TIP3    H2 5607   1.580   2.355   3.059
 1888TIP3   OH2 5608   3.803   7.263   2.956
 1888TIP3    H1 5609   3.716   7.302   2.945
 1888TIP3    H2 5610   3.823   7.276   3.048
 1889TIP3   OH2 5611   4.518   6.401   5.388
 1889TIP3    H1 5612   4.535   6.494   5.403
 1889TIP3    H2 5613   4.437   6.399   5.337
 1890TIP3   OH2 5614   1.663   4.510   5.773
 1890TIP3    H1 5615   1.660   4.420   5.741
 1890TIP3    H2 5616   1.632   4.563   5.699
 1891TIP3   OH2 5617   2.645   3.730   2.543
 1891TIP3    H1 5618   2.616   3.641   2.524
 1891TIP3    H2 5619   2.658   3.770   2.457
 1892TIP3   OH2 5620   5.480   4.139   0.238
 1892TIP3    H1 5621   5.570   4.107   0.230
 1892TIP3    H2 5622   5.462   4.137   0.332
 1893TIP3   OH2 5623   3.608   2.251   0.863
 1893TIP3    H1 5624   3.551   2.317   0.823
 1893TIP3    H2 5625   3.548   2.194   0.912
 1894TIP3   OH2 5626   5.748   2.215   2.969
 1894TIP3    H1 5627   5.806   2.176   3.034
 1894TIP3    H2 5628   5.728   2.143   2.909
 1895TIP3   OH2 5629   0.247   2.003   5.894
 1895TIP3    H1 5630   0.166   1.988   5.845
 1895TIP3    H2 5631   0.316   1.969   5.837
 1896TIP3   OH2 5632   0.493   1.211   0.643
 1896TIP3    H1 5633   0.456   1.239   0.727
 1896TIP3    H2 5634   0.492   1.116   0.646
 1897TIP3   OH2 5635   4.998   0.325   0.331
 1897TIP3    H1 5636   4.902   0.324   0.326
 1897TIP3    H2 5637   5.025   0.377   0.256
 1898TIP3   OH2 5638   3.614   5.599   2.064
 1898TIP3    H1 5639   3.552   5.624   2.132
 1898TIP3    H2 5640   3.561   5.593   1.984
 1899TIP3   OH2 5641   7.050   5.251   2.250
 1899TIP3    H1 5642   7.032   5.326   2.193
 1899TIP3    H2 5643   6.989   5.260   2.322
 1900TIP3   OH2 5644   2.174   3.990   1.579
 1900TIP3    H1 5645   2.229   3.993   1.657
 1900TIP3    H2 5646   2.103   4.051   1.597
 1901TIP3   OH2 5647   0.224   4.128   5.385
 1901TIP3    H1 5648   0.213   4.038   5.416
 1901TIP3    H2 5649   0.263   4.119   5.298
 1902TIP3   OH2 5650   6.336   1.114   4.584
 1902TIP3    H1 5651   6.277   1.046   4.550
 1902TIP3    H2 5652   6.347   1.175   4.511
 1903TIP3   OH2 5653   7.871   5.970   1.975
 1903TIP3    H1 5654   7.803   5.907   1.954
 1903TIP3    H2 5655   7.824   6.051   1.997
 1904TIP3   OH2 5656   4.752   1.602   0.797
 1904TIP3    H1 5657   4.775   1.667   0.730
 1904TIP3    H2 5658   4.656   1.600   0.795
 1905TIP3   OH2 5659   7.502   4.139   2.173
 1905TIP3    H1 5660   7.495   4.230   2.202
 1905TIP3    H2 5661   7.484   4.088   2.251
 1906TIP3   OH2 5662   4.757   6.521   6.648
 1906TIP3    H1 5663   4.826   6.525   6.581
 1906TIP3    H2 5664   4.805   6.525   6.731
 1907TIP3   OH2 5665   4.569   4.070   4.171
 1907TIP3    H1 5666   4.612   4.123   4.238
 1907TIP3    H2 5667   4.477   4.098   4.173
 1908TIP3   OH2 5668   0.447   3.114   3.640
 1908TIP3    H1 5669   0.427   3.127   3.547
 1908TIP3    H2 5670   0.496   3.032   3.643
 1909TIP3   OH2 5671   2.612   4.926   4.049
 1909TIP3    H1 5672   2.540   4.877   4.089
 1909TIP3    H2 5673   2.678   4.934   4.119
 1910TIP3   OH2 5674   1.928   7.546   6.624
 1910TIP3    H1 5675   1.836   7.570   6.622
 1910TIP3    H2 5676   1.974   7.625   6.596
 1911TIP3   OH2 5677   3.916   1.354   4.521
 1911TIP3    H1 5678   4.004   1.356   4.558
 1911TIP3    H2 5679   3.929   1.339   4.427
 1912TIP3   OH2 5680   3.069   4.389   3.501
 1912TIP3    H1 5681   3.132   4.451   3.540
 1912TIP3    H2 5682   3.078   4.404   3.407
 1913TIP3   OH2 5683   1.355   6.805   3.723
 1913TIP3    H1 5684   1.313   6.824   3.807
 1913TIP3    H2 5685   1.390   6.890   3.694
 1914TIP3   OH2 5686   5.699   2.293   3.303
 1914TIP3    H1 5687   5.719   2.202   3.323
 1914TIP3    H2 5688   5.634   2.289   3.233
 1915TIP3   OH2 5689   6.908   4.422   2.455
 1915TIP3    H1 5690   6.906   4.516   2.474
 1915TIP3    H2 5691   6.834   4.409   2.395
 1916TIP3   OH2 5692   7.289   6.052   1.752
 1916TIP3    H1 5693   7.203   6.095   1.749
 1916TIP3    H2 5694   7.296   6.006   1.669
 1917TIP3   OH2 5695   2.265   2.751   5.695
 1917TIP3    H1 5696   2.333   2.762   5.761
 1917TIP3    H2 5697   2.299   2.799   5.619
 1918TIP3   OH2 5698   4.711   0.598   0.190
 1918TIP3    H1 5699   4.780   0.627   0.130
 1918TIP3    H2 5700   4.640   0.570   0.133
 1919TIP3   OH2 5701   7.097   3.406   5.840
 1919TIP3    H1 5702   7.078   3.437   5.929
 1919TIP3    H2 5703   7.151   3.474   5.801
 1920TIP3   OH2 5704   2.320   6.728   0.558
 1920TIP3    H1 5705   2.382   6.719   0.485
 1920TIP3    H2 5706   2.345   6.811   0.599
 1921TIP3   OH2 5707   8.141   5.191   6.169
 1921TIP3    H1 5708   8.089   5.204   6.090
 1921TIP3    H2 5709   8.123   5.268   6.223
 1922TIP3   OH2 5710   7.624   7.027   5.528
 1922TIP3    H1 5711   7.615   7.092   5.458
 1922TIP3    H2 5712   7.534   7.002   5.550
 1923TIP3   OH2 5713   4.600   2.827   6.269
 1923TIP3    H1 5714   4.668   2.839   6.335
 1923TIP3    H2 5715   4.607   2.904   6.213
 1924TIP3   OH2 5716   1.230   0.588   6.473
 1924TIP3    H1 5717   1.227   0.514   6.413
 1924TIP3    H2 5718   1.140   0.598   6.505
 1925TIP3   OH2 5719   3.129   1.591   1.290
 1925TIP3    H1 5720   3.136   1.527   1.219
 1925TIP3    H2 5721   3.126   1.538   1.370
 1926TIP3   OH2 5722   1.838   0.616   4.302
 1926TIP3    H1 5723   1.930   0.638   4.316
 1926TIP3    H2 5724   1.823   0.630   4.209
 1927TIP3   OH2 5725   8.193   0.861   0.237
 1927TIP3    H1 5726   8.119   0.810   0.267
 1927TIP3    H2 5727   8.157   0.949   0.223
 1928TIP3   OH2 5728   5.550   7.282   5.001
 1928TIP3    H1 5729   5.509   7.331   5.072
 1928TIP3    H2 5730   5.630   7.331   4.982
 1929TIP3   OH2 5731   3.746   1.467   6.675
 1929TIP3    H1 5732   3.746   1.405   6.749
 1929TIP3    H2 5733   3.756   1.411   6.598
 1930TIP3   OH2 5734   7.078   2.029   5.054
 1930TIP3    H1 5735   7.110   1.942   5.031
 1930TIP3    H2 5736   7.028   2.016   5.135
 1931TIP3   OH2 5737   1.447   7.582   5.451
 1931TIP3    H1 5738   1.436   7.511   5.514
 1931TIP3    H2 5739   1.370   7.576   5.394
 1932TIP3   OH2 5740   3.300   5.809   0.626
 1932TIP3    H1 5741   3.293   5.764   0.542
 1932TIP3    H2 5742   3.377   5.865   0.616
 1933TIP3   OH2 5743   6.729   4.132   1.389
 1933TIP3    H1 5744   6.712   4.110   1.297
 1933TIP3    H2 5745   6.644   4.129   1.431
 1934TIP3   OH2 5746   5.099   4.927   3.837
 1934TIP3    H1 5747   5.046   4.980   3.777
 1934TIP3    H2 5748   5.086   4.837   3.807
 1935TIP3   OH2 5749   3.701   7.604   0.608
 1935TIP3    H1 5750   3.613   7.627   0.579
 1935TIP3    H2 5751   3.744   7.570   0.530
 1936TIP3   OH2 5752   2.042   3.040   2.344
 1936TIP3    H1 5753   2.024   3.113   2.403
 1936TIP3    H2 5754   2.000   3.064   2.261
 1937TIP3   OH2 5755   7.388   3.677   1.214
 1937TIP3    H1 5756   7.376   3.673   1.309
 1937TIP3    H2 5757   7.470   3.631   1.198
 1938TIP3   OH2 5758   6.675   4.995   4.086
 1938TIP3    H1 5759   6.632   4.928   4.138
 1938TIP3    H2 5760   6.744   4.949   4.038
 1939TIP3   OH2 5761   6.111   1.384   6.429
 1939TIP3    H1 5762   6.077   1.369   6.341
 1939TIP3    H2 5763   6.062   1.460   6.461
 1940TIP3   OH2 5764   1.299   3.896   6.331
 1940TIP3    H1 5765   1.307   3.905   6.426
 1940TIP3    H2 5766   1.309   3.802   6.315
 1941TIP3   OH2 5767   4.864   3.918   6.617
 1941TIP3    H1 5768   4.829   3.830   6.623
 1941TIP3    H2 5769   4.937   3.910   6.555
 1942TIP3   OH2 5770   5.618   0.160   2.294
 1942TIP3    H1 5771   5.546   0.097   2.302
 1942TIP3    H2 5772   5.576   0.243   2.275
 1943TIP3   OH2 5773   3.893   3.612   6.326
 1943TIP3    H1 5774   3.879   3.531   6.278
 1943TIP3    H2 5775   3.896   3.680   6.259
 1944TIP3   OH2 5776   3.683   0.555   2.606
 1944TIP3    H1 5777   3.629   0.635   2.604
 1944TIP3    H2 5778   3.643   0.497   2.541
 1945TIP3   OH2 5779   3.442   3.056   5.573
 1945TIP3    H1 5780   3.479   2.975   5.538
 1945TIP3    H2 5781   3.362   3.070   5.523
 1946TIP3   OH2 5782   4.183   4.241   5.259
 1946TIP3    H1 5783   4.133   4.292   5.322
 1946TIP3    H2 5784   4.273   4.244   5.292
 1947TIP3   OH2 5785   1.511   5.351   1.748
 1947TIP3    H1 5786   1.560   5.293   1.690
 1947TIP3    H2 5787   1.466   5.292   1.809
 1948TIP3   OH2 5788   4.313   2.486   3.275
 1948TIP3    H1 5789   4.218   2.496   3.278
 1948TIP3    H2 5790   4.330   2.441   3.192
 1949TIP3   OH2 5791   8.249   6.239   6.627
 1949TIP3    H1 5792   8.167   6.273   6.590
 1949TIP3    H2 5793   8.288   6.189   6.555
 1950TIP3   OH2 5794   4.835   2.436   5.000
 1950TIP3    H1 5795   4.862   2.474   4.916
 1950TIP3    H2 5796   4.912   2.391   5.032
 1951TIP3   OH2 5797   4.078   5.869   6.776
 1951TIP3    H1 5798   4.048   5.959   6.791
 1951TIP3    H2 5799   4.080   5.861   6.680
 1952TIP3   OH2 5800   1.502   6.086   4.797
 1952TIP3    H1 5801   1.456   6.107   4.879
 1952TIP3    H2 5802   1.586   6.049   4.826
 1953TIP3   OH2 5803   0.261   4.664   0.077
 1953TIP3    H1 5804   0.210   4.617   0.010
 1953TIP3    H2 5805   0.200   4.729   0.112
 1954TIP3   OH2 5806   3.613   7.278   5.430
 1954TIP3    H1 5807   3.704   7.272   5.461
 1954TIP3    H2 5808   3.563   7.224   5.492
 1955TIP3   OH2 5809   2.760   2.820   4.580
 1955TIP3    H1 5810   2.698   2.795   4.648
 1955TIP3    H2 5811   2.762   2.916   4.583
 1956TIP3   OH2 5812   6.534   3.365   1.845
 1956TIP3    H1 5813   6.620   3.401   1.823
 1956TIP3    H2 5814   6.473   3.416   1.792
 1957TIP3   OH2 5815   5.730   2.833   6.613
 1957TIP3    H1 5816   5.752   2.741   6.624
 1957TIP3    H2 5817   5.774   2.859   6.532
 1958TIP3   OH2 5818   1.779   4.862   1.554
 1958TIP3    H1 5819   1.685   4.841   1.556
 1958TIP3    H2 5820   1.809   4.828   1.470
 1959TIP3   OH2 5821   5.887   3.442   2.058
 1959TIP3    H1 5822   5.804   3.451   2.104
 1959TIP3    H2 5823   5.875   3.365   2.002
 1960TIP3   OH2 5824   5.854   3.719   0.057
 1960TIP3    H1 5825   5.885   3.636   0.093
 1960TIP3    H2 5826   5.927   3.752   0.005
 1961TIP3   OH2 5827   6.766   3.276   0.847
 1961TIP3    H1 5828   6.673   3.281   0.823
 1961TIP3    H2 5829   6.804   3.357   0.815
 1962TIP3   OH2 5830   6.967   4.037   0.348
 1962TIP3    H1 5831   7.058   4.028   0.322
 1962TIP3    H2 5832   6.920   4.055   0.266
 1963TIP3   OH2 5833   6.843   5.420   1.706
 1963TIP3    H1 5834   6.810   5.401   1.619
 1963TIP3    H2 5835   6.813   5.347   1.760
 1964TIP3   OH2 5836   3.662   5.470   1.149
 1964TIP3    H1 5837   3.619   5.510   1.074
 1964TIP3    H2 5838   3.600   5.403   1.179
 1965TIP3   OH2 5839   1.771   1.437   0.082
 1965TIP3    H1 5840   1.814   1.467   0.002
 1965TIP3    H2 5841   1.820   1.359   0.108
 1966TIP3   OH2 5842   6.193   4.561   0.744
 1966TIP3    H1 5843   6.270   4.513   0.713
 1966TIP3    H2 5844   6.188   4.638   0.687
 1967TIP3   OH2 5845   1.081   6.015   5.130
 1967TIP3    H1 5846   1.097   5.925   5.099
 1967TIP3    H2 5847   1.012   6.006   5.195
 1968TIP3   OH2 5848   8.103   2.869   2.975
 1968TIP3    H1 5849   8.029   2.927   2.995
 1968TIP3    H2 5850   8.105   2.807   3.048
 1969TIP3   OH2 5851   7.416   3.101   1.879
 1969TIP3    H1 5852   7.469   3.109   1.800
 1969TIP3    H2 5853   7.462   3.155   1.944
 1970TIP3   OH2 5854   4.024   6.565   1.048
 1970TIP3    H1 5855   4.011   6.615   0.968
 1970TIP3    H2 5856   4.071   6.624   1.106
 1971TIP3   OH2 5857   3.006   3.807   6.113
 1971TIP3    H1 5858   2.941   3.803   6.183
 1971TIP3    H2 5859   2.967   3.865   6.048
 1972TIP3   OH2 5860   6.260   2.002   0.808
 1972TIP3    H1 5861   6.199   2.002   0.734
 1972TIP3    H2 5862   6.204   2.010   0.885
 1973TIP3   OH2 5863   3.881   6.037   2.402
 1973TIP3    H1 5864   3.927   6.121   2.389
 1973TIP3    H2 5865   3.794   6.052   2.366
 1974TIP3   OH2 5866   5.072   3.703   0.093
 1974TIP3    H1 5867   5.023   3.681   0.172
 1974TIP3    H2 5868   5.127   3.777   0.119
 1975TIP3   OH2 5869   4.269   7.061   0.004
 1975TIP3    H1 5870   4.287   7.044   0.097
 1975TIP3    H2 5871   4.245   7.153   0.000
 1976TIP3   OH2 5872   6.551   3.945   4.889
 1976TIP3    H1 5873   6.646   3.954   4.900
 1976TIP3    H2 5874   6.518   4.035   4.891
 1977TIP3   OH2 5875   4.169   1.949   1.424
 1977TIP3    H1 5876   4.079   1.923   1.444
 1977TIP3    H2 5877   4.195   2.006   1.497
 1978TIP3   OH2 5878   7.365   1.668   0.368
 1978TIP3    H1 5879   7.323   1.656   0.453
 1978TIP3    H2 5880   7.386   1.579   0.339
 1979TIP3   OH2 5881   4.951   0.705   6.578
 1979TIP3    H1 5882   4.861   0.739   6.587
 1979TIP3    H2 5883   4.941   0.628   6.522
 1980TIP3   OH2 5884   3.320   3.559   5.098
 1980TIP3    H1 5885   3.339   3.465   5.091
 1980TIP3    H2 5886   3.320   3.576   5.192
 1981TIP3   OH2 5887   5.701   4.541   0.248
 1981TIP3    H1 5888   5.631   4.596   0.212
 1981TIP3    H2 5889   5.736   4.496   0.172
 1982TIP3   OH2 5890   3.165   7.201   4.727
 1982TIP3    H1 5891   3.224   7.276   4.734
 1982TIP3    H2 5892   3.213   7.137   4.675
 1983TIP3   OH2 5893   0.646   4.713   2.201
 1983TIP3    H1 5894   0.702   4.707   2.279
 1983TIP3    H2 5895   0.559   4.689   2.233
 1984TIP3   OH2 5896   6.085   0.524   4.481
 1984TIP3    H1 5897   6.055   0.598   4.428
 1984TIP3    H2 5898   6.145   0.562   4.544
 1985TIP3   OH2 5899   3.670   2.082   3.670
 1985TIP3    H1 5900   3.605   2.023   3.633
 1985TIP3    H2 5901   3.725   2.027   3.726
 1986TIP3   OH2 5902   6.745   0.163   6.198
 1986TIP3    H1 5903   6.819   0.117   6.160
 1986TIP3    H2 5904   6.669   0.133   6.147
 1987TIP3   OH2 5905   5.514   0.733   3.427
 1987TIP3    H1 5906   5.440   0.706   3.372
 1987TIP3    H2 5907   5.496   0.824   3.449
 1988TIP3   OH2 5908   1.953   0.093   5.465
 1988TIP3    H1 5909   1.951   0.038   5.386
 1988TIP3    H2 5910   1.863   0.123   5.475
 1989TIP3   OH2 5911   6.654   2.140   6.365
 1989TIP3    H1 5912   6.582   2.183   6.410
 1989TIP3    H2 5913   6.681   2.069   6.423
 1990TIP3   OH2 5914   3.125   2.439   4.588
 1990TIP3    H1 5915   3.185   2.513   4.590
 1990TIP3    H2 5916   3.107   2.425   4.495
 1991TIP3   OH2 5917   7.441   1.110   6.167
 1991TIP3    H1 5918   7.516   1.151   6.212
 1991TIP3    H2 5919   7.420   1.170   6.096
 1992TIP3   OH2 5920   1.993   7.731   2.530
 1992TIP3    H1 5921   2.042   7.707   2.609
 1992TIP3    H2 5922   1.955   7.648   2.499
 1993TIP3   OH2 5923   7.078   3.865   2.423
 1993TIP3    H1 5924   6.995   3.877   2.377
 1993TIP3    H2 5925   7.105   3.954   2.447
 1994TIP3   OH2 5926   1.407   5.142   1.942
 1994TIP3    H1 5927   1.502   5.130   1.954
 1994TIP3    H2 5928   1.380   5.064   1.893
 1995TIP3   OH2 5929   3.837   3.977   2.669
 1995TIP3    H1 5930   3.833   4.033   2.591
 1995TIP3    H2 5931   3.868   3.893   2.636
 1996TIP3   OH2 5932   6.234   7.592   1.871
 1996TIP3    H1 5933   6.218   7.656   1.940
 1996TIP3    H2 5934   6.166   7.610   1.806
 1997TIP3   OH2 5935   1.702   6.441   2.919
 1997TIP3    H1 5936   1.778   6.429   2.862
 1997TIP3    H2 5937   1.627   6.443   2.859
 1998TIP3   OH2 5938   0.388   4.608   0.764
 1998TIP3    H1 5939   0.299   4.574   0.757
 1998TIP3    H2 5940   0.397   4.665   0.687
 1999TIP3   OH2 5941   6.761   3.762   3.003
 1999TIP3    H1 5942   6.845   3.806   2.994
 1999TIP3    H2 5943   6.783   3.671   3.024
 2000TIP3   OH2 5944   6.954   7.452   0.411
 2000TIP3    H1 5945   7.006   7.469   0.490
 2000TIP3    H2 5946   6.901   7.531   0.401
 2001TIP3   OH2 5947   7.988   0.405   3.501
 2001TIP3    H1 5948   7.916   0.433   3.445
 2001TIP3    H2 5949   8.066   0.416   3.448
 2002TIP3   OH2 5950   2.566   5.745   2.024
 2002TIP3    H1 5951   2.528   5.807   2.087
 2002TIP3    H2 5952   2.598   5.673   2.077
 2003TIP3   OH2 5953   5.530   7.275   2.917
 2003TIP3    H1 5954   5.493   7.339   2.856
 2003TIP3    H2 5955   5.484   7.291   2.999
 2004TIP3   OH2 5956   7.767   5.000   0.708
 2004TIP3    H1 5957   7.740   4.917   0.669
 2004TIP3    H2 5958   7.685   5.047   0.724
 2005TIP3   OH2 5959   2.498   1.395   3.683
 2005TIP3    H1 5960   2.422   1.336   3.678
 2005TIP3    H2 5961   2.564   1.353   3.628
 2006TIP3   OH2 5962   3.969   3.366   1.545
 2006TIP3    H1 5963   4.051   3.415   1.539
 2006TIP3    H2 5964   3.912   3.422   1.598
 2007TIP3   OH2 5965   7.736   5.135   4.834
 2007TIP3    H1 5966   7.660   5.097   4.790
 2007TIP3    H2 5967   7.753   5.217   4.786
 2008TIP3   OH2 5968   2.064   6.600   2.080
 2008TIP3    H1 5969   2.079   6.689   2.049
 2008TIP3    H2 5970   2.023   6.611   2.167
 2009TIP3   OH2 5971   2.107   6.947   6.401
 2009TIP3    H1 5972   2.088   7.027   6.351
 2009TIP3    H2 5973   2.190   6.916   6.366
 2010TIP3   OH2 5974   8.197   5.944   3.262
 2010TIP3    H1 5975   8.230   6.028   3.295
 2010TIP3    H2 5976   8.212   5.948   3.167
 2011TIP3   OH2 5977   2.915   2.713   6.654
 2011TIP3    H1 5978   2.899   2.720   6.748
 2011TIP3    H2 5979   2.842   2.760   6.613
 2012TIP3   OH2 5980   5.203   4.194   4.731
 2012TIP3    H1 5981   5.145   4.121   4.710
 2012TIP3    H2 5982   5.288   4.168   4.694
 2013TIP3   OH2 5983   2.509   6.781   0.369
 2013TIP3    H1 5984   2.543   6.776   0.279
 2013TIP3    H2 5985   2.476   6.870   0.377
 2014TIP3   OH2 5986   3.618   1.568   5.037
 2014TIP3    H1 5987   3.697   1.559   5.091
 2014TIP3    H2 5988   3.585   1.478   5.028
 2015TIP3   OH2 5989   0.161   1.534   5.484
 2015TIP3    H1 5990   0.251   1.559   5.463
 2015TIP3    H2 5991   0.141   1.462   5.424
 2016TIP3   OH2 5992   2.268   5.174   1.602
 2016TIP3    H1 5993   2.315   5.123   1.667
 2016TIP3    H2 5994   2.256   5.260   1.643
 2017TIP3   OH2 5995   2.391   3.045   0.039
 2017TIP3    H1 5996   2.425   2.960   0.012
 2017TIP3    H2 5997   2.352   3.029   0.125
 2018TIP3   OH2 5998   5.847   6.595   2.361
 2018TIP3    H1 5999   5.859   6.501   2.371
 2018TIP3    H2 6000   5.766   6.604   2.312
 2019TIP3   OH2 6001   3.802   5.085   3.084
 2019TIP3    H1 6002   3.799   5.015   3.018
 2019TIP3    H2 6003   3.888   5.077   3.125
 2020TIP3   OH2 6004   1.742   4.370   0.020
 2020TIP3    H1 6005   1.696   4.374   0.104
 2020TIP3    H2 6006   1.744   4.277  -0.002
 2021TIP3   OH2 6007   1.054   5.933   2.556
 2021TIP3    H1 6008   1.147   5.936   2.535
 2021TIP3    H2 6009   1.051   5.914   2.650
 2022TIP3   OH2 6010   4.418   0.777   3.520
 2022TIP3    H1 6011   4.473   0.776   3.442
 2022TIP3    H2 6012   4.402   0.685   3.540
 2023TIP3   OH2 6013   1.454   6.383   2.318
 2023TIP3    H1 6014   1.440   6.343   2.232
 2023TIP3    H2 6015   1.512   6.458   2.300
 2024TIP3   OH2 6016   7.755   3.062   3.297
 2024TIP3    H1 6017   7.817   3.000   3.335
 2024TIP3    H2 6018   7.800   3.146   3.303
 2025TIP3   OH2 6019   6.318   1.942   2.430
 2025TIP3    H1 6020   6.308   1.933   2.524
 2025TIP3    H2 6021   6.293   2.033   2.412
 2026TIP3   OH2 6022   2.916   6.327   5.042
 2026TIP3    H1 6023   3.000   6.297   5.076
 2026TIP3    H2 6024   2.864   6.248   5.032
 2027TIP3   OH2 6025   4.669   0.034   4.122
 2027TIP3    H1 6026   4.601  -0.030   4.143
 2027TIP3    H2 6027   4.731   0.027   4.195
 2028TIP3   OH2 6028   5.001   4.489   5.701
 2028TIP3    H1 6029   4.962   4.497   5.614
 2028TIP3    H2 6030   4.996   4.577   5.738
 2029TIP3   OH2 6031   1.883   6.941   3.249
 2029TIP3    H1 6032   1.886   6.847   3.264
 2029TIP3    H2 6033   1.972   6.971   3.263
 2030TIP3   OH2 6034   4.339   7.650   3.174
 2030TIP3    H1 6035   4.258   7.601   3.160
 2030TIP3    H2 6036   4.348   7.704   3.095
 2031TIP3   OH2 6037   8.098   2.422   5.144
 2031TIP3    H1 6038   8.153   2.492   5.111
 2031TIP3    H2 6039   8.040   2.464   5.207
 2032TIP3   OH2 6040   8.070   2.248   2.881
 2032TIP3    H1 6041   8.133   2.177   2.868
 2032TIP3    H2 6042   8.056   2.250   2.976
 2033TIP3   OH2 6043   3.395   5.834   0.220
 2033TIP3    H1 6044   3.319   5.892   0.212
 2033TIP3    H2 6045   3.359   5.751   0.253
 2034TIP3   OH2 6046   0.683   5.826   2.918
 2034TIP3    H1 6047   0.731   5.761   2.865
 2034TIP3    H2 6048   0.683   5.789   3.006
 2035TIP3   OH2 6049   1.323   5.531   3.736
 2035TIP3    H1 6050   1.258   5.583   3.690
 2035TIP3    H2 6051   1.361   5.591   3.800
 2036TIP3   OH2 6052   5.521   2.720   4.614
 2036TIP3    H1 6053   5.545   2.680   4.698
 2036TIP3    H2 6054   5.427   2.736   4.621
 2037TIP3   OH2 6055   8.002   0.276   2.233
 2037TIP3    H1 6056   7.956   0.353   2.199
 2037TIP3    H2 6057   7.949   0.201   2.203
 2038TIP3   OH2 6058   2.349   3.810   0.498
 2038TIP3    H1 6059   2.394   3.880   0.451
 2038TIP3    H2 6060   2.414   3.741   0.508
 2039TIP3   OH2 6061   5.127   0.085   3.817
 2039TIP3    H1 6062   5.052   0.108   3.762
 2039TIP3    H2 6063   5.115   0.137   3.897
 2040TIP3   OH2 6064   4.035   2.095   3.571
 2040TIP3    H1 6065   3.997   2.016   3.610
 2040TIP3    H2 6066   3.960   2.154   3.559
 2041TIP3   OH2 6067   7.847   2.593   0.406
 2041TIP3    H1 6068   7.905   2.642   0.348
 2041TIP3    H2 6069   7.902   2.566   0.479
 2042TIP3   OH2 6070   4.134   2.365   2.167
 2042TIP3    H1 6071   4.082   2.418   2.228
 2042TIP3    H2 6072   4.215   2.346   2.215
 2043TIP3   OH2 6073   1.839   3.041   5.078
 2043TIP3    H1 6074   1.883   2.972   5.127
 2043TIP3    H2 6075   1.823   3.003   4.991
 2044TIP3   OH2 6076   5.748   2.072   2.171
 2044TIP3    H1 6077   5.736   2.058   2.265
 2044TIP3    H2 6078   5.813   2.006   2.146
 2045TIP3   OH2 6079   0.194   1.561   1.079
 2045TIP3    H1 6080   0.203   1.501   1.004
 2045TIP3    H2 6081   0.155   1.640   1.041
 2046TIP3   OH2 6082   2.625   0.665   2.363
 2046TIP3    H1 6083   2.636   0.570   2.374
 2046TIP3    H2 6084   2.531   0.677   2.349
 2047TIP3   OH2 6085   7.968   6.372   5.520
 2047TIP3    H1 6086   7.930   6.396   5.436
 2047TIP3    H2 6087   7.938   6.440   5.580
 2048TIP3   OH2 6088   0.824   6.378   5.757
 2048TIP3    H1 6089   0.846   6.471   5.743
 2048TIP3    H2 6090   0.729   6.377   5.765
 2049TIP3   OH2 6091   2.166   0.301   5.436
 2049TIP3    H1 6092   2.212   0.267   5.359
 2049TIP3    H2 6093   2.091   0.242   5.447
 2050TIP3   OH2 6094   1.897   6.190   6.629
 2050TIP3    H1 6095   1.979   6.143   6.619
 2050TIP3    H2 6096   1.836   6.125   6.664
 2051TIP3   OH2 6097   7.010   2.479   4.209
 2051TIP3    H1 6098   6.919   2.451   4.203
 2051TIP3    H2 6099   7.036   2.499   4.119
 2052TIP3   OH2 6100   5.097   4.311   4.955
 2052TIP3    H1 6101   5.068   4.400   4.940
 2052TIP3    H2 6102   5.155   4.292   4.880
 2053TIP3   OH2 6103   2.334   0.328   5.665
 2053TIP3    H1 6104   2.271   0.326   5.593
 2053TIP3    H2 6105   2.303   0.262   5.727
 2054TIP3   OH2 6106   5.561   5.542   3.941
 2054TIP3    H1 6107   5.563   5.561   4.035
 2054TIP3    H2 6108   5.651   5.516   3.920
 2055TIP3   OH2 6109   6.324   4.899   3.159
 2055TIP3    H1 6110   6.362   4.814   3.182
 2055TIP3    H2 6111   6.279   4.927   3.239
 2056TIP3   OH2 6112   3.514   5.763   6.765
 2056TIP3    H1 6113   3.563   5.790   6.842
 2056TIP3    H2 6114   3.511   5.841   6.710
 2057TIP3   OH2 6115   3.458   6.272   5.662
 2057TIP3    H1 6116   3.391   6.222   5.616
 2057TIP3    H2 6117   3.423   6.283   5.751
 2058TIP3   OH2 6118   3.211   1.305   6.205
 2058TIP3    H1 6119   3.158   1.239   6.251
 2058TIP3    H2 6120   3.221   1.376   6.268
 2059TIP3   OH2 6121   7.890   5.447   3.784
 2059TIP3    H1 6122   7.850   5.395   3.853
 2059TIP3    H2 6123   7.876   5.395   3.704
 2060TIP3   OH2 6124   3.528   6.250   3.405
 2060TIP3    H1 6125   3.462   6.281   3.344
 2060TIP3    H2 6126   3.556   6.165   3.370
 2061TIP3   OH2 6127   0.257   1.997   4.938
 2061TIP3    H1 6128   0.348   2.026   4.951
 2061TIP3    H2 6129   0.247   1.996   4.842
 2062TIP3   OH2 6130   4.430   7.545   1.577
 2062TIP3    H1 6131   4.493   7.577   1.511
 2062TIP3    H2 6132   4.378   7.480   1.530
 2063TIP3   OH2 6133   7.911   2.623   3.024
 2063TIP3    H1 6134   7.982   2.623   3.088
 2063TIP3    H2 6135   7.947   2.581   2.947
 2064TIP3   OH2 6136   3.574   4.248  -0.002
 2064TIP3    H1 6137   3.665   4.223  -0.018
 2064TIP3    H2 6138   3.576   4.343   0.011
 2065TIP3   OH2 6139   4.799   0.757   1.606
 2065TIP3    H1 6140   4.837   0.767   1.519
 2065TIP3    H2 6141   4.705   0.771   1.594
 2066TIP3   OH2 6142   6.001   1.762   5.458
 2066TIP3    H1 6143   6.037   1.844   5.424
 2066TIP3    H2 6144   6.074   1.722   5.505
 2067TIP3   OH2 6145   2.868   0.332   5.057
 2067TIP3    H1 6146   2.816   0.409   5.032
 2067TIP3    H2 6147   2.810   0.258   5.040
 2068TIP3   OH2 6148   3.053   5.617   3.565
 2068TIP3    H1 6149   3.144   5.586   3.569
 2068TIP3    H2 6150   3.031   5.637   3.656
 2069TIP3   OH2 6151   1.526   3.660   5.302
 2069TIP3    H1 6152   1.439   3.700   5.309
 2069TIP3    H2 6153   1.509   3.570   5.274
 2070TIP3   OH2 6154   1.388   2.113   4.959
 2070TIP3    H1 6155   1.377   2.078   5.047
 2070TIP3    H2 6156   1.424   2.040   4.909
 2071TIP3   OH2 6157   1.333   3.724   0.377
 2071TIP3    H1 6158   1.260   3.675   0.415
 2071TIP3    H2 6159   1.408   3.666   0.386
 2072TIP3   OH2 6160   2.354   1.417   2.960
 2072TIP3    H1 6161   2.397   1.467   3.029
 2072TIP3    H2 6162   2.339   1.330   2.998
 2073TIP3   OH2 6163   5.498   5.086   6.747
 2073TIP3    H1 6164   5.520   4.993   6.752
 2073TIP3    H2 6165   5.581   5.129   6.725
 2074TIP3   OH2 6166   1.559   3.893   4.518
 2074TIP3    H1 6167   1.575   3.895   4.424
 2074TIP3    H2 6168   1.616   3.960   4.554
 2075TIP3   OH2 6169   6.680   5.098   4.872
 2075TIP3    H1 6170   6.604   5.075   4.926
 2075TIP3    H2 6171   6.644   5.109   4.784
 2076TIP3   OH2 6172   4.420   1.663   1.722
 2076TIP3    H1 6173   4.420   1.744   1.773
 2076TIP3    H2 6174   4.474   1.681   1.646
 2077TIP3   OH2 6175   6.188   5.189   3.745
 2077TIP3    H1 6176   6.209   5.100   3.714
 2077TIP3    H2 6177   6.130   5.225   3.679
 2078TIP3   OH2 6178   8.254   1.633   0.325
 2078TIP3    H1 6179   8.247   1.626   0.230
 2078TIP3    H2 6180   8.257   1.727   0.341
 2079TIP3   OH2 6181   4.089   5.018   0.994
 2079TIP3    H1 6182   4.018   5.082   0.996
 2079TIP3    H2 6183   4.069   4.963   0.918
 2080TIP3   OH2 6184   5.844   6.566   6.069
 2080TIP3    H1 6185   5.862   6.510   6.145
 2080TIP3    H2 6186   5.927   6.610   6.052
 2081TIP3   OH2 6187   6.054   2.305   5.321
 2081TIP3    H1 6188   6.061   2.344   5.234
 2081TIP3    H2 6189   6.051   2.380   5.381
 2082TIP3   OH2 6190   7.106   3.061   2.463
 2082TIP3    H1 6191   7.037   3.001   2.433
 2082TIP3    H2 6192   7.185   3.007   2.466
 2083TIP3   OH2 6193   2.250   2.594   4.152
 2083TIP3    H1 6194   2.342   2.569   4.154
 2083TIP3    H2 6195   2.212   2.553   4.230
 2084TIP3   OH2 6196   5.317   3.973   3.332
 2084TIP3    H1 6197   5.266   3.892   3.335
 2084TIP3    H2 6198   5.256   4.038   3.297
 2085TIP3   OH2 6199   2.314   3.858   5.036
 2085TIP3    H1 6200   2.359   3.809   5.104
 2085TIP3    H2 6201   2.235   3.807   5.018
 2086TIP3   OH2 6202   4.295   3.339   1.612
 2086TIP3    H1 6203   4.249   3.408   1.563
 2086TIP3    H2 6204   4.364   3.385   1.658
 2087TIP3   OH2 6205   4.018   0.239   6.015
 2087TIP3    H1 6206   4.104   0.209   5.985
 2087TIP3    H2 6207   3.972   0.264   5.936
 2088TIP3   OH2 6208   6.171   3.426   5.139
 2088TIP3    H1 6209   6.220   3.508   5.140
 2088TIP3    H2 6210   6.193   3.387   5.055
 2089TIP3   OH2 6211   4.422   3.636   3.093
 2089TIP3    H1 6212   4.451   3.555   3.135
 2089TIP3    H2 6213   4.349   3.609   3.037
 2090TIP3   OH2 6214   1.778   5.006   5.427
 2090TIP3    H1 6215   1.780   4.960   5.343
 2090TIP3    H2 6216   1.855   4.974   5.474
 2091TIP3   OH2 6217   3.896   3.565   4.729
 2091TIP3    H1 6218   3.867   3.491   4.783
 2091TIP3    H2 6219   3.902   3.529   4.641
 2092TIP3   OH2 6220   3.185   7.005   1.508
 2092TIP3    H1 6221   3.262   7.051   1.474
 2092TIP3    H2 6222   3.118   7.073   1.516
 2093TIP3   OH2 6223   6.227   6.443   3.424
 2093TIP3    H1 6224   6.296   6.432   3.489
 2093TIP3    H2 6225   6.145   6.437   3.474
 2094TIP3   OH2 6226   1.160   5.852   5.661
 2094TIP3    H1 6227   1.239   5.868   5.608
 2094TIP3    H2 6228   1.175   5.766   5.700
 2095TIP3   OH2 6229   2.792   3.094   4.638
 2095TIP3    H1 6230   2.748   3.142   4.567
 2095TIP3    H2 6231   2.861   3.152   4.667
 2096TIP3   OH2 6232   4.848   0.591   6.163
 2096TIP3    H1 6233   4.921   0.644   6.131
 2096TIP3    H2 6234   4.871   0.571   6.254
 2097TIP3   OH2 6235   2.942   2.336   0.759
 2097TIP3    H1 6236   2.873   2.398   0.734
 2097TIP3    H2 6237   2.898   2.274   0.817
 2098TIP3   OH2 6238   7.980   4.715   6.247
 2098TIP3    H1 6239   8.066   4.718   6.290
 2098TIP3    H2 6240   7.987   4.642   6.186
 2099TIP3   OH2 6241   1.335   4.148   3.821
 2099TIP3    H1 6242   1.336   4.057   3.793
 2099TIP3    H2 6243   1.427   4.174   3.822
 2100TIP3   OH2 6244   4.260   1.898   2.247
 2100TIP3    H1 6245   4.188   1.944   2.291
 2100TIP3    H2 6246   4.229   1.883   2.158
 2101TIP3   OH2 6247   3.460   5.698   4.990
 2101TIP3    H1 6248   3.479   5.792   4.991
 2101TIP3    H2 6249   3.413   5.682   5.072
 2102TIP3   OH2 6250   5.656   6.508   1.397
 2102TIP3    H1 6251   5.738   6.543   1.362
 2102TIP3    H2 6252   5.681   6.461   1.477
 2103TIP3   OH2 6253   7.652   3.462   2.189
 2103TIP3    H1 6254   7.674   3.542   2.141
 2103TIP3    H2 6255   7.597   3.493   2.262
 2104TIP3   OH2 6256   5.809   0.727   2.592
 2104TIP3    H1 6257   5.745   0.721   2.663
 2104TIP3    H2 6258   5.836   0.819   2.593
 2105TIP3   OH2 6259   4.309   2.784   3.273
 2105TIP3    H1 6260   4.295   2.695   3.238
 2105TIP3    H2 6261   4.397   2.807   3.244
 2106TIP3   OH2 6262   0.358   1.214   0.172
 2106TIP3    H1 6263   0.406   1.148   0.124
 2106TIP3    H2 6264   0.417   1.240   0.243
 2107TIP3   OH2 6265   2.695   2.900   2.324
 2107TIP3    H1 6266   2.777   2.946   2.346
 2107TIP3    H2 6267   2.718   2.807   2.328
 2108TIP3   OH2 6268   6.171   3.371   1.248
 2108TIP3    H1 6269   6.198   3.280   1.262
 2108TIP3    H2 6270   6.161   3.378   1.153
 2109TIP3   OH2 6271   1.815   3.702   1.386
 2109TIP3    H1 6272   1.793   3.792   1.362
 2109TIP3    H2 6273   1.814   3.655   1.303
 2110TIP3   OH2 6274   2.849   4.602   6.667
 2110TIP3    H1 6275   2.768   4.583   6.716
 2110TIP3    H2 6276   2.894   4.667   6.720
 2111TIP3   OH2 6277   4.216   3.833   3.909
 2111TIP3    H1 6278   4.221   3.793   3.822
 2111TIP3    H2 6279   4.301   3.817   3.948
 2112TIP3   OH2 6280   3.893   5.666   4.433
 2112TIP3    H1 6281   3.960   5.709   4.487
 2112TIP3    H2 6282   3.814   5.671   4.486
 2113TIP3   OH2 6283   5.797   0.513   0.630
 2113TIP3    H1 6284   5.826   0.445   0.569
 2113TIP3    H2 6285   5.823   0.481   0.716
 2114TIP3   OH2 6286   0.334   6.455   6.063
 2114TIP3    H1 6287   0.251   6.426   6.025
 2114TIP3    H2 6288   0.397   6.388   6.038
 2115TIP3   OH2 6289   0.282   6.116   0.468
 2115TIP3    H1 6290   0.362   6.087   0.424
 2115TIP3    H2 6291   0.311   6.145   0.554
 2116TIP3   OH2 6292   7.623   6.376   3.756
 2116TIP3    H1 6293   7.643   6.291   3.794
 2116TIP3    H2 6294   7.656   6.440   3.819
 2117TIP3   OH2 6295   2.513   4.717   0.364
 2117TIP3    H1 6296   2.517   4.806   0.397
 2117TIP3    H2 6297   2.443   4.675   0.416
 2118TIP3   OH2 6298   5.263   0.530   0.834
 2118TIP3    H1 6299   5.227   0.618   0.844
 2118TIP3    H2 6300   5.270   0.518   0.739
 2119TIP3   OH2 6301   1.047   2.450   0.900
 2119TIP3    H1 6302   1.019   2.393   0.828
 2119TIP3    H2 6303   1.139   2.428   0.913
 2120TIP3   OH2 6304   3.854   5.820   1.747
 2120TIP3    H1 6305   3.806   5.756   1.695
 2120TIP3    H2 6306   3.915   5.861   1.685
 2121TIP3   OH2 6307   6.014   5.497   3.096
 2121TIP3    H1 6308   5.926   5.503   3.057
 2121TIP3    H2 6309   6.040   5.587   3.110
 2122TIP3   OH2 6310   4.732   0.318   4.453
 2122TIP3    H1 6311   4.766   0.253   4.391
 2122TIP3    H2 6312   4.650   0.349   4.412
 2123TIP3   OH2 6313   5.202   6.227   6.202
 2123TIP3    H1 6314   5.167   6.299   6.150
 2123TIP3    H2 6315   5.254   6.176   6.141
 2124TIP3   OH2 6316   1.148   3.940   5.751
 2124TIP3    H1 6317   1.083   3.873   5.771
 2124TIP3    H2 6318   1.221   3.921   5.810
 2125TIP3   OH2 6319   4.195   6.586   0.116
 2125TIP3    H1 6320   4.153   6.672   0.110
 2125TIP3    H2 6321   4.170   6.541   0.035
 2126TIP3   OH2 6322   5.484   6.338   3.226
 2126TIP3    H1 6323   5.462   6.277   3.297
 2126TIP3    H2 6324   5.542   6.288   3.169
 2127TIP3   OH2 6325   7.205   5.111   5.044
 2127TIP3    H1 6326   7.214   5.031   5.095
 2127TIP3    H2 6327   7.112   5.133   5.050
 2128TIP3   OH2 6328   4.926   3.268   5.057
 2128TIP3    H1 6329   4.885   3.210   5.121
 2128TIP3    H2 6330   4.974   3.332   5.109
 2129TIP3   OH2 6331   0.353   6.714   5.771
 2129TIP3    H1 6332   0.440   6.746   5.748
 2129TIP3    H2 6333   0.334   6.754   5.856
 2130TIP3   OH2 6334   8.071   5.561   1.600
 2130TIP3    H1 6335   8.087   5.495   1.532
 2130TIP3    H2 6336   8.125   5.635   1.573
 2131TIP3   OH2 6337   5.812   5.049   3.015
 2131TIP3    H1 6338   5.807   4.972   2.958
 2131TIP3    H2 6339   5.890   5.096   2.984
 2132TIP3   OH2 6340   7.773   4.318   4.328
 2132TIP3    H1 6341   7.739   4.229   4.327
 2132TIP3    H2 6342   7.696   4.373   4.341
 2133TIP3   OH2 6343   4.877   3.962   1.840
 2133TIP3    H1 6344   4.799   3.930   1.795
 2133TIP3    H2 6345   4.878   4.056   1.822
 2134TIP3   OH2 6346   2.042   5.039   5.014
 2134TIP3    H1 6347   2.084   4.979   4.953
 2134TIP3    H2 6348   1.949   5.033   4.992
 2135TIP3   OH2 6349   7.112   5.739   2.387
 2135TIP3    H1 6350   7.149   5.659   2.427
 2135TIP3    H2 6351   7.165   5.753   2.309
 2136TIP3   OH2 6352   7.186   5.109   3.586
 2136TIP3    H1 6353   7.236   5.115   3.505
 2136TIP3    H2 6354   7.241   5.153   3.651
 2137TIP3   OH2 6355   4.321   4.227   1.810
 2137TIP3    H1 6356   4.244   4.201   1.759
 2137TIP3    H2 6357   4.287   4.289   1.875
 2138TIP3   OH2 6358   7.487   7.830   2.432
 2138TIP3    H1 6359   7.396   7.803   2.420
 2138TIP3    H2 6360   7.488   7.922   2.406
 2139TIP3   OH2 6361   1.887   5.426   4.787
 2139TIP3    H1 6362   1.965   5.463   4.828
 2139TIP3    H2 6363   1.919   5.350   4.739
 2140TIP3   OH2 6364   4.818   6.364   0.355
 2140TIP3    H1 6365   4.749   6.314   0.312
 2140TIP3    H2 6366   4.884   6.377   0.287
 2141TIP3   OH2 6367   1.802   6.263   2.212
 2141TIP3    H1 6368   1.849   6.280   2.131
 2141TIP3    H2 6369   1.734   6.331   2.215
 2142TIP3   OH2 6370   6.909   2.922   6.175
 2142TIP3    H1 6371   6.895   2.842   6.226
 2142TIP3    H2 6372   6.920   2.891   6.085
 2143TIP3   OH2 6373   0.734   3.887   3.739
 2143TIP3    H1 6374   0.697   3.951   3.800
 2143TIP3    H2 6375   0.828   3.891   3.755
 2144TIP3   OH2 6376   6.844   0.796   3.275
 2144TIP3    H1 6377   6.921   0.808   3.220
 2144TIP3    H2 6378   6.860   0.715   3.323
 2145TIP3   OH2 6379   1.184   5.168   5.244
 2145TIP3    H1 6380   1.268   5.123   5.249
 2145TIP3    H2 6381   1.192   5.227   5.169
 2146TIP3   OH2 6382   0.317  -0.016   5.523
 2146TIP3    H1 6383   0.333   0.077   5.536
 2146TIP3    H2 6384   0.222  -0.024   5.518
 2147TIP3   OH2 6385   1.155   0.487   1.019
 2147TIP3    H1 6386   1.215   0.413   1.009
 2147TIP3    H2 6387   1.189   0.536   1.094
 2148TIP3   OH2 6388   4.054   1.309   4.925
 2148TIP3    H1 6389   4.045   1.313   4.830
 2148TIP3    H2 6390   4.132   1.256   4.940
 2149TIP3   OH2 6391   1.586   2.725   3.444
 2149TIP3    H1 6392   1.607   2.812   3.410
 2149TIP3    H2 6393   1.668   2.677   3.440
 2150TIP3   OH2 6394   7.795   0.719   1.051
 2150TIP3    H1 6395   7.852   0.732   1.127
 2150TIP3    H2 6396   7.839   0.652   0.998
 2151TIP3   OH2 6397   7.296   4.556   2.530
 2151TIP3    H1 6398   7.273   4.649   2.526
 2151TIP3    H2 6399   7.343   4.546   2.613
 2152TIP3   OH2 6400   3.839   4.326   1.155
 2152TIP3    H1 6401   3.861   4.326   1.248
 2152TIP3    H2 6402   3.855   4.415   1.126
 2153TIP3   OH2 6403   6.987   1.705   0.152
 2153TIP3    H1 6404   6.980   1.775   0.217
 2153TIP3    H2 6405   6.896   1.684   0.129
 2154TIP3   OH2 6406   2.693   3.373   5.403
 2154TIP3    H1 6407   2.695   3.282   5.431
 2154TIP3    H2 6408   2.725   3.422   5.479
 2155TIP3   OH2 6409   4.539   6.080   1.571
 2155TIP3    H1 6410   4.619   6.027   1.574
 2155TIP3    H2 6411   4.541   6.121   1.484
 2156TIP3   OH2 6412   7.269   2.392   1.600
 2156TIP3    H1 6413   7.361   2.416   1.601
 2156TIP3    H2 6414   7.233   2.434   1.522
 2157TIP3   OH2 6415   2.743   1.598   3.706
 2157TIP3    H1 6416   2.762   1.574   3.797
 2157TIP3    H2 6417   2.650   1.622   3.707
 2158TIP3   OH2 6418   1.073   1.140   0.347
 2158TIP3    H1 6419   1.061   1.082   0.272
 2158TIP3    H2 6420   1.141   1.201   0.319
 2159TIP3   OH2 6421   7.468   4.923   5.008
 2159TIP3    H1 6422   7.525   4.858   5.049
 2159TIP3    H2 6423   7.393   4.929   5.068
 2160TIP3   OH2 6424   5.169   7.711   5.357
 2160TIP3    H1 6425   5.126   7.657   5.290
 2160TIP3    H2 6426   5.244   7.750   5.313
 2161TIP3   OH2 6427   0.808   6.555   5.480
 2161TIP3    H1 6428   0.727   6.508   5.464
 2161TIP3    H2 6429   0.875   6.487   5.488
 2162TIP3   OH2 6430   3.572   2.334   3.675
 2162TIP3    H1 6431   3.641   2.375   3.727
 2162TIP3    H2 6432   3.588   2.240   3.684
 2163TIP3   OH2 6433   0.038   4.490   6.450
 2163TIP3    H1 6434   0.113   4.503   6.508
 2163TIP3    H2 6435   0.066   4.424   6.387
 2164TIP3   OH2 6436   2.638   1.438   3.086
 2164TIP3    H1 6437   2.724   1.477   3.073
 2164TIP3    H2 6438   2.576   1.510   3.073
 2165TIP3   OH2 6439   1.006   5.141   5.913
 2165TIP3    H1 6440   1.027   5.051   5.888
 2165TIP3    H2 6441   1.005   5.189   5.830
 2166TIP3   OH2 6442   3.739   6.039   3.733
 2166TIP3    H1 6443   3.832   6.064   3.737
 2166TIP3    H2 6444   3.710   6.039   3.824
 2167TIP3   OH2 6445   8.047   0.177   6.226
 2167TIP3    H1 6446   8.046   0.156   6.319
 2167TIP3    H2 6447   7.984   0.117   6.187
 2168TIP3   OH2 6448   0.402   3.410   0.446
 2168TIP3    H1 6449   0.450   3.397   0.365
 2168TIP3    H2 6450   0.329   3.467   0.422
 2169TIP3   OH2 6451   1.267   4.943   1.676
 2169TIP3    H1 6452   1.321   4.890   1.735
 2169TIP3    H2 6453   1.209   4.879   1.633
 2170TIP3   OH2 6454   2.976   3.154   6.634
 2170TIP3    H1 6455   3.056   3.198   6.606
 2170TIP3    H2 6456   2.941   3.114   6.555
 2171TIP3   OH2 6457   2.237   2.573   5.173
 2171TIP3    H1 6458   2.203   2.610   5.254
 2171TIP3    H2 6459   2.159   2.551   5.122
 2172TIP3   OH2 6460   7.304   5.751   1.182
 2172TIP3    H1 6461   7.231   5.812   1.185
 2172TIP3    H2 6462   7.380   5.805   1.163
 2173TIP3   OH2 6463   4.208   5.744   4.881
 2173TIP3    H1 6464   4.119   5.740   4.917
 2173TIP3    H2 6465   4.257   5.797   4.944
 2174TIP3   OH2 6466   0.341   7.023   4.630
 2174TIP3    H1 6467   0.383   7.076   4.697
 2174TIP3    H2 6468   0.255   7.001   4.668
 2175TIP3   OH2 6469   1.792   1.296   0.484
 2175TIP3    H1 6470   1.816   1.251   0.564
 2175TIP3    H2 6471   1.728   1.238   0.442
 2176TIP3   OH2 6472   8.046   7.166   6.461
 2176TIP3    H1 6473   8.002   7.102   6.405
 2176TIP3    H2 6474   8.128   7.185   6.416
 2177TIP3   OH2 6475   4.125   4.450   3.546
 2177TIP3    H1 6476   4.070   4.402   3.484
 2177TIP3    H2 6477   4.214   4.422   3.525
 2178TIP3   OH2 6478   1.200   7.583   2.970
 2178TIP3    H1 6479   1.295   7.568   2.975
 2178TIP3    H2 6480   1.184   7.656   3.029
 2179TIP3   OH2 6481   5.875   1.043   4.802
 2179TIP3    H1 6482   5.872   0.948   4.811
 2179TIP3    H2 6483   5.891   1.075   4.890
 2180TIP3   OH2 6484   0.199   1.589   4.003
 2180TIP3    H1 6485   0.125   1.627   4.050
 2180TIP3    H2 6486   0.191   1.494   4.018
 2181TIP3   OH2 6487   3.999   1.397   2.415
 2181TIP3    H1 6488   4.064   1.400   2.485
 2181TIP3    H2 6489   3.928   1.453   2.446
 2182TIP3   OH2 6490   6.086   6.149   1.109
 2182TIP3    H1 6491   6.104   6.131   1.202
 2182TIP3    H2 6492   5.994   6.124   1.099
 2183TIP3   OH2 6493   4.823   7.603   6.323
 2183TIP3    H1 6494   4.805   7.657   6.400
 2183TIP3    H2 6495   4.756   7.627   6.260
 2184TIP3   OH2 6496   1.519   4.657   2.482
 2184TIP3    H1 6497   1.446   4.594   2.476
 2184TIP3    H2 6498   1.593   4.611   2.443
 2185TIP3   OH2 6499   3.759   4.968   3.439
 2185TIP3    H1 6500   3.843   4.934   3.472
 2185TIP3    H2 6501   3.715   4.892   3.403
 2186TIP3   OH2 6502   3.011   6.979   6.091
 2186TIP3    H1 6503   3.097   7.005   6.126
 2186TIP3    H2 6504   2.964   7.061   6.079
 2187TIP3   OH2 6505   2.014   1.424   4.746
 2187TIP3    H1 6506   2.065   1.474   4.810
 2187TIP3    H2 6507   2.076   1.362   4.708
 2188TIP3   OH2 6508   0.946   6.083   3.733
 2188TIP3    H1 6509   0.873   6.045   3.783
 2188TIP3    H2 6510   0.951   6.174   3.764
 2189TIP3   OH2 6511   3.191   7.130   6.258
 2189TIP3    H1 6512   3.262   7.131   6.322
 2189TIP3    H2 6513   3.133   7.201   6.286
 2190TIP3   OH2 6514   4.719   0.824   0.421
 2190TIP3    H1 6515   4.720   0.741   0.373
 2190TIP3    H2 6516   4.746   0.889   0.356
 2191TIP3   OH2 6517   2.679   4.459   0.927
 2191TIP3    H1 6518   2.740   4.526   0.958
 2191TIP3    H2 6519   2.643   4.494   0.846
 2192TIP3   OH2 6520   5.675   7.134   4.760
 2192TIP3    H1 6521   5.721   7.172   4.685
 2192TIP3    H2 6522   5.738   7.140   4.832
 2193TIP3   OH2 6523   6.024   6.979   5.218
 2193TIP3    H1 6524   6.003   7.073   5.219
 2193TIP3    H2 6525   6.067   6.966   5.133
 2194TIP3   OH2 6526   4.333   5.143   6.147
 2194TIP3    H1 6527   4.325   5.194   6.067
 2194TIP3    H2 6528   4.337   5.209   6.217
 2195TIP3   OH2 6529   5.530   7.055   5.283
 2195TIP3    H1 6530   5.453   7.016   5.242
 2195TIP3    H2 6531   5.498   7.095   5.364
 2196TIP3   OH2 6532   4.168   0.539   3.473
 2196TIP3    H1 6533   4.188   0.519   3.382
 2196TIP3    H2 6534   4.112   0.617   3.469
 2197TIP3   OH2 6535   8.035   5.669   2.350
 2197TIP3    H1 6536   7.941   5.672   2.364
 2197TIP3    H2 6537   8.050   5.725   2.273
 2198TIP3   OH2 6538   5.924   7.444   5.865
 2198TIP3    H1 6539   5.886   7.360   5.893
 2198TIP3    H2 6540   5.964   7.479   5.945
 2199TIP3   OH2 6541   0.438   0.989   6.513
 2199TIP3    H1 6542   0.491   0.911   6.526
 2199TIP3    H2 6543   0.490   1.060   6.550
 2200TIP3   OH2 6544   1.271   4.696   4.759
 2200TIP3    H1 6545   1.237   4.756   4.692
 2200TIP3    H2 6546   1.199   4.685   4.821
 2201TIP3   OH2 6547   1.434   2.650   5.480
 2201TIP3    H1 6548   1.490   2.617   5.410
 2201TIP3    H2 6549   1.379   2.576   5.504
 2202TIP3   OH2 6550   4.875   2.884   5.795
 2202TIP3    H1 6551   4.848   2.839   5.715
 2202TIP3    H2 6552   4.928   2.957   5.764
 2203TIP3   OH2 6553   5.097   3.552   2.911
 2203TIP3    H1 6554   5.070   3.502   2.834
 2203TIP3    H2 6555   5.193   3.553   2.907
 2204TIP3   OH2 6556   1.167   1.740   5.601
 2204TIP3    H1 6557   1.262   1.733   5.613
 2204TIP3    H2 6558   1.134   1.651   5.610
 2205TIP3   OH2 6559   2.841   4.256   1.950
 2205TIP3    H1 6560   2.890   4.177   1.930
 2205TIP3    H2 6561   2.894   4.301   2.016
 2206TIP3   OH2 6562   6.319   1.131   0.387
 2206TIP3    H1 6563   6.357   1.177   0.463
 2206TIP3    H2 6564   6.321   1.039   0.412
 2207TIP3   OH2 6565   3.195   3.071   5.437
 2207TIP3    H1 6566   3.178   3.154   5.394
 2207TIP3    H2 6567   3.173   3.005   5.372
 2208TIP3   OH2 6568   2.921   6.749   4.824
 2208TIP3    H1 6569   2.955   6.752   4.734
 2208TIP3    H2 6570   2.861   6.824   4.829
 2209TIP3   OH2 6571   1.024   1.225   4.033
 2209TIP3    H1 6572   0.941   1.220   3.985
 2209TIP3    H2 6573   1.013   1.299   4.093
 2210TIP3   OH2 6574   1.083   4.478   6.240
 2210TIP3    H1 6575   1.088   4.563   6.197
 2210TIP3    H2 6576   1.152   4.426   6.198
 2211TIP3   OH2 6577   5.125   7.743   2.449
 2211TIP3    H1 6578   5.199   7.704   2.402
 2211TIP3    H2 6579   5.057   7.754   2.383
 2212TIP3   OH2 6580   2.920   0.730   3.422
 2212TIP3    H1 6581   2.903   0.738   3.515
 2212TIP3    H2 6582   2.964   0.812   3.398
 2213TIP3   OH2 6583   0.622   1.433   2.514
 2213TIP3    H1 6584   0.577   1.424   2.429
 2213TIP3    H2 6585   0.710   1.401   2.497
 2214TIP3   OH2 6586   7.513   3.499   1.398
 2214TIP3    H1 6587   7.513   3.514   1.493
 2214TIP3    H2 6588   7.456   3.424   1.385
 2215TIP3   OH2 6589   3.065   6.903   4.625
 2215TIP3    H1 6590   3.015   6.836   4.577
 2215TIP3    H2 6591   3.109   6.953   4.556
 2216TIP3   OH2 6592   5.548   3.465   2.830
 2216TIP3    H1 6593   5.555   3.402   2.902
 2216TIP3    H2 6594   5.623   3.524   2.842
 2217TIP3   OH2 6595   0.306   0.097   3.759
 2217TIP3    H1 6596   0.219   0.132   3.741
 2217TIP3    H2 6597   0.365   0.154   3.711
 2218TIP3   OH2 6598   0.227   1.313   3.810
 2218TIP3    H1 6599   0.198   1.232   3.767
 2218TIP3    H2 6600   0.172   1.381   3.772
 2219TIP3   OH2 6601   4.104   4.777   6.367
 2219TIP3    H1 6602   4.022   4.794   6.412
 2219TIP3    H2 6603   4.170   4.821   6.420
 2220TIP3   OH2 6604   2.620   1.650   1.749
 2220TIP3    H1 6605   2.689   1.630   1.687
 2220TIP3    H2 6606   2.545   1.597   1.721
 2221TIP3   OH2 6607   7.890   7.481   1.100
 2221TIP3    H1 6608   7.835   7.536   1.156
 2221TIP3    H2 6609   7.977   7.489   1.138
 2222TIP3   OH2 6610   4.345   5.895   6.308
 2222TIP3    H1 6611   4.426   5.946   6.315
 2222TIP3    H2 6612   4.374   5.807   6.284
 2223TIP3   OH2 6613   3.358   4.059   1.446
 2223TIP3    H1 6614   3.404   3.984   1.407
 2223TIP3    H2 6615   3.427   4.121   1.468
 2224TIP3   OH2 6616   1.947   3.917   6.251
 2224TIP3    H1 6617   1.871   3.926   6.309
 2224TIP3    H2 6618   1.910   3.902   6.164
 2225TIP3   OH2 6619   1.299   4.536   5.816
 2225TIP3    H1 6620   1.358   4.604   5.783
 2225TIP3    H2 6621   1.225   4.537   5.754
 2226TIP3   OH2 6622   7.220   3.119   3.997
 2226TIP3    H1 6623   7.302   3.115   3.948
 2226TIP3    H2 6624   7.244   3.155   4.082
 2227TIP3   OH2 6625   4.993   7.765   1.766
 2227TIP3    H1 6626   5.037   7.810   1.838
 2227TIP3    H2 6627   5.048   7.689   1.747
 2228TIP3   OH2 6628   0.590   0.041   0.317
 2228TIP3    H1 6629   0.673   0.089   0.310
 2228TIP3    H2 6630   0.576   0.032   0.412
 2229TIP3   OH2 6631   0.084   2.575   4.380
 2229TIP3    H1 6632   0.088   2.501   4.440
 2229TIP3    H2 6633   0.008   2.626   4.410
 2230TIP3   OH2 6634   4.168   3.111   0.707
 2230TIP3    H1 6635   4.246   3.129   0.760
 2230TIP3    H2 6636   4.199   3.113   0.616
 2231TIP3   OH2 6637   3.777   0.880   4.755
 2231TIP3    H1 6638   3.852   0.935   4.777
 2231TIP3    H2 6639   3.770   0.819   4.829
 2232TIP3   OH2 6640   0.161   6.590   4.603
 2232TIP3    H1 6641   0.072   6.554   4.599
 2232TIP3    H2 6642   0.216   6.516   4.626
 2233TIP3   OH2 6643   6.010   3.571   0.991
 2233TIP3    H1 6644   6.060   3.494   0.965
 2233TIP3    H2 6645   5.967   3.546   1.073
 2234TIP3   OH2 6646   3.172   0.262   5.344
 2234TIP3    H1 6647   3.098   0.202   5.354
 2234TIP3    H2 6648   3.182   0.273   5.250
 2235TIP3   OH2 6649   2.087   5.934   3.810
 2235TIP3    H1 6650   2.116   5.849   3.844
 2235TIP3    H2 6651   2.015   5.959   3.867
 2236TIP3   OH2 6652   7.936   2.575   4.087
 2236TIP3    H1 6653   8.002   2.642   4.108
 2236TIP3    H2 6654   7.986   2.505   4.045
 2237TIP3   OH2 6655   6.043   6.911   1.701
 2237TIP3    H1 6656   6.037   6.824   1.741
 2237TIP3    H2 6657   6.136   6.933   1.706
 2238TIP3   OH2 6658   0.553   2.062   6.326
 2238TIP3    H1 6659   0.548   1.987   6.384
 2238TIP3    H2 6660   0.486   2.046   6.260
 2239TIP3   OH2 6661   8.097   1.624   4.927
 2239TIP3    H1 6662   8.106   1.641   4.833
 2239TIP3    H2 6663   8.137   1.539   4.940
 2240TIP3   OH2 6664   4.796   0.420   2.981
 2240TIP3    H1 6665   4.888   0.434   2.959
 2240TIP3    H2 6666   4.770   0.346   2.926
 2241TIP3   OH2 6667   6.767   6.381   1.269
 2241TIP3    H1 6668   6.717   6.408   1.192
 2241TIP3    H2 6669   6.839   6.445   1.274
 2242TIP3   OH2 6670   0.056   7.345   2.831
 2242TIP3    H1 6671   0.146   7.347   2.798
 2242TIP3    H2 6672   0.065   7.346   2.926
 2243TIP3   OH2 6673   0.529   6.200   4.521
 2243TIP3    H1 6674   0.615   6.175   4.486
 2243TIP3    H2 6675   0.530   6.171   4.612
 2244TIP3   OH2 6676   6.399   7.801   2.751
 2244TIP3    H1 6677   6.472   7.751   2.786
 2244TIP3    H2 6678   6.322   7.766   2.795
 2245TIP3   OH2 6679   7.086   1.415   5.206
 2245TIP3    H1 6680   7.173   1.376   5.197
 2245TIP3    H2 6681   7.100   1.492   5.261
 2246TIP3   OH2 6682   6.784   0.444   2.029
 2246TIP3    H1 6683   6.703   0.453   2.079
 2246TIP3    H2 6684   6.832   0.525   2.047
 2247TIP3   OH2 6685   0.694   1.861   6.676
 2247TIP3    H1 6686   0.668   1.806   6.750
 2247TIP3    H2 6687   0.614   1.876   6.627
 2248TIP3   OH2 6688   8.160   2.786   2.690
 2248TIP3    H1 6689   8.106   2.833   2.753
 2248TIP3    H2 6690   8.193   2.710   2.738
 2249TIP3   OH2 6691   3.578   3.739   1.586
 2249TIP3    H1 6692   3.490   3.772   1.601
 2249TIP3    H2 6693   3.633   3.817   1.583
 2250TIP3   OH2 6694   4.781   6.834   6.061
 2250TIP3    H1 6695   4.746   6.923   6.067
 2250TIP3    H2 6696   4.816   6.829   5.972
 2251TIP3   OH2 6697   4.941   4.743   5.788
 2251TIP3    H1 6698   4.977   4.739   5.877
 2251TIP3    H2 6699   4.861   4.794   5.796
 2252TIP3   OH2 6700   6.350   1.076   2.160
 2252TIP3    H1 6701   6.370   1.075   2.254
 2252TIP3    H2 6702   6.435   1.068   2.117
 2253TIP3   OH2 6703   1.033   5.757   2.785
 2253TIP3    H1 6704   1.001   5.753   2.875
 2253TIP3    H2 6705   0.972   5.702   2.736
 2254TIP3   OH2 6706   7.554   2.692   0.658
 2254TIP3    H1 6707   7.467   2.726   0.680
 2254TIP3    H2 6708   7.539   2.634   0.583
 2255TIP3   OH2 6709   2.359   7.728   6.452
 2255TIP3    H1 6710   2.300   7.692   6.386
 2255TIP3    H2 6711   2.440   7.679   6.441
 2256TIP3   OH2 6712   3.634   2.923   6.720
 2256TIP3    H1 6713   3.593   2.995   6.672
 2256TIP3    H2 6714   3.676   2.871   6.652
 2257TIP3   OH2 6715   2.397   3.525   6.126
 2257TIP3    H1 6716   2.313   3.559   6.155
 2257TIP3    H2 6717   2.456   3.538   6.200
 2258TIP3   OH2 6718   0.841   6.466   1.586
 2258TIP3    H1 6719   0.926   6.466   1.631
 2258TIP3    H2 6720   0.838   6.381   1.542
 2259TIP3   OH2 6721   3.415   0.997   3.804
 2259TIP3    H1 6722   3.408   0.952   3.888
 2259TIP3    H2 6723   3.483   1.063   3.818
 2260TIP3   OH2 6724   5.026   5.388   1.302
 2260TIP3    H1 6725   4.961   5.457   1.288
 2260TIP3    H2 6726   5.037   5.385   1.397
 2261TIP3   OH2 6727   1.513   4.639   4.859
 2261TIP3    H1 6728   1.419   4.640   4.843
 2261TIP3    H2 6729   1.547   4.711   4.806
 2262TIP3   OH2 6730   5.385  -0.003   4.882
 2262TIP3    H1 6731   5.434   0.022   4.961
 2262TIP3    H2 6732   5.294  -0.003   4.910
 2263TIP3   OH2 6733   3.680   1.491   4.591
 2263TIP3    H1 6734   3.753   1.440   4.555
 2263TIP3    H2 6735   3.722   1.562   4.639
 2264TIP3   OH2 6736   6.289   3.769   0.896
 2264TIP3    H1 6737   6.293   3.860   0.926
 2264TIP3    H2 6738   6.379   3.749   0.869
 2265TIP3   OH2 6739   7.661   5.896   4.906
 2265TIP3    H1 6740   7.647   5.940   4.822
 2265TIP3    H2 6741   7.594   5.828   4.909
 2266TIP3   OH2 6742   1.302   3.211   6.384
 2266TIP3    H1 6743   1.262   3.297   6.368
 2266TIP3    H2 6744   1.353   3.223   6.464
 2267TIP3   OH2 6745   4.257   5.788   5.436
 2267TIP3    H1 6746   4.259   5.866   5.493
 2267TIP3    H2 6747   4.248   5.823   5.348
 2268TIP3   OH2 6748   6.542   2.336   0.828
 2268TIP3    H1 6749   6.615   2.280   0.855
 2268TIP3    H2 6750   6.490   2.281   0.768
 2269TIP3   OH2 6751   1.352   4.840   6.358
 2269TIP3    H1 6752   1.264   4.835   6.321
 2269TIP3    H2 6753   1.350   4.779   6.432
 2270TIP3   OH2 6754   4.329   4.757   3.642
 2270TIP3    H1 6755   4.330   4.737   3.735
 2270TIP3    H2 6756   4.374   4.841   3.635
 2271TIP3   OH2 6757   5.776   4.166   2.427
 2271TIP3    H1 6758   5.709   4.097   2.432
 2271TIP3    H2 6759   5.751   4.228   2.496
 2272TIP3   OH2 6760   5.244   3.766   6.723
 2272TIP3    H1 6761   5.225   3.775   6.629
 2272TIP3    H2 6762   5.324   3.715   6.727
 2273TIP3   OH2 6763   2.229   5.711   5.757
 2273TIP3    H1 6764   2.146   5.684   5.796
 2273TIP3    H2 6765   2.209   5.725   5.665
 2274TIP3   OH2 6766   1.433   3.983   0.121
 2274TIP3    H1 6767   1.470   3.969   0.208
 2274TIP3    H2 6768   1.374   3.909   0.108
 2275TIP3   OH2 6769   4.505   1.512   1.479
 2275TIP3    H1 6770   4.523   1.601   1.447
 2275TIP3    H2 6771   4.589   1.481   1.512
 2276TIP3   OH2 6772   3.812   4.930   4.868
 2276TIP3    H1 6773   3.813   4.936   4.964
 2276TIP3    H2 6774   3.719   4.934   4.846
 2277TIP3   OH2 6775   3.693   2.072   1.389
 2277TIP3    H1 6776   3.627   2.010   1.419
 2277TIP3    H2 6777   3.772   2.049   1.439
 2278TIP3   OH2 6778   4.758   3.018   2.185
 2278TIP3    H1 6779   4.689   2.966   2.226
 2278TIP3    H2 6780   4.732   3.024   2.093
 2279TIP3   OH2 6781   3.258   6.661   1.447
 2279TIP3    H1 6782   3.294   6.574   1.466
 2279TIP3    H2 6783   3.195   6.677   1.517
 2280TIP3   OH2 6784   7.777   7.315   6.766
 2280TIP3    H1 6785   7.793   7.408   6.778
 2280TIP3    H2 6786   7.705   7.294   6.826
 2281TIP3   OH2 6787   0.816   2.358   0.048
 2281TIP3    H1 6788   0.904   2.382   0.077
 2281TIP3    H2 6789   0.821   2.359  -0.048
 2282TIP3   OH2 6790   4.989   5.665   0.629
 2282TIP3    H1 6791   4.897   5.676   0.605
 2282TIP3    H2 6792   5.014   5.749   0.667
 2283TIP3   OH2 6793   0.476   6.465   4.832
 2283TIP3    H1 6794   0.482   6.380   4.875
 2283TIP3    H2 6795   0.530   6.457   4.754
 2284TIP3   OH2 6796   7.931   0.603   1.435
 2284TIP3    H1 6797   7.951   0.535   1.372
 2284TIP3    H2 6798   7.926   0.683   1.383
 2285TIP3   OH2 6799   2.126   5.627   1.763
 2285TIP3    H1 6800   2.214   5.647   1.794
 2285TIP3    H2 6801   2.081   5.712   1.762
 2286TIP3   OH2 6802   5.981   6.337   5.684
 2286TIP3    H1 6803   5.901   6.366   5.728
 2286TIP3    H2 6804   6.052   6.377   5.734
 2287TIP3   OH2 6805   5.509   7.735   1.658
 2287TIP3    H1 6806   5.467   7.651   1.640
 2287TIP3    H2 6807   5.436   7.796   1.669
 2288TIP3   OH2 6808   6.925   0.396   4.889
 2288TIP3    H1 6809   6.890   0.390   4.800
 2288TIP3    H2 6810   7.012   0.357   4.883
 2289TIP3   OH2 6811   5.087   6.407   3.146
 2289TIP3    H1 6812   5.101   6.483   3.203
 2289TIP3    H2 6813   5.087   6.332   3.206
 2290TIP3   OH2 6814   6.872   6.337   0.872
 2290TIP3    H1 6815   6.865   6.348   0.777
 2290TIP3    H2 6816   6.820   6.260   0.891
 2291TIP3   OH2 6817   6.777   7.428   4.619
 2291TIP3    H1 6818   6.825   7.349   4.595
 2291TIP3    H2 6819   6.840   7.499   4.604
 2292TIP3   OH2 6820   6.805   3.819   3.923
 2292TIP3    H1 6821   6.824   3.913   3.920
 2292TIP3    H2 6822   6.712   3.814   3.944
 2293TIP3   OH2 6823   0.465   3.529   3.402
 2293TIP3    H1 6824   0.481   3.592   3.472
 2293TIP3    H2 6825   0.531   3.461   3.416
 2294TIP3   OH2 6826   4.098   2.364   4.071
 2294TIP3    H1 6827   4.159   2.437   4.075
 2294TIP3    H2 6828   4.053   2.373   3.987
 2295TIP3   OH2 6829   2.661   0.703   5.383
 2295TIP3    H1 6830   2.569   0.704   5.357
 2295TIP3    H2 6831   2.678   0.612   5.406
 2296TIP3   OH2 6832   7.437   7.134   3.490
 2296TIP3    H1 6833   7.416   7.040   3.495
 2296TIP3    H2 6834   7.423   7.156   3.398
 2297TIP3   OH2 6835   4.294   2.533   4.833
 2297TIP3    H1 6836   4.355   2.462   4.854
 2297TIP3    H2 6837   4.219   2.518   4.889
 2298TIP3   OH2 6838   3.233   0.888   0.450
 2298TIP3    H1 6839   3.315   0.934   0.430
 2298TIP3    H2 6840   3.243   0.803   0.407
 2299TIP3   OH2 6841   4.116   5.300   3.772
 2299TIP3    H1 6842   4.049   5.353   3.815
 2299TIP3    H2 6843   4.112   5.215   3.816
 2300TIP3   OH2 6844   0.102   4.511   2.117
 2300TIP3    H1 6845   0.128   4.602   2.103
 2300TIP3    H2 6846   0.185   4.465   2.131
 2301TIP3   OH2 6847   1.317   3.389   3.325
 2301TIP3    H1 6848   1.407   3.414   3.346
 2301TIP3    H2 6849   1.307   3.300   3.361
 2302TIP3   OH2 6850   7.129   3.187   5.167
 2302TIP3    H1 6851   7.179   3.233   5.100
 2302TIP3    H2 6852   7.069   3.253   5.202
 2303TIP3   OH2 6853   4.441   5.936   2.875
 2303TIP3    H1 6854   4.535   5.926   2.860
 2303TIP3    H2 6855   4.411   5.994   2.805
 2304TIP3   OH2 6856   0.672   6.270   2.288
 2304TIP3    H1 6857   0.762   6.241   2.270
 2304TIP3    H2 6858   0.682   6.341   2.350
 2305TIP3   OH2 6859   0.862   5.187   6.150
 2305TIP3    H1 6860   0.933   5.154   6.094
 2305TIP3    H2 6861   0.878   5.281   6.156
 2306TIP3   OH2 6862   7.665   2.933   6.498
 2306TIP3    H1 6863   7.643   3.026   6.501
 2306TIP3    H2 6864   7.719   2.924   6.420
 2307TIP3   OH2 6865   3.231   2.068   1.295
 2307TIP3    H1 6866   3.137   2.064   1.315
 2307TIP3    H2 6867   3.234   2.082   1.200
 2308TIP3   OH2 6868   4.695   5.162   1.566
 2308TIP3    H1 6869   4.778   5.120   1.542
 2308TIP3    H2 6870   4.699   5.248   1.525
 2309TIP3   OH2 6871   4.032   5.037   3.194
 2309TIP3    H1 6872   4.120   5.062   3.166
 2309TIP3    H2 6873   4.036   4.942   3.205
 2310TIP3   OH2 6874   2.195   3.456   3.728
 2310TIP3    H1 6875   2.211   3.434   3.819
 2310TIP3    H2 6876   2.106   3.424   3.710
 2311TIP3   OH2 6877   4.045   0.489   5.127
 2311TIP3    H1 6878   3.950   0.497   5.137
 2311TIP3    H2 6879   4.075   0.449   5.209
 2312TIP3   OH2 6880   5.292   4.192   2.521
 2312TIP3    H1 6881   5.336   4.116   2.559
 2312TIP3    H2 6882   5.220   4.211   2.582
 2313TIP3   OH2 6883   4.889   6.933   1.923
 2313TIP3    H1 6884   4.897   6.957   2.015
 2313TIP3    H2 6885   4.930   6.847   1.917
 2314TIP3   OH2 6886   5.603   4.970   4.377
 2314TIP3    H1 6887   5.548   4.965   4.455
 2314TIP3    H2 6888   5.653   5.051   4.388
 2315TIP3   OH2 6889   6.711   1.677   1.309
 2315TIP3    H1 6890   6.791   1.670   1.362
 2315TIP3    H2 6891   6.659   1.600   1.334
 2316TIP3   OH2 6892   3.453   0.095   4.069
 2316TIP3    H1 6893   3.434   0.110   3.977
 2316TIP3    H2 6894   3.389   0.029   4.096
 2317TIP3   OH2 6895   3.272   1.521   0.896
 2317TIP3    H1 6896   3.350   1.506   0.844
 2317TIP3    H2 6897   3.199   1.499   0.838
 2318TIP3   OH2 6898   2.569   4.629   6.728
 2318TIP3    H1 6899   2.480   4.660   6.745
 2318TIP3    H2 6900   2.621   4.709   6.720
 2319TIP3   OH2 6901   3.438   7.062   1.090
 2319TIP3    H1 6902   3.360   7.052   1.144
 2319TIP3    H2 6903   3.410   7.040   1.001
 2320TIP3   OH2 6904   0.744   7.246   3.983
 2320TIP3    H1 6905   0.733   7.332   3.942
 2320TIP3    H2 6906   0.839   7.235   3.990
 2321TIP3   OH2 6907   3.812   2.916   6.257
 2321TIP3    H1 6908   3.823   2.961   6.341
 2321TIP3    H2 6909   3.728   2.946   6.223
 2322TIP3   OH2 6910   0.387   2.483   4.687
 2322TIP3    H1 6911   0.474   2.444   4.701
 2322TIP3    H2 6912   0.365   2.461   4.596
 2323TIP3   OH2 6913   6.501   0.063   1.803
 2323TIP3    H1 6914   6.586   0.104   1.789
 2323TIP3    H2 6915   6.498   0.047   1.897
 2324TIP3   OH2 6916   7.481   5.210   5.093
 2324TIP3    H1 6917   7.389   5.209   5.119
 2324TIP3    H2 6918   7.487   5.140   5.028
 2325TIP3   OH2 6919   1.844   7.038   0.780
 2325TIP3    H1 6920   1.775   7.102   0.798
 2325TIP3    H2 6921   1.808   6.984   0.710
 2326TIP3   OH2 6922   0.667   4.739   5.339
 2326TIP3    H1 6923   0.700   4.824   5.367
 2326TIP3    H2 6924   0.583   4.730   5.383
 2327TIP3   OH2 6925   5.375   0.705   6.063
 2327TIP3    H1 6926   5.432   0.628   6.064
 2327TIP3    H2 6927   5.419   0.767   6.004
 2328TIP3   OH2 6928   2.042   3.737   5.269
 2328TIP3    H1 6929   2.133   3.744   5.240
 2328TIP3    H2 6930   2.047   3.736   5.365
 2329TIP3   OH2 6931   2.144   5.706   5.499
 2329TIP3    H1 6932   2.235   5.680   5.483
 2329TIP3    H2 6933   2.093   5.627   5.481
 2330TIP3   OH2 6934   6.055   4.115   2.409
 2330TIP3    H1 6935   6.087   4.064   2.483
 2330TIP3    H2 6936   5.960   4.115   2.419
 2331TIP3   OH2 6937   4.728   7.627   3.087
 2331TIP3    H1 6938   4.778   7.582   3.155
 2331TIP3    H2 6939   4.716   7.716   3.120
 2332TIP3   OH2 6940   7.468   1.432   3.517
 2332TIP3    H1 6941   7.395   1.384   3.554
 2332TIP3    H2 6942   7.530   1.364   3.489
 2333TIP3   OH2 6943   0.260   6.096   4.990
 2333TIP3    H1 6944   0.338   6.070   4.941
 2333TIP3    H2 6945   0.283   6.181   5.028
 2334TIP3   OH2 6946   1.203   2.398   5.104
 2334TIP3    H1 6947   1.288   2.366   5.074
 2334TIP3    H2 6948   1.224   2.462   5.172
 2335TIP3   OH2 6949   0.987   3.095   4.795
 2335TIP3    H1 6950   0.983   3.186   4.766
 2335TIP3    H2 6951   1.039   3.098   4.875
 2336TIP3   OH2 6952   1.679   0.628   2.325
 2336TIP3    H1 6953   1.685   0.704   2.384
 2336TIP3    H2 6954   1.724   0.657   2.245
 2337TIP3   OH2 6955   2.797   0.026   6.216
 2337TIP3    H1 6956   2.808   0.063   6.304
 2337TIP3    H2 6957   2.735  -0.046   6.228
 2338TIP3   OH2 6958   0.390   4.033   3.668
 2338TIP3    H1 6959   0.356   3.944   3.678
 2338TIP3    H2 6960   0.355   4.062   3.583
 2339TIP3   OH2 6961   4.056   4.697   6.097
 2339TIP3    H1 6962   3.999   4.642   6.152
 2339TIP3    H2 6963   4.101   4.755   6.159
 2340TIP3   OH2 6964   2.209   4.303   1.241
 2340TIP3    H1 6965   2.117   4.281   1.226
 2340TIP3    H2 6966   2.248   4.303   1.153
 2341TIP3   OH2 6967   4.365   1.362   4.288
 2341TIP3    H1 6968   4.394   1.410   4.366
 2341TIP3    H2 6969   4.403   1.410   4.214
 2342TIP3   OH2 6970   1.632   4.762   1.827
 2342TIP3    H1 6971   1.703   4.823   1.845
 2342TIP3    H2 6972   1.674   4.690   1.779
 2343TIP3   OH2 6973   5.737   4.265   0.465
 2343TIP3    H1 6974   5.651   4.240   0.430
 2343TIP3    H2 6975   5.749   4.356   0.437
 2344TIP3   OH2 6976   6.459   6.913   4.662
 2344TIP3    H1 6977   6.471   6.925   4.568
 2344TIP3    H2 6978   6.411   6.831   4.670
 2345TIP3   OH2 6979   5.281   2.580   0.352
 2345TIP3    H1 6980   5.303   2.668   0.383
 2345TIP3    H2 6981   5.336   2.522   0.404
 2346TIP3   OH2 6982   5.324   2.440   3.868
 2346TIP3    H1 6983   5.235   2.475   3.873
 2346TIP3    H2 6984   5.352   2.431   3.960
 2347TIP3   OH2 6985   1.008   1.787   6.240
 2347TIP3    H1 6986   0.957   1.864   6.213
 2347TIP3    H2 6987   1.053   1.815   6.319
 2348TIP3   OH2 6988   4.045   0.602   6.344
 2348TIP3    H1 6989   3.977   0.627   6.281
 2348TIP3    H2 6990   4.037   0.667   6.414
 2349TIP3   OH2 6991   5.919   4.906   4.869
 2349TIP3    H1 6992   5.884   4.829   4.914
 2349TIP3    H2 6993   5.891   4.895   4.778
 2350TIP3   OH2 6994   6.111   5.755   1.679
 2350TIP3    H1 6995   6.019   5.763   1.656
 2350TIP3    H2 6996   6.112   5.699   1.757
 2351TIP3   OH2 6997   1.182   0.265   1.969
 2351TIP3    H1 6998   1.132   0.347   1.964
 2351TIP3    H2 6999   1.236   0.274   2.048
 2352TIP3   OH2 7000   2.180   2.288   5.381
 2352TIP3    H1 7001   2.097   2.284   5.428
 2352TIP3    H2 7002   2.208   2.197   5.372
 2353TIP3   OH2 7003   2.512   0.698   4.623
 2353TIP3    H1 7004   2.469   0.778   4.595
 2353TIP3    H2 7005   2.517   0.644   4.544
 2354TIP3   OH2 7006   6.094   6.899   3.295
 2354TIP3    H1 7007   6.158   6.957   3.336
 2354TIP3    H2 7008   6.106   6.913   3.201
 2355TIP3   OH2 7009   8.013   3.978   6.476
 2355TIP3    H1 7010   7.951   3.938   6.415
 2355TIP3    H2 7011   8.065   3.905   6.509
 2356TIP3   OH2 7012   1.476   7.308   6.099
 2356TIP3    H1 7013   1.566   7.316   6.131
 2356TIP3    H2 7014   1.427   7.371   6.151
 2357TIP3   OH2 7015   1.280   7.198   1.572
 2357TIP3    H1 7016   1.368   7.177   1.603
 2357TIP3    H2 7017   1.280   7.293   1.562
 2358TIP3   OH2 7018   6.468   0.097   5.663
 2358TIP3    H1 7019   6.407   0.168   5.683
 2358TIP3    H2 7020   6.414   0.032   5.618
 2359TIP3   OH2 7021   0.534   4.507   2.915
 2359TIP3    H1 7022   0.511   4.554   2.995
 2359TIP3    H2 7023   0.451   4.499   2.868
 2360TIP3   OH2 7024   6.489   1.520   4.586
 2360TIP3    H1 7025   6.452   1.556   4.506
 2360TIP3    H2 7026   6.557   1.460   4.555
 2361TIP3   OH2 7027   2.421   1.094   1.167
 2361TIP3    H1 7028   2.390   1.012   1.205
 2361TIP3    H2 7029   2.360   1.112   1.096
 2362TIP3   OH2 7030   2.607   1.870   2.604
 2362TIP3    H1 7031   2.573   1.797   2.552
 2362TIP3    H2 7032   2.668   1.915   2.546
 2363TIP3   OH2 7033   0.945   7.649   2.256
 2363TIP3    H1 7034   0.976   7.736   2.232
 2363TIP3    H2 7035   1.007   7.589   2.216
 2364TIP3   OH2 7036   2.602   2.902   1.996
 2364TIP3    H1 7037   2.630   2.812   1.977
 2364TIP3    H2 7038   2.519   2.892   2.041
 2365TIP3   OH2 7039   5.443   0.593   3.151
 2365TIP3    H1 7040   5.396   0.587   3.068
 2365TIP3    H2 7041   5.376   0.619   3.214
 2366TIP3   OH2 7042   1.311   4.465   4.477
 2366TIP3    H1 7043   1.323   4.556   4.503
 2366TIP3    H2 7044   1.313   4.467   4.381
 2367TIP3   OH2 7045   6.643   6.070   5.238
 2367TIP3    H1 7046   6.738   6.075   5.227
 2367TIP3    H2 7047   6.622   5.979   5.221
 2368TIP3   OH2 7048   7.076   7.123   0.852
 2368TIP3    H1 7049   6.989   7.083   0.851
 2368TIP3    H2 7050   7.105   7.116   0.943
 2369TIP3   OH2 7051   2.710   1.167   4.386
 2369TIP3    H1 7052   2.628   1.204   4.418
 2369TIP3    H2 7053   2.741   1.230   4.320
 2370TIP3   OH2 7054   5.480   3.088   3.337
 2370TIP3    H1 7055   5.547   3.154   3.319
 2370TIP3    H2 7056   5.505   3.013   3.283
 2371TIP3   OH2 7057   0.633   7.390   0.764
 2371TIP3    H1 7058   0.660   7.363   0.676
 2371TIP3    H2 7059   0.539   7.371   0.767
 2372TIP3   OH2 7060   3.691   4.149   0.471
 2372TIP3    H1 7061   3.737   4.171   0.552
 2372TIP3    H2 7062   3.617   4.096   0.499
 2373TIP3   OH2 7063   7.845   4.875   3.039
 2373TIP3    H1 7064   7.938   4.859   3.055
 2373TIP3    H2 7065   7.802   4.794   3.069
 2374TIP3   OH2 7066   6.460   2.238   6.555
 2374TIP3    H1 7067   6.448   2.165   6.616
 2374TIP3    H2 7068   6.543   2.278   6.581
 2375TIP3   OH2 7069   3.414   2.128   5.143
 2375TIP3    H1 7070   3.357   2.163   5.212
 2375TIP3    H2 7071   3.354   2.090   5.079
 2376TIP3   OH2 7072   2.556   2.613   2.808
 2376TIP3    H1 7073   2.511   2.602   2.724
 2376TIP3    H2 7074   2.624   2.678   2.790
 2377TIP3   OH2 7075   3.305   5.908   2.392
 2377TIP3    H1 7076   3.215   5.897   2.423
 2377TIP3    H2 7077   3.346   5.964   2.458
 2378TIP3   OH2 7078   3.179   6.319   3.682
 2378TIP3    H1 7079   3.254   6.261   3.674
 2378TIP3    H2 7080   3.105   6.262   3.701
 2379TIP3   OH2 7081   0.740   5.014   1.408
 2379TIP3    H1 7082   0.708   5.071   1.338
 2379TIP3    H2 7083   0.687   4.934   1.399
 2380TIP3   OH2 7084   7.073   2.256   6.721
 2380TIP3    H1 7085   7.154   2.215   6.689
 2380TIP3    H2 7086   7.103   2.331   6.772
 2381TIP3   OH2 7087   2.774   5.086   1.476
 2381TIP3    H1 7088   2.818   5.029   1.412
 2381TIP3    H2 7089   2.845   5.133   1.518
 2382TIP3   OH2 7090   4.049   1.735   4.137
 2382TIP3    H1 7091   4.028   1.820   4.099
 2382TIP3    H2 7092   4.032   1.746   4.231
 2383TIP3   OH2 7093   4.540   4.098   0.186
 2383TIP3    H1 7094   4.452   4.117   0.218
 2383TIP3    H2 7095   4.532   4.012   0.144
 2384TIP3   OH2 7096   3.070   6.763   0.603
 2384TIP3    H1 7097   3.163   6.741   0.602
 2384TIP3    H2 7098   3.059   6.816   0.682
 2385TIP3   OH2 7099   8.165   0.021   4.489
 2385TIP3    H1 7100   8.076   0.039   4.520
 2385TIP3    H2 7101   8.154  -0.011   4.400
 2386TIP3   OH2 7102   6.261   3.518   2.300
 2386TIP3    H1 7103   6.342   3.555   2.334
 2386TIP3    H2 7104   6.192   3.563   2.348
 2387TIP3   OH2 7105   4.217   6.213   3.561
 2387TIP3    H1 7106   4.265   6.268   3.623
 2387TIP3    H2 7107   4.283   6.154   3.525
 2388TIP3   OH2 7108   8.022   2.671   1.514
 2388TIP3    H1 7109   7.980   2.676   1.428
 2388TIP3    H2 7110   8.018   2.760   1.548
 2389TIP3   OH2 7111   5.717   4.066   5.549
 2389TIP3    H1 7112   5.735   4.133   5.615
 2389TIP3    H2 7113   5.726   4.111   5.465
 2390TIP3   OH2 7114   3.604   3.462   4.414
 2390TIP3    H1 7115   3.569   3.536   4.463
 2390TIP3    H2 7116   3.694   3.452   4.447
 2391TIP3   OH2 7117   7.124   5.643   0.088
 2391TIP3    H1 7118   7.200   5.607   0.132
 2391TIP3    H2 7119   7.107   5.726   0.133
 2392TIP3   OH2 7120   7.443   3.759   6.278
 2392TIP3    H1 7121   7.378   3.747   6.208
 2392TIP3    H2 7122   7.445   3.674   6.322
 2393TIP3   OH2 7123   8.277   4.968   5.479
 2393TIP3    H1 7124   8.215   5.010   5.538
 2393TIP3    H2 7125   8.351   5.029   5.473
 2394TIP3   OH2 7126   4.332   1.662   5.201
 2394TIP3    H1 7127   4.382   1.583   5.178
 2394TIP3    H2 7128   4.396   1.734   5.192
 2395TIP3   OH2 7129   3.702   7.561   3.721
 2395TIP3    H1 7130   3.757   7.531   3.649
 2395TIP3    H2 7131   3.670   7.480   3.761
 2396TIP3   OH2 7132   6.584   1.602   1.061
 2396TIP3    H1 7133   6.530   1.623   1.138
 2396TIP3    H2 7134   6.652   1.669   1.062
 2397TIP3   OH2 7135   5.473   3.563   5.739
 2397TIP3    H1 7136   5.523   3.630   5.786
 2397TIP3    H2 7137   5.395   3.610   5.709
 2398TIP3   OH2 7138   4.900   0.605   2.120
 2398TIP3    H1 7139   4.819   0.572   2.082
 2398TIP3    H2 7140   4.922   0.681   2.066
 2399TIP3   OH2 7141   5.197   1.772   6.482
 2399TIP3    H1 7142   5.138   1.731   6.420
 2399TIP3    H2 7143   5.171   1.737   6.567
 2400TIP3   OH2 7144   0.605   4.895   3.072
 2400TIP3    H1 7145   0.540   4.949   3.028
 2400TIP3    H2 7146   0.689   4.929   3.042
 2401TIP3   OH2 7147   6.595   0.693   4.740
 2401TIP3    H1 7148   6.589   0.778   4.697
 2401TIP3    H2 7149   6.679   0.658   4.710
 2402TIP3   OH2 7150   6.150   7.266   4.171
 2402TIP3    H1 7151   6.236   7.297   4.200
 2402TIP3    H2 7152   6.102   7.248   4.252
 2403TIP3   OH2 7153   6.670   1.025   1.196
 2403TIP3    H1 7154   6.576   1.033   1.184
 2403TIP3    H2 7155   6.691   1.085   1.267
 2404TIP3   OH2 7156   0.584   5.473   2.775
 2404TIP3    H1 7157   0.523   5.401   2.792
 2404TIP3    H2 7158   0.665   5.446   2.818
 2405TIP3   OH2 7159   7.779   5.016   6.760
 2405TIP3    H1 7160   7.729   4.935   6.747
 2405TIP3    H2 7161   7.866   4.996   6.728
 2406TIP3   OH2 7162   2.235   6.399   5.776
 2406TIP3    H1 7163   2.230   6.489   5.809
 2406TIP3    H2 7164   2.282   6.351   5.844
 2407TIP3   OH2 7165   1.060   2.381   0.634
 2407TIP3    H1 7166   1.149   2.351   0.616
 2407TIP3    H2 7167   1.070   2.472   0.664
 2408TIP3   OH2 7168   2.896   1.515   2.987
 2408TIP3    H1 7169   2.952   1.581   2.947
 2408TIP3    H2 7170   2.952   1.471   3.051
 2409TIP3   OH2 7171   0.820   4.439   4.389
 2409TIP3    H1 7172   0.757   4.507   4.414
 2409TIP3    H2 7173   0.817   4.375   4.461
 2410TIP3   OH2 7174   7.383   1.355   6.572
 2410TIP3    H1 7175   7.344   1.422   6.628
 2410TIP3    H2 7176   7.337   1.274   6.596
 2411TIP3   OH2 7177   3.849   6.467   2.558
 2411TIP3    H1 7178   3.850   6.449   2.652
 2411TIP3    H2 7179   3.809   6.554   2.551
 2412TIP3   OH2 7180   2.011   1.505   1.741
 2412TIP3    H1 7181   1.992   1.413   1.722
 2412TIP3    H2 7182   1.930   1.552   1.721
 2413TIP3   OH2 7183   7.517   4.431   5.697
 2413TIP3    H1 7184   7.484   4.514   5.731
 2413TIP3    H2 7185   7.608   4.427   5.727
 2414TIP3   OH2 7186   5.747   0.912   0.878
 2414TIP3    H1 7187   5.839   0.922   0.853
 2414TIP3    H2 7188   5.733   0.978   0.945
 2415TIP3   OH2 7189   5.131   2.156   2.564
 2415TIP3    H1 7190   5.151   2.249   2.576
 2415TIP3    H2 7191   5.099   2.150   2.474
 2416TIP3   OH2 7192   0.456   0.963   1.068
 2416TIP3    H1 7193   0.535   0.971   1.123
 2416TIP3    H2 7194   0.386   0.943   1.130
 2417TIP3   OH2 7195   0.106   1.580   6.291
 2417TIP3    H1 7196   0.026   1.628   6.269
 2417TIP3    H2 7197   0.082   1.488   6.285
 2418TIP3   OH2 7198   1.034   0.799   0.590
 2418TIP3    H1 7199   1.033   0.754   0.674
 2418TIP3    H2 7200   0.962   0.758   0.541
 2419TIP3   OH2 7201   4.292   7.489   5.526
 2419TIP3    H1 7202   4.248   7.572   5.546
 2419TIP3    H2 7203   4.221   7.429   5.506
 2420TIP3   OH2 7204   5.522   1.891   3.266
 2420TIP3    H1 7205   5.448   1.940   3.230
 2420TIP3    H2 7206   5.525   1.917   3.358
 2421TIP3   OH2 7207   0.363   2.060   0.037
 2421TIP3    H1 7208   0.352   2.090   0.127
 2421TIP3    H2 7209   0.288   2.097  -0.010
 2422TIP3   OH2 7210   2.726   5.469   3.556
 2422TIP3    H1 7211   2.813   5.489   3.591
 2422TIP3    H2 7212   2.741   5.402   3.490
 2423TIP3   OH2 7213   2.056   6.521   6.705
 2423TIP3    H1 7214   1.967   6.509   6.739
 2423TIP3    H2 7215   2.051   6.603   6.655
 2424TIP3   OH2 7216   7.808   1.618   0.258
 2424TIP3    H1 7217   7.802   1.702   0.304
 2424TIP3    H2 7218   7.842   1.640   0.172
 2425TIP3   OH2 7219   6.776   7.383   0.007
 2425TIP3    H1 7220   6.850   7.356   0.062
 2425TIP3    H2 7221   6.813   7.446  -0.055
 2426TIP3   OH2 7222   7.855   4.626   4.416
 2426TIP3    H1 7223   7.908   4.622   4.336
 2426TIP3    H2 7224   7.906   4.577   4.480
 2427TIP3   OH2 7225   0.386   7.454   6.221
 2427TIP3    H1 7226   0.298   7.471   6.256
 2427TIP3    H2 7227   0.428   7.541   6.220
 2428TIP3   OH2 7228   5.305   5.635   1.273
 2428TIP3    H1 7229   5.318   5.552   1.228
 2428TIP3    H2 7230   5.389   5.654   1.315
 2429TIP3   OH2 7231   4.637   4.911   6.626
 2429TIP3    H1 7232   4.586   4.861   6.690
 2429TIP3    H2 7233   4.725   4.916   6.664
 2430TIP3   OH2 7234   4.125   1.631   3.079
 2430TIP3    H1 7235   4.135   1.723   3.101
 2430TIP3    H2 7236   4.147   1.585   3.160
 2431TIP3   OH2 7237   0.725   0.208   4.020
 2431TIP3    H1 7238   0.804   0.161   4.047
 2431TIP3    H2 7239   0.744   0.237   3.931
 2432TIP3   OH2 7240   6.795   0.073   6.627
 2432TIP3    H1 7241   6.804  -0.015   6.663
 2432TIP3    H2 7242   6.863   0.124   6.671
 2433TIP3   OH2 7243   6.643   1.978   0.582
 2433TIP3    H1 7244   6.710   2.015   0.639
 2433TIP3    H2 7245   6.648   1.883   0.598
 2434TIP3   OH2 7246   7.996   6.435   3.814
 2434TIP3    H1 7247   7.948   6.393   3.743
 2434TIP3    H2 7248   8.018   6.521   3.780
 2435TIP3   OH2 7249   2.138   5.882   2.296
 2435TIP3    H1 7250   2.134   5.973   2.265
 2435TIP3    H2 7251   2.159   5.890   2.389
 2436TIP3   OH2 7252   6.893   2.582   4.901
 2436TIP3    H1 7253   6.903   2.673   4.873
 2436TIP3    H2 7254   6.935   2.530   4.833
 2437TIP3   OH2 7255   2.639   0.064   3.821
 2437TIP3    H1 7256   2.635   0.103   3.908
 2437TIP3    H2 7257   2.732   0.041   3.809
 2438TIP3   OH2 7258   6.415   6.615   0.765
 2438TIP3    H1 7259   6.400   6.542   0.825
 2438TIP3    H2 7260   6.471   6.578   0.696
 2439TIP3   OH2 7261   1.519   7.574   0.342
 2439TIP3    H1 7262   1.591   7.623   0.383
 2439TIP3    H2 7263   1.502   7.620   0.260
 2440TIP3   OH2 7264   8.099   0.653   6.610
 2440TIP3    H1 7265   8.003   0.651   6.617
 2440TIP3    H2 7266   8.121   0.574   6.560
 2441TIP3   OH2 7267   4.398   0.534   3.667
 2441TIP3    H1 7268   4.459   0.461   3.654
 2441TIP3    H2 7269   4.325   0.514   3.608
 2442TIP3   OH2 7270   6.369   7.318   0.857
 2442TIP3    H1 7271   6.302   7.282   0.798
 2442TIP3    H2 7272   6.452   7.299   0.813
 2443TIP3   OH2 7273   2.272   3.496   5.472
 2443TIP3    H1 7274   2.287   3.432   5.541
 2443TIP3    H2 7275   2.184   3.476   5.439
 2444TIP3   OH2 7276   6.528   7.328   0.106
 2444TIP3    H1 7277   6.541   7.234   0.101
 2444TIP3    H2 7278   6.614   7.366   0.084
 2445TIP3   OH2 7279   0.024   4.118   2.436
 2445TIP3    H1 7280  -0.048   4.060   2.458
 2445TIP3    H2 7281   0.014   4.135   2.342
 2446TIP3   OH2 7282   3.802   1.576   1.116
 2446TIP3    H1 7283   3.780   1.546   1.204
 2446TIP3    H2 7284   3.762   1.662   1.108
 2447TIP3   OH2 7285   0.381   4.165   6.377
 2447TIP3    H1 7286   0.383   4.093   6.439
 2447TIP3    H2 7287   0.463   4.158   6.329
 2448TIP3   OH2 7288   6.264   3.688   0.569
 2448TIP3    H1 7289   6.244   3.778   0.595
 2448TIP3    H2 7290   6.257   3.688   0.474
 2449TIP3   OH2 7291   3.782   6.094   2.069
 2449TIP3    H1 7292   3.746   6.022   2.018
 2449TIP3    H2 7293   3.722   6.104   2.142
 2450TIP3   OH2 7294   7.129   4.425   6.586
 2450TIP3    H1 7295   7.182   4.351   6.558
 2450TIP3    H2 7296   7.162   4.499   6.535
 2451TIP3   OH2 7297   6.007   4.281   3.158
 2451TIP3    H1 7298   6.044   4.355   3.206
 2451TIP3    H2 7299   6.016   4.207   3.218
 2452TIP3   OH2 7300   2.457   5.426   6.204
 2452TIP3    H1 7301   2.542   5.454   6.169
 2452TIP3    H2 7302   2.473   5.339   6.240
 2453TIP3   OH2 7303   7.354   3.886   1.617
 2453TIP3    H1 7304   7.388   3.976   1.615
 2453TIP3    H2 7305   7.349   3.864   1.710
 2454TIP3   OH2 7306   3.179   4.424   5.138
 2454TIP3    H1 7307   3.103   4.458   5.186
 2454TIP3    H2 7308   3.155   4.431   5.046
 2455TIP3   OH2 7309   1.074   1.756   4.246
 2455TIP3    H1 7310   1.077   1.837   4.195
 2455TIP3    H2 7311   1.097   1.688   4.183
 2456TIP3   OH2 7312   5.386   5.010   5.824
 2456TIP3    H1 7313   5.364   5.062   5.902
 2456TIP3    H2 7314   5.377   4.919   5.852
 2457TIP3   OH2 7315   4.795   0.028   4.951
 2457TIP3    H1 7316   4.763   0.099   5.006
 2457TIP3    H2 7317   4.742   0.034   4.872
 2458TIP3   OH2 7318   6.701   6.281   1.798
 2458TIP3    H1 7319   6.689   6.304   1.706
 2458TIP3    H2 7320   6.745   6.197   1.796
 2459TIP3   OH2 7321   7.577   7.055   1.995
 2459TIP3    H1 7322   7.510   7.020   2.054
 2459TIP3    H2 7323   7.659   7.014   2.025
 2460TIP3   OH2 7324   5.971   0.056   6.286
 2460TIP3    H1 7325   6.008  -0.009   6.226
 2460TIP3    H2 7326   5.936   0.005   6.359
 2461TIP3   OH2 7327   4.974   3.070   2.375
 2461TIP3    H1 7328   4.918   3.051   2.300
 2461TIP3    H2 7329   4.929   3.140   2.422
 2462TIP3   OH2 7330   4.880   5.398   4.050
 2462TIP3    H1 7331   4.928   5.325   4.012
 2462TIP3    H2 7332   4.903   5.396   4.143
 2463TIP3   OH2 7333   0.884   3.735   1.606
 2463TIP3    H1 7334   0.924   3.648   1.599
 2463TIP3    H2 7335   0.905   3.764   1.695
 2464TIP3   OH2 7336   5.342   6.904   5.430
 2464TIP3    H1 7337   5.353   6.999   5.433
 2464TIP3    H2 7338   5.276   6.885   5.496
 2465TIP3   OH2 7339   0.681   0.150   1.382
 2465TIP3    H1 7340   0.631   0.145   1.300
 2465TIP3    H2 7341   0.645   0.080   1.436
 2466TIP3   OH2 7342   6.882   0.451   3.795
 2466TIP3    H1 7343   6.933   0.488   3.866
 2466TIP3    H2 7344   6.795   0.439   3.832
 2467TIP3   OH2 7345   4.872   4.517   6.473
 2467TIP3    H1 7346   4.949   4.476   6.434
 2467TIP3    H2 7347   4.843   4.580   6.408
 2468TIP3   OH2 7348   6.180   7.529   1.016
 2468TIP3    H1 7349   6.167   7.592   1.086
 2468TIP3    H2 7350   6.166   7.579   0.935
 2469TIP3   OH2 7351   6.320   3.007   1.782
 2469TIP3    H1 7352   6.289   2.958   1.857
 2469TIP3    H2 7353   6.378   2.947   1.736
 2470TIP3   OH2 7354   2.364   3.945   4.774
 2470TIP3    H1 7355   2.277   3.968   4.741
 2470TIP3    H2 7356   2.350   3.925   4.867
 2471TIP3   OH2 7357   4.370   1.235   5.336
 2471TIP3    H1 7358   4.296   1.277   5.380
 2471TIP3    H2 7359   4.399   1.299   5.271
 2472TIP3   OH2 7360   1.233   2.615   0.279
 2472TIP3    H1 7361   1.262   2.658   0.199
 2472TIP3    H2 7362   1.313   2.582   0.319
 2473TIP3   OH2 7363   2.737   1.541   0.168
 2473TIP3    H1 7364   2.677   1.497   0.228
 2473TIP3    H2 7365   2.779   1.610   0.221
 2474TIP3   OH2 7366   4.143   3.262   1.835
 2474TIP3    H1 7367   4.119   3.182   1.882
 2474TIP3    H2 7368   4.191   3.231   1.758
 2475TIP3   OH2 7369   5.735   6.429   1.656
 2475TIP3    H1 7370   5.822   6.389   1.658
 2475TIP3    H2 7371   5.732   6.483   1.735
 2476TIP3   OH2 7372   4.407   7.121   5.592
 2476TIP3    H1 7373   4.375   7.032   5.580
 2476TIP3    H2 7374   4.419   7.130   5.687
 2477TIP3   OH2 7375   1.420   3.677   0.706
 2477TIP3    H1 7376   1.377   3.699   0.624
 2477TIP3    H2 7377   1.359   3.617   0.750
 2478TIP3   OH2 7378   2.532   5.037   2.964
 2478TIP3    H1 7379   2.613   4.986   2.960
 2478TIP3    H2 7380   2.537   5.097   2.889
 2479TIP3   OH2 7381   5.351   5.629   5.267
 2479TIP3    H1 7382   5.308   5.592   5.344
 2479TIP3    H2 7383   5.285   5.687   5.229
 2480TIP3   OH2 7384   0.695   0.333   4.403
 2480TIP3    H1 7385   0.705   0.424   4.376
 2480TIP3    H2 7386   0.780   0.293   4.385
 2481TIP3   OH2 7387   4.142   2.084   2.902
 2481TIP3    H1 7388   4.063   2.054   2.857
 2481TIP3    H2 7389   4.116   2.164   2.947
 2482TIP3   OH2 7390   0.715   5.888   1.539
 2482TIP3    H1 7391   0.809   5.904   1.533
 2482TIP3    H2 7392   0.706   5.793   1.538
 2483TIP3   OH2 7393   4.393   0.872   3.855
 2483TIP3    H1 7394   4.391   0.956   3.809
 2483TIP3    H2 7395   4.411   0.895   3.947
 2484TIP3   OH2 7396   1.914   0.511   5.347
 2484TIP3    H1 7397   1.991   0.522   5.403
 2484TIP3    H2 7398   1.929   0.571   5.274
 2485TIP3   OH2 7399   0.423   4.543   5.895
 2485TIP3    H1 7400   0.400   4.517   5.984
 2485TIP3    H2 7401   0.351   4.600   5.867
 2486TIP3   OH2 7402   0.566   6.547   6.176
 2486TIP3    H1 7403   0.581   6.482   6.244
 2486TIP3    H2 7404   0.475   6.533   6.149
 2487TIP3   OH2 7405   5.177   2.980   2.606
 2487TIP3    H1 7406   5.130   3.022   2.534
 2487TIP3    H2 7407   5.258   2.949   2.567
 2488TIP3   OH2 7408   7.128   7.298   4.085
 2488TIP3    H1 7409   7.077   7.273   4.009
 2488TIP3    H2 7410   7.193   7.228   4.094
 2489TIP3   OH2 7411   7.068   4.778   0.190
 2489TIP3    H1 7412   7.043   4.693   0.228
 2489TIP3    H2 7413   7.164   4.776   0.189
 2490TIP3   OH2 7414   4.390   5.861   2.432
 2490TIP3    H1 7415   4.319   5.868   2.367
 2490TIP3    H2 7416   4.465   5.903   2.390
 2491TIP3   OH2 7417   6.371   7.128   5.165
 2491TIP3    H1 7418   6.465   7.138   5.180
 2491TIP3    H2 7419   6.332   7.137   5.251
 2492TIP3   OH2 7420   3.070   6.278   6.124
 2492TIP3    H1 7421   3.013   6.316   6.192
 2492TIP3    H2 7422   3.024   6.198   6.097
 2493TIP3   OH2 7423   7.893   3.641   4.327
 2493TIP3    H1 7424   7.827   3.634   4.396
 2493TIP3    H2 7425   7.869   3.721   4.279
 2494TIP3   OH2 7426   4.426   3.163   4.542
 2494TIP3    H1 7427   4.392   3.220   4.610
 2494TIP3    H2 7428   4.470   3.221   4.480
 2495TIP3   OH2 7429   7.803   1.394   3.262
 2495TIP3    H1 7430   7.737   1.342   3.308
 2495TIP3    H2 7431   7.764   1.413   3.177
 2496TIP3   OH2 7432   3.208   3.844   2.107
 2496TIP3    H1 7433   3.194   3.879   2.194
 2496TIP3    H2 7434   3.281   3.783   2.116
 2497TIP3   OH2 7435   8.245   5.353   0.259
 2497TIP3    H1 7436   8.199   5.414   0.316
 2497TIP3    H2 7437   8.274   5.283   0.317
 2498TIP3   OH2 7438   1.273   0.878   3.934
 2498TIP3    H1 7439   1.226   0.919   4.007
 2498TIP3    H2 7440   1.266   0.784   3.951
 2499TIP3   OH2 7441   8.128   6.287   4.615
 2499TIP3    H1 7442   8.091   6.365   4.573
 2499TIP3    H2 7443   8.162   6.319   4.699
 2500TIP3   OH2 7444   5.472   4.994   2.009
 2500TIP3    H1 7445   5.430   4.991   2.095
 2500TIP3    H2 7446   5.554   5.041   2.023
 2501TIP3   OH2 7447   7.648   7.142   6.191
 2501TIP3    H1 7448   7.561   7.172   6.166
 2501TIP3    H2 7449   7.659   7.172   6.281
 2502TIP3   OH2 7450   8.055   4.785   0.111
 2502TIP3    H1 7451   8.071   4.768   0.203
 2502TIP3    H2 7452   8.143   4.787   0.071
 2503TIP3   OH2 7453   6.960   2.509   3.538
 2503TIP3    H1 7454   6.941   2.441   3.603
 2503TIP3    H2 7455   6.874   2.531   3.502
 2504TIP3   OH2 7456   5.933   2.155   0.840
 2504TIP3    H1 7457   6.006   2.137   0.900
 2504TIP3    H2 7458   5.875   2.080   0.850
 2505TIP3   OH2 7459   0.395   7.568   5.739
 2505TIP3    H1 7460   0.315   7.547   5.692
 2505TIP3    H2 7461   0.370   7.639   5.798
 2506TIP3   OH2 7462   1.541   3.774   5.882
 2506TIP3    H1 7463   1.563   3.847   5.823
 2506TIP3    H2 7464   1.609   3.709   5.865
 2507TIP3   OH2 7465   2.121   1.795   0.864
 2507TIP3    H1 7466   2.161   1.709   0.875
 2507TIP3    H2 7467   2.036   1.787   0.907
 2508TIP3   OH2 7468   6.408   1.607   6.592
 2508TIP3    H1 7469   6.480   1.659   6.628
 2508TIP3    H2 7470   6.449   1.525   6.563
 2509TIP3   OH2 7471   4.396   1.669   6.114
 2509TIP3    H1 7472   4.368   1.756   6.085
 2509TIP3    H2 7473   4.387   1.673   6.209
 2510TIP3   OH2 7474   3.585   5.650   5.920
 2510TIP3    H1 7475   3.636   5.731   5.921
 2510TIP3    H2 7476   3.503   5.672   5.962
 2511TIP3   OH2 7477   3.405   4.426   6.077
 2511TIP3    H1 7478   3.377   4.335   6.074
 2511TIP3    H2 7479   3.343   4.469   6.136
 2512TIP3   OH2 7480   4.942   4.102   2.267
 2512TIP3    H1 7481   4.893   4.030   2.307
 2512TIP3    H2 7482   4.876   4.154   2.222
 2513TIP3   OH2 7483   6.439   2.555   4.172
 2513TIP3    H1 7484   6.442   2.644   4.138
 2513TIP3    H2 7485   6.396   2.504   4.102
 2514TIP3   OH2 7486   5.178   3.709   5.418
 2514TIP3    H1 7487   5.218   3.659   5.347
 2514TIP3    H2 7488   5.164   3.796   5.381
 2515TIP3   OH2 7489   6.398   2.144   4.357
 2515TIP3    H1 7490   6.432   2.213   4.415
 2515TIP3    H2 7491   6.414   2.063   4.405
 2516TIP3   OH2 7492   0.764   6.234   0.166
 2516TIP3    H1 7493   0.816   6.158   0.139
 2516TIP3    H2 7494   0.775   6.238   0.261
 2517TIP3   OH2 7495   3.411   5.405   0.968
 2517TIP3    H1 7496   3.454   5.478   0.922
 2517TIP3    H2 7497   3.412   5.333   0.905
 2518TIP3   OH2 7498   0.751   5.268   1.895
 2518TIP3    H1 7499   0.741   5.296   1.804
 2518TIP3    H2 7500   0.844   5.283   1.914
 2519TIP3   OH2 7501   0.447   5.163   3.931
 2519TIP3    H1 7502   0.404   5.147   4.015
 2519TIP3    H2 7503   0.437   5.081   3.882
 2520TIP3   OH2 7504   5.641   4.856   3.699
 2520TIP3    H1 7505   5.547   4.863   3.713
 2520TIP3    H2 7506   5.664   4.935   3.650
 2521TIP3   OH2 7507   1.337   7.297   3.527
 2521TIP3    H1 7508   1.348   7.355   3.602
 2521TIP3    H2 7509   1.308   7.355   3.456
 2522TIP3   OH2 7510   7.607   1.410   2.174
 2522TIP3    H1 7511   7.686   1.462   2.159
 2522TIP3    H2 7512   7.607   1.345   2.104
 2523TIP3   OH2 7513   7.923   7.366   5.464
 2523TIP3    H1 7514   7.882   7.323   5.538
 2523TIP3    H2 7515   7.850   7.391   5.407
 2524TIP3   OH2 7516   2.584   0.852   6.230
 2524TIP3    H1 7517   2.525   0.777   6.240
 2524TIP3    H2 7518   2.568   0.882   6.140
 2525TIP3   OH2 7519   7.199   0.257   1.449
 2525TIP3    H1 7520   7.244   0.176   1.473
 2525TIP3    H2 7521   7.196   0.308   1.530
 2526TIP3   OH2 7522   2.630   3.781   0.958
 2526TIP3    H1 7523   2.554   3.772   0.900
 2526TIP3    H2 7524   2.596   3.822   1.037
 2527TIP3   OH2 7525   6.319   3.121   1.034
 2527TIP3    H1 7526   6.411   3.096   1.037
 2527TIP3    H2 7527   6.289   3.110   1.125
 2528TIP3   OH2 7528   3.780   5.661   1.317
 2528TIP3    H1 7529   3.764   5.737   1.261
 2528TIP3    H2 7530   3.757   5.586   1.263
 2529TIP3   OH2 7531   2.534   1.580   0.897
 2529TIP3    H1 7532   2.576   1.535   0.970
 2529TIP3    H2 7533   2.440   1.563   0.909
 2530TIP3   OH2 7534   1.355   7.244   2.625
 2530TIP3    H1 7535   1.318   7.169   2.578
 2530TIP3    H2 7536   1.380   7.305   2.556
 2531TIP3   OH2 7537   0.733   4.383   6.638
 2531TIP3    H1 7538   0.643   4.370   6.610
 2531TIP3    H2 7539   0.784   4.379   6.557
 2532TIP3   OH2 7540   5.178   7.689   0.018
 2532TIP3    H1 7541   5.152   7.773  -0.021
 2532TIP3    H2 7542   5.103   7.632   0.006
 2533TIP3   OH2 7543   0.683   1.512   6.630
 2533TIP3    H1 7544   0.721   1.443   6.575
 2533TIP3    H2 7545   0.597   1.528   6.592
 2534TIP3   OH2 7546   0.962   5.410   0.696
 2534TIP3    H1 7547   0.982   5.319   0.675
 2534TIP3    H2 7548   0.899   5.405   0.768
 2535TIP3   OH2 7549   1.175   5.249   1.015
 2535TIP3    H1 7550   1.230   5.172   1.029
 2535TIP3    H2 7551   1.236   5.317   0.984
 2536TIP3   OH2 7552   1.819   4.201   6.609
 2536TIP3    H1 7553   1.759   4.208   6.684
 2536TIP3    H2 7554   1.764   4.222   6.534
 2537TIP3   OH2 7555   7.015   3.855   2.956
 2537TIP3    H1 7556   6.965   3.924   2.912
 2537TIP3    H2 7557   7.073   3.901   3.016
 2538TIP3   OH2 7558   0.050   3.913   3.013
 2538TIP3    H1 7559   0.003   3.984   3.056
 2538TIP3    H2 7560   0.142   3.926   3.039
 2539TIP3   OH2 7561   2.592   5.466   2.035
 2539TIP3    H1 7562   2.555   5.459   2.123
 2539TIP3    H2 7563   2.660   5.398   2.032
 2540TIP3   OH2 7564   6.725   3.783   1.986
 2540TIP3    H1 7565   6.638   3.745   2.000
 2540TIP3    H2 7566   6.768   3.722   1.926
 2541TIP3   OH2 7567   0.347   6.830   1.688
 2541TIP3    H1 7568   0.423   6.836   1.629
 2541TIP3    H2 7569   0.327   6.737   1.691
 2542TIP3   OH2 7570   4.933   7.347   3.627
 2542TIP3    H1 7571   5.023   7.316   3.613
 2542TIP3    H2 7572   4.881   7.297   3.564
 2543TIP3   OH2 7573   5.741   0.253   2.850
 2543TIP3    H1 7574   5.728   0.162   2.876
 2543TIP3    H2 7575   5.818   0.282   2.900
 2544TIP3   OH2 7576   1.333   6.533   4.310
 2544TIP3    H1 7577   1.374   6.461   4.358
 2544TIP3    H2 7578   1.388   6.610   4.330
 2545TIP3   OH2 7579   4.725   0.822   2.548
 2545TIP3    H1 7580   4.743   0.752   2.609
 2545TIP3    H2 7581   4.721   0.901   2.602
 2546TIP3   OH2 7582   6.120   0.470   0.838
 2546TIP3    H1 7583   6.055   0.521   0.887
 2546TIP3    H2 7584   6.163   0.535   0.781
 2547TIP3   OH2 7585   1.607   0.912   6.769
 2547TIP3    H1 7586   1.564   0.979   6.822
 2547TIP3    H2 7587   1.556   0.909   6.688
 2548TIP3   OH2 7588   2.333   1.710   0.130
 2548TIP3    H1 7589   2.392   1.767   0.179
 2548TIP3    H2 7590   2.253   1.761   0.120
 2549TIP3   OH2 7591   3.473   4.596   3.202
 2549TIP3    H1 7592   3.384   4.624   3.180
 2549TIP3    H2 7593   3.481   4.509   3.163
 2550TIP3   OH2 7594   0.078   1.622   5.728
 2550TIP3    H1 7595   0.106   1.584   5.645
 2550TIP3    H2 7596  -0.006   1.662   5.709
 2551TIP3   OH2 7597   4.096   4.769   3.212
 2551TIP3    H1 7598   4.118   4.764   3.305
 2551TIP3    H2 7599   4.167   4.723   3.168
 2552TIP3   OH2 7600   4.750   0.367   1.156
 2552TIP3    H1 7601   4.794   0.387   1.073
 2552TIP3    H2 7602   4.788   0.284   1.184
 2553TIP3   OH2 7603   5.977   0.813   3.120
 2553TIP3    H1 7604   5.926   0.805   3.201
 2553TIP3    H2 7605   5.933   0.754   3.058
 2554TIP3   OH2 7606   2.782   1.396   2.759
 2554TIP3    H1 7607   2.822   1.407   2.845
 2554TIP3    H2 7608   2.819   1.466   2.706
 2555TIP3   OH2 7609   1.324   7.147   4.627
 2555TIP3    H1 7610   1.299   7.140   4.719
 2555TIP3    H2 7611   1.242   7.138   4.579
 2556TIP3   OH2 7612   6.816   5.415   0.441
 2556TIP3    H1 7613   6.823   5.510   0.426
 2556TIP3    H2 7614   6.861   5.376   0.366
 2557TIP3   OH2 7615   3.743   1.213   0.693
 2557TIP3    H1 7616   3.735   1.278   0.762
 2557TIP3    H2 7617   3.836   1.188   0.693
 2558TIP3   OH2 7618   2.497   6.033   0.668
 2558TIP3    H1 7619   2.551   5.996   0.598
 2558TIP3    H2 7620   2.426   6.077   0.622
 2559TIP3   OH2 7621   5.808   3.371   4.557
 2559TIP3    H1 7622   5.713   3.375   4.567
 2559TIP3    H2 7623   5.835   3.299   4.613
 2560TIP3   OH2 7624   0.755   4.626   6.760
 2560TIP3    H1 7625   0.847   4.652   6.762
 2560TIP3    H2 7626   0.756   4.538   6.722
 2561TIP3   OH2 7627   4.649   5.286   5.943
 2561TIP3    H1 7628   4.680   5.363   5.990
 2561TIP3    H2 7629   4.573   5.316   5.894
 2562TIP3   OH2 7630   7.523   3.255   4.891
 2562TIP3    H1 7631   7.505   3.250   4.798
 2562TIP3    H2 7632   7.566   3.171   4.912
 2563TIP3   OH2 7633   0.614   2.788   4.134
 2563TIP3    H1 7634   0.547   2.764   4.070
 2563TIP3    H2 7635   0.570   2.782   4.219
 2564TIP3   OH2 7636   3.618   5.048   6.597
 2564TIP3    H1 7637   3.611   5.136   6.634
 2564TIP3    H2 7638   3.631   5.062   6.504
 2565TIP3   OH2 7639   1.352   5.530   1.618
 2565TIP3    H1 7640   1.405   5.454   1.641
 2565TIP3    H2 7641   1.304   5.551   1.698
 2566TIP3   OH2 7642   2.861   3.200   1.278
 2566TIP3    H1 7643   2.951   3.221   1.251
 2566TIP3    H2 7644   2.837   3.270   1.338
 2567TIP3   OH2 7645   7.833   6.971   2.036
 2567TIP3    H1 7646   7.902   6.928   2.086
 2567TIP3    H2 7647   7.852   6.949   1.945
 2568TIP3   OH2 7648   4.984   3.105   1.818
 2568TIP3    H1 7649   4.980   3.013   1.792
 2568TIP3    H2 7650   5.056   3.141   1.767
 2569TIP3   OH2 7651   5.691   3.481   0.993
 2569TIP3    H1 7652   5.757   3.477   0.924
 2569TIP3    H2 7653   5.608   3.490   0.945
 2570TIP3   OH2 7654   7.711   0.519   5.130
 2570TIP3    H1 7655   7.668   0.476   5.057
 2570TIP3    H2 7656   7.799   0.538   5.099
 2571TIP3   OH2 7657   7.868   4.974   4.624
 2571TIP3    H1 7658   7.849   5.067   4.626
 2571TIP3    H2 7659   7.832   4.939   4.705
 2572TIP3   OH2 7660   0.844   4.394   6.096
 2572TIP3    H1 7661   0.803   4.416   6.179
 2572TIP3    H2 7662   0.933   4.428   6.103
 2573TIP3   OH2 7663   0.619   3.284   2.198
 2573TIP3    H1 7664   0.583   3.257   2.283
 2573TIP3    H2 7665   0.630   3.379   2.207
 2574TIP3   OH2 7666   1.986   2.928   6.529
 2574TIP3    H1 7667   1.912   2.956   6.583
 2574TIP3    H2 7668   1.945   2.902   6.446
 2575TIP3   OH2 7669   1.835   5.980   5.378
 2575TIP3    H1 7670   1.823   5.892   5.342
 2575TIP3    H2 7671   1.919   6.009   5.342
 2576TIP3   OH2 7672   1.712   5.674   1.270
 2576TIP3    H1 7673   1.780   5.608   1.260
 2576TIP3    H2 7674   1.708   5.691   1.364
 2577TIP3   OH2 7675   1.263   5.084   3.641
 2577TIP3    H1 7676   1.172   5.089   3.610
 2577TIP3    H2 7677   1.271   4.996   3.677
 2578TIP3   OH2 7678   4.735   4.178   2.455
 2578TIP3    H1 7679   4.708   4.207   2.368
 2578TIP3    H2 7680   4.830   4.189   2.455
 2579TIP3   OH2 7681   7.166   3.368   2.140
 2579TIP3    H1 7682   7.148   3.360   2.234
 2579TIP3    H2 7683   7.086   3.405   2.103
 2580TIP3   OH2 7684   4.057   2.371   1.031
 2580TIP3    H1 7685   4.094   2.353   1.117
 2580TIP3    H2 7686   3.962   2.372   1.045
 2581TIP3   OH2 7687   5.839   4.303   4.772
 2581TIP3    H1 7688   5.826   4.211   4.746
 2581TIP3    H2 7689   5.850   4.350   4.690
 2582TIP3   OH2 7690   8.167   6.250   1.024
 2582TIP3    H1 7691   8.250   6.242   0.977
 2582TIP3    H2 7692   8.190   6.297   1.105
 2583TIP3   OH2 7693   4.275   4.727   0.519
 2583TIP3    H1 7694   4.235   4.660   0.575
 2583TIP3    H2 7695   4.322   4.677   0.452
 2584TIP3   OH2 7696   1.947   4.013   5.395
 2584TIP3    H1 7697   1.917   3.935   5.349
 2584TIP3    H2 7698   1.904   4.008   5.481
 2585TIP3   OH2 7699   3.057   5.850   2.113
 2585TIP3    H1 7700   3.090   5.773   2.159
 2585TIP3    H2 7701   3.097   5.845   2.026
 2586TIP3   OH2 7702   3.507   0.530   1.940
 2586TIP3    H1 7703   3.511   0.616   1.982
 2586TIP3    H2 7704   3.574   0.478   1.985
 2587TIP3   OH2 7705   6.239   4.034   2.025
 2587TIP3    H1 7706   6.209   4.004   2.111
 2587TIP3    H2 7707   6.248   3.954   1.974
 2588TIP3   OH2 7708   4.785   5.844   0.585
 2588TIP3    H1 7709   4.727   5.899   0.639
 2588TIP3    H2 7710   4.730   5.771   0.557
 2589TIP3   OH2 7711   5.229   3.307   0.734
 2589TIP3    H1 7712   5.235   3.390   0.687
 2589TIP3    H2 7713   5.205   3.331   0.823
 2590TIP3   OH2 7714   2.509   6.398   2.927
 2590TIP3    H1 7715   2.467   6.316   2.954
 2590TIP3    H2 7716   2.543   6.379   2.839
 2591TIP3   OH2 7717   3.145   3.750   1.097
 2591TIP3    H1 7718   3.143   3.843   1.121
 2591TIP3    H2 7719   3.152   3.750   1.002
 2592TIP3   OH2 7720   3.446   3.817   1.850
 2592TIP3    H1 7721   3.457   3.736   1.899
 2592TIP3    H2 7722   3.388   3.794   1.777
 2593TIP3   OH2 7723   3.021   3.413   4.140
 2593TIP3    H1 7724   3.092   3.430   4.078
 2593TIP3    H2 7725   2.962   3.487   4.130
 2594TIP3   OH2 7726   6.749   5.034   3.010
 2594TIP3    H1 7727   6.658   5.009   2.992
 2594TIP3    H2 7728   6.744   5.089   3.088
 2595TIP3   OH2 7729   5.709   3.202   0.111
 2595TIP3    H1 7730   5.652   3.270   0.148
 2595TIP3    H2 7731   5.659   3.167   0.037
 2596TIP3   OH2 7732   7.870   7.823   0.103
 2596TIP3    H1 7733   7.901   7.811   0.193
 2596TIP3    H2 7734   7.920   7.760   0.051
 2597TIP3   OH2 7735   6.544   6.707   0.346
 2597TIP3    H1 7736   6.620   6.760   0.320
 2597TIP3    H2 7737   6.468   6.762   0.327
 2598TIP3   OH2 7738   7.490   2.446   4.159
 2598TIP3    H1 7739   7.410   2.498   4.163
 2598TIP3    H2 7740   7.554   2.503   4.117
 2599TIP3   OH2 7741   6.381   6.005   3.767
 2599TIP3    H1 7742   6.453   6.029   3.709
 2599TIP3    H2 7743   6.370   5.911   3.753
 2600TIP3   OH2 7744   1.095   2.743   1.058
 2600TIP3    H1 7745   1.186   2.774   1.058
 2600TIP3    H2 7746   1.101   2.651   1.081
 2601TIP3   OH2 7747   5.208   1.194   5.078
 2601TIP3    H1 7748   5.233   1.113   5.033
 2601TIP3    H2 7749   5.115   1.183   5.098
 2602TIP3   OH2 7750   6.513   2.326   5.366
 2602TIP3    H1 7751   6.484   2.236   5.349
 2602TIP3    H2 7752   6.432   2.375   5.381
 2603TIP3   OH2 7753   4.661   5.069   2.961
 2603TIP3    H1 7754   4.695   5.021   2.886
 2603TIP3    H2 7755   4.711   5.151   2.961
 2604TIP3   OH2 7756   7.624   2.099   1.940
 2604TIP3    H1 7757   7.573   2.119   1.861
 2604TIP3    H2 7758   7.626   2.182   1.988
 2605TIP3   OH2 7759   7.564   4.973   4.694
 2605TIP3    H1 7760   7.473   4.993   4.716
 2605TIP3    H2 7761   7.566   4.975   4.598
 2606TIP3   OH2 7762   2.930   6.690   4.521
 2606TIP3    H1 7763   2.847   6.709   4.478
 2606TIP3    H2 7764   2.940   6.595   4.514
 2607TIP3   OH2 7765   7.821   3.107   2.935
 2607TIP3    H1 7766   7.828   3.094   2.840
 2607TIP3    H2 7767   7.732   3.141   2.948
 2608TIP3   OH2 7768   4.039   1.540   5.890
 2608TIP3    H1 7769   4.079   1.512   5.973
 2608TIP3    H2 7770   3.965   1.482   5.878
 2609TIP3   OH2 7771   5.231   7.665   0.736
 2609TIP3    H1 7772   5.173   7.606   0.785
 2609TIP3    H2 7773   5.266   7.611   0.665
 2610TIP3   OH2 7774   1.459   1.106   5.524
 2610TIP3    H1 7775   1.481   1.136   5.436
 2610TIP3    H2 7776   1.472   1.012   5.522
 2611TIP3   OH2 7777   3.212   7.455   0.629
 2611TIP3    H1 7778   3.229   7.480   0.538
 2611TIP3    H2 7779   3.174   7.367   0.622
 2612TIP3   OH2 7780   3.904   3.158   4.373
 2612TIP3    H1 7781   3.935   3.247   4.359
 2612TIP3    H2 7782   3.981   3.111   4.406
 2613TIP3   OH2 7783   0.648   6.447   2.513
 2613TIP3    H1 7784   0.627   6.526   2.463
 2613TIP3    H2 7785   0.725   6.471   2.564
 2614TIP3   OH2 7786   4.771   0.068   4.626
 2614TIP3    H1 7787   4.767   0.116   4.543
 2614TIP3    H2 7788   4.715  -0.008   4.611
 2615TIP3   OH2 7789   2.308   6.205   3.158
 2615TIP3    H1 7790   2.302   6.119   3.200
 2615TIP3    H2 7791   2.223   6.245   3.174
 2616TIP3   OH2 7792   3.110   2.856   6.509
 2616TIP3    H1 7793   3.083   2.941   6.476
 2616TIP3    H2 7794   3.043   2.832   6.573
 2617TIP3   OH2 7795   4.066   4.676   2.547
 2617TIP3    H1 7796   4.080   4.722   2.465
 2617TIP3    H2 7797   4.065   4.745   2.614
 2618TIP3   OH2 7798   3.599   7.523   2.341
 2618TIP3    H1 7799   3.546   7.443   2.340
 2618TIP3    H2 7800   3.554   7.582   2.281
 2619TIP3   OH2 7801   0.609   6.518   0.376
 2619TIP3    H1 7802   0.659   6.437   0.363
 2619TIP3    H2 7803   0.542   6.516   0.307
 2620TIP3   OH2 7804   6.759   5.775   0.875
 2620TIP3    H1 7805   6.736   5.762   0.783
 2620TIP3    H2 7806   6.677   5.758   0.922
 2621TIP3   OH2 7807   0.974   6.773   5.477
 2621TIP3    H1 7808   1.031   6.730   5.413
 2621TIP3    H2 7809   0.912   6.705   5.504
 2622TIP3   OH2 7810   0.772   4.578   1.987
 2622TIP3    H1 7811   0.790   4.492   2.027
 2622TIP3    H2 7812   0.736   4.630   2.059
 2623TIP3   OH2 7813   1.419   1.901   5.155
 2623TIP3    H1 7814   1.340   1.893   5.208
 2623TIP3    H2 7815   1.436   1.812   5.123
 2624TIP3   OH2 7816   5.974   0.218   0.196
 2624TIP3    H1 7817   6.021   0.301   0.193
 2624TIP3    H2 7818   5.976   0.193   0.289
 2625TIP3   OH2 7819   2.576   5.885   4.546
 2625TIP3    H1 7820   2.533   5.857   4.465
 2625TIP3    H2 7821   2.632   5.958   4.519
 2626TIP3   OH2 7822   6.887   4.168   4.824
 2626TIP3    H1 7823   6.841   4.160   4.908
 2626TIP3    H2 7824   6.979   4.178   4.848
 2627TIP3   OH2 7825   1.957   3.054   6.141
 2627TIP3    H1 7826   1.948   2.964   6.172
 2627TIP3    H2 7827   2.033   3.089   6.187
 2628TIP3   OH2 7828   7.234   4.194   3.576
 2628TIP3    H1 7829   7.318   4.205   3.619
 2628TIP3    H2 7830   7.242   4.111   3.528
 2629TIP3   OH2 7831   5.966   0.834   1.196
 2629TIP3    H1 7832   5.920   0.769   1.249
 2629TIP3    H2 7833   5.896   0.890   1.162
 2630TIP3   OH2 7834   4.395   4.457   5.226
 2630TIP3    H1 7835   4.468   4.514   5.250
 2630TIP3    H2 7836   4.390   4.393   5.296
 2631TIP3   OH2 7837   3.493   4.690   1.382
 2631TIP3    H1 7838   3.561   4.724   1.440
 2631TIP3    H2 7839   3.489   4.596   1.402
 2632TIP3   OH2 7840   4.859   0.356   0.617
 2632TIP3    H1 7841   4.915   0.281   0.598
 2632TIP3    H2 7842   4.830   0.387   0.531
 2633TIP3   OH2 7843   6.450   6.212   4.407
 2633TIP3    H1 7844   6.517   6.275   4.431
 2633TIP3    H2 7845   6.450   6.211   4.311
 2634TIP3   OH2 7846   6.166   4.962   4.953
 2634TIP3    H1 7847   6.161   4.931   5.043
 2634TIP3    H2 7848   6.085   4.932   4.913
 2635TIP3   OH2 7849   4.078   7.701   2.812
 2635TIP3    H1 7850   4.145   7.770   2.808
 2635TIP3    H2 7851   4.044   7.695   2.723
 2636TIP3   OH2 7852   6.360   6.055   4.593
 2636TIP3    H1 7853   6.288   6.107   4.629
 2636TIP3    H2 7854   6.410   6.117   4.539
 2637TIP3   OH2 7855   4.713   1.044   0.118
 2637TIP3    H1 7856   4.785   1.080   0.169
 2637TIP3    H2 7857   4.686   1.116   0.060
 2638TIP3   OH2 7858   3.999   0.096   5.272
 2638TIP3    H1 7859   3.973   0.006   5.253
 2638TIP3    H2 7860   3.977   0.109   5.364
 2639TIP3   OH2 7861   3.602   3.046   5.207
 2639TIP3    H1 7862   3.658   3.001   5.271
 2639TIP3    H2 7863   3.516   3.006   5.219
 2640TIP3   OH2 7864   3.095   1.052   2.771
 2640TIP3    H1 7865   3.116   1.133   2.819
 2640TIP3    H2 7866   3.126   0.982   2.828
 2641TIP3   OH2 7867   3.926  -0.020   3.151
 2641TIP3    H1 7868   3.865   0.027   3.093
 2641TIP3    H2 7869   3.993   0.044   3.172
 2642TIP3   OH2 7870   8.090   5.236   1.767
 2642TIP3    H1 7871   8.108   5.175   1.696
 2642TIP3    H2 7872   8.144   5.312   1.749
 2643TIP3   OH2 7873   3.839   5.741   2.011
 2643TIP3    H1 7874   3.754   5.706   2.037
 2643TIP3    H2 7875   3.834   5.747   1.915
 2644TIP3   OH2 7876   4.823   0.034   6.260
 2644TIP3    H1 7877   4.893   0.083   6.216
 2644TIP3    H2 7878   4.856  -0.055   6.267
 2645TIP3   OH2 7879   2.796   2.796   4.889
 2645TIP3    H1 7880   2.812   2.755   4.804
 2645TIP3    H2 7881   2.865   2.862   4.897
 2646TIP3   OH2 7882   1.758   3.407   1.267
 2646TIP3    H1 7883   1.695   3.429   1.336
 2646TIP3    H2 7884   1.708   3.356   1.204
 2647TIP3   OH2 7885   1.129   6.385   2.944
 2647TIP3    H1 7886   1.164   6.466   2.907
 2647TIP3    H2 7887   1.034   6.391   2.930
 2648TIP3   OH2 7888   8.026   5.029   6.351
 2648TIP3    H1 7889   8.024   4.936   6.329
 2648TIP3    H2 7890   8.073   5.070   6.278
 2649TIP3   OH2 7891   3.234   0.158   5.975
 2649TIP3    H1 7892   3.326   0.184   5.964
 2649TIP3    H2 7893   3.197   0.225   6.032
 2650TIP3   OH2 7894   3.609   6.504   4.120
 2650TIP3    H1 7895   3.703   6.505   4.107
 2650TIP3    H2 7896   3.586   6.411   4.122
 2651TIP3   OH2 7897   2.484   2.666   3.530
 2651TIP3    H1 7898   2.439   2.751   3.530
 2651TIP3    H2 7899   2.416   2.603   3.509
 2652TIP3   OH2 7900   1.956   7.043   5.184
 2652TIP3    H1 7901   1.913   7.042   5.269
 2652TIP3    H2 7902   2.043   7.007   5.201
 2653TIP3   OH2 7903   3.236   4.526   6.272
 2653TIP3    H1 7904   3.197   4.469   6.339
 2653TIP3    H2 7905   3.161   4.563   6.226
 2654TIP3   OH2 7906   4.698   1.655   5.379
 2654TIP3    H1 7907   4.719   1.706   5.300
 2654TIP3    H2 7908   4.702   1.719   5.450
 2655TIP3   OH2 7909   0.045   3.127   2.113
 2655TIP3    H1 7910  -0.047   3.151   2.126
 2655TIP3    H2 7911   0.042   3.043   2.067
 2656TIP3   OH2 7912   7.190   7.551   5.022
 2656TIP3    H1 7913   7.196   7.634   5.071
 2656TIP3    H2 7914   7.234   7.569   4.939
 2657TIP3   OH2 7915   3.178   6.378   1.007
 2657TIP3    H1 7916   3.159   6.298   0.960
 2657TIP3    H2 7917   3.117   6.442   0.971
 2658TIP3   OH2 7918   1.165   7.778   4.472
 2658TIP3    H1 7919   1.165   7.855   4.529
 2658TIP3    H2 7920   1.092   7.725   4.503
 2659TIP3   OH2 7921   5.304   7.169   0.541
 2659TIP3    H1 7922   5.378   7.214   0.499
 2659TIP3    H2 7923   5.321   7.180   0.635
 2660TIP3   OH2 7924   7.323   6.427   1.567
 2660TIP3    H1 7925   7.272   6.348   1.584
 2660TIP3    H2 7926   7.258   6.495   1.550
 2661TIP3   OH2 7927   4.392   2.493   6.044
 2661TIP3    H1 7928   4.478   2.527   6.071
 2661TIP3    H2 7929   4.376   2.533   5.959
 2662TIP3   OH2 7930   4.710   2.974   3.785
 2662TIP3    H1 7931   4.729   3.023   3.705
 2662TIP3    H2 7932   4.617   2.952   3.778
 2663TIP3   OH2 7933   0.702   3.571   2.766
 2663TIP3    H1 7934   0.738   3.602   2.683
 2663TIP3    H2 7935   0.658   3.648   2.803
 2664TIP3   OH2 7936   7.066   0.718   4.793
 2664TIP3    H1 7937   7.119   0.657   4.844
 2664TIP3    H2 7938   7.093   0.805   4.823
 2665TIP3   OH2 7939   0.457   7.205   0.515
 2665TIP3    H1 7940   0.409   7.230   0.437
 2665TIP3    H2 7941   0.547   7.234   0.499
 2666TIP3   OH2 7942   5.357   2.824   1.764
 2666TIP3    H1 7943   5.296   2.833   1.837
 2666TIP3    H2 7944   5.440   2.799   1.805
 2667TIP3   OH2 7945   6.462   3.072   0.068
 2667TIP3    H1 7946   6.512   2.991   0.059
 2667TIP3    H2 7947   6.465   3.112  -0.019
 2668TIP3   OH2 7948   4.931   2.488   4.283
 2668TIP3    H1 7949   4.890   2.419   4.336
 2668TIP3    H2 7950   5.024   2.479   4.299
 2669TIP3   OH2 7951   5.524   1.779   2.770
 2669TIP3    H1 7952   5.487   1.768   2.858
 2669TIP3    H2 7953   5.575   1.860   2.776
 2670TIP3   OH2 7954   8.059   1.675   0.575
 2670TIP3    H1 7955   8.096   1.589   0.553
 2670TIP3    H2 7956   8.073   1.728   0.496
 2671TIP3   OH2 7957   8.223   7.001   0.835
 2671TIP3    H1 7958   8.225   6.977   0.928
 2671TIP3    H2 7959   8.256   7.091   0.833
 2672TIP3   OH2 7960   6.182   2.446   2.068
 2672TIP3    H1 7961   6.210   2.423   2.156
 2672TIP3    H2 7962   6.089   2.468   2.077
 2673TIP3   OH2 7963   6.022   1.780   3.183
 2673TIP3    H1 7964   5.940   1.828   3.169
 2673TIP3    H2 7965   5.997   1.688   3.178
 2674TIP3   OH2 7966   3.682   2.011   1.806
 2674TIP3    H1 7967   3.632   2.092   1.812
 2674TIP3    H2 7968   3.620   1.948   1.769
 2675TIP3   OH2 7969   5.862   2.590   6.389
 2675TIP3    H1 7970   5.896   2.529   6.323
 2675TIP3    H2 7971   5.938   2.645   6.412
 2676TIP3   OH2 7972   7.126   0.368   0.454
 2676TIP3    H1 7973   7.132   0.307   0.381
 2676TIP3    H2 7974   7.155   0.452   0.418
 2677TIP3   OH2 7975   5.495   4.681   1.441
 2677TIP3    H1 7976   5.531   4.688   1.530
 2677TIP3    H2 7977   5.410   4.638   1.453
 2678TIP3   OH2 7978   6.930   6.058   6.547
 2678TIP3    H1 7979   7.023   6.063   6.569
 2678TIP3    H2 7980   6.909   5.964   6.554
 2679TIP3   OH2 7981   6.219   6.599   0.224
 2679TIP3    H1 7982   6.236   6.567   0.135
 2679TIP3    H2 7983   6.252   6.689   0.223
 2680TIP3   OH2 7984   7.818   3.875   0.011
 2680TIP3    H1 7985   7.802   3.848   0.102
 2680TIP3    H2 7986   7.811   3.970   0.013
 2681TIP3   OH2 7987   4.960   5.343   0.139
 2681TIP3    H1 7988   4.916   5.393   0.071
 2681TIP3    H2 7989   5.003   5.409   0.193
 2682TIP3   OH2 7990   3.394   5.372   0.417
 2682TIP3    H1 7991   3.471   5.316   0.427
 2682TIP3    H2 7992   3.371   5.365   0.324
 2683TIP3   OH2 7993   7.474   2.933   5.104
 2683TIP3    H1 7994   7.509   3.002   5.161
 2683TIP3    H2 7995   7.524   2.941   5.023
 2684TIP3   OH2 7996   0.093   3.606   4.431
 2684TIP3    H1 7997   0.029   3.596   4.360
 2684TIP3    H2 7998   0.040   3.622   4.509
 2685TIP3   OH2 7999   5.153   3.669   5.132
 2685TIP3    H1 8000   5.241   3.666   5.095
 2685TIP3    H2 8001   5.142   3.585   5.175
 2686TIP3   OH2 8002   2.990   7.512   1.872
 2686TIP3    H1 8003   2.958   7.601   1.858
 2686TIP3    H2 8004   2.946   7.482   1.952
 2687TIP3   OH2 8005   1.570   3.126   4.405
 2687TIP3    H1 8006   1.590   3.033   4.396
 2687TIP3    H2 8007   1.481   3.135   4.372
 2688TIP3   OH2 8008   1.989   4.665   3.949
 2688TIP3    H1 8009   2.081   4.674   3.974
 2688TIP3    H2 8010   1.941   4.668   4.031
 2689TIP3   OH2 8011   0.849   4.553   4.137
 2689TIP3    H1 8012   0.834   4.516   4.223
 2689TIP3    H2 8013   0.919   4.500   4.100
 2690TIP3   OH2 8014   1.418   4.767   6.006
 2690TIP3    H1 8015   1.509   4.796   5.995
 2690TIP3    H2 8016   1.389   4.746   5.917
 2691TIP3   OH2 8017   6.030   0.931   4.137
 2691TIP3    H1 8018   6.040   1.026   4.140
 2691TIP3    H2 8019   5.939   0.916   4.113
 2692TIP3   OH2 8020   4.457   0.954   2.975
 2692TIP3    H1 8021   4.527   0.890   2.968
 2692TIP3    H2 8022   4.385   0.906   3.016
 2693TIP3   OH2 8023   2.457   1.123   6.288
 2693TIP3    H1 8024   2.507   1.187   6.238
 2693TIP3    H2 8025   2.519   1.052   6.305
 2694TIP3   OH2 8026   0.874   2.299   0.432
 2694TIP3    H1 8027   0.865   2.375   0.374
 2694TIP3    H2 8028   0.923   2.332   0.507
 2695TIP3   OH2 8029   3.757   6.603   6.727
 2695TIP3    H1 8030   3.707   6.597   6.646
 2695TIP3    H2 8031   3.721   6.680   6.771
 2696TIP3   OH2 8032   4.524   1.725   2.968
 2696TIP3    H1 8033   4.618   1.706   2.972
 2696TIP3    H2 8034   4.488   1.659   2.910
 2697TIP3   OH2 8035   3.900   7.101   1.654
 2697TIP3    H1 8036   3.893   7.183   1.702
 2697TIP3    H2 8037   3.976   7.057   1.692
 2698TIP3   OH2 8038   2.352   0.412   6.608
 2698TIP3    H1 8039   2.417   0.374   6.667
 2698TIP3    H2 8040   2.379   0.381   6.521
 2699TIP3   OH2 8041   4.077   2.192   5.366
 2699TIP3    H1 8042   4.101   2.101   5.348
 2699TIP3    H2 8043   4.127   2.243   5.302
 2700TIP3   OH2 8044   1.865   1.190   6.660
 2700TIP3    H1 8045   1.900   1.255   6.721
 2700TIP3    H2 8046   1.864   1.108   6.710
 2701TIP3   OH2 8047   7.611   7.778   0.183
 2701TIP3    H1 8048   7.586   7.706   0.126
 2701TIP3    H2 8049   7.692   7.813   0.144
 2702TIP3   OH2 8050   0.387   2.374   4.434
 2702TIP3    H1 8051   0.413   2.289   4.397
 2702TIP3    H2 8052   0.296   2.362   4.459
 2703TIP3   OH2 8053   4.747   2.216   2.307
 2703TIP3    H1 8054   4.711   2.140   2.353
 2703TIP3    H2 8055   4.842   2.205   2.317
 2704TIP3   OH2 8056   3.461   0.315   3.161
 2704TIP3    H1 8057   3.534   0.308   3.222
 2704TIP3    H2 8058   3.392   0.361   3.211
 2705TIP3   OH2 8059   6.893   4.433   5.935
 2705TIP3    H1 8060   6.870   4.340   5.946
 2705TIP3    H2 8061   6.808   4.478   5.930
 2706TIP3   OH2 8062   7.050   3.411   3.220
 2706TIP3    H1 8063   7.009   3.361   3.291
 2706TIP3    H2 8064   7.119   3.462   3.262
 2707TIP3   OH2 8065   0.686   5.892   1.071
 2707TIP3    H1 8066   0.703   5.977   1.030
 2707TIP3    H2 8067   0.668   5.833   0.998
 2708TIP3   OH2 8068   7.423   0.424   3.491
 2708TIP3    H1 8069   7.343   0.372   3.500
 2708TIP3    H2 8070   7.450   0.412   3.400
 2709TIP3   OH2 8071   8.180   4.271   3.552
 2709TIP3    H1 8072   8.171   4.262   3.647
 2709TIP3    H2 8073   8.094   4.249   3.518
 2710TIP3   OH2 8074   0.601   3.119   5.147
 2710TIP3    H1 8075   0.506   3.113   5.157
 2710TIP3    H2 8076   0.620   3.069   5.068
 2711TIP3   OH2 8077   0.702   7.767   1.578
 2711TIP3    H1 8078   0.675   7.789   1.667
 2711TIP3    H2 8079   0.626   7.723   1.540
 2712TIP3   OH2 8080   5.089   0.982   5.404
 2712TIP3    H1 8081   4.998   1.008   5.391
 2712TIP3    H2 8082   5.107   0.920   5.334
 2713TIP3   OH2 8083   6.250   4.429   3.224
 2713TIP3    H1 8084   6.255   4.435   3.128
 2713TIP3    H2 8085   6.286   4.342   3.244
 2714TIP3   OH2 8086   0.327   3.027   4.294
 2714TIP3    H1 8087   0.339   2.937   4.263
 2714TIP3    H2 8088   0.413   3.053   4.327
 2715TIP3   OH2 8089   4.302   6.437   5.210
 2715TIP3    H1 8090   4.227   6.493   5.193
 2715TIP3    H2 8091   4.296   6.368   5.144
 2716TIP3   OH2 8092   0.274   6.554   2.409
 2716TIP3    H1 8093   0.282   6.564   2.314
 2716TIP3    H2 8094   0.337   6.615   2.446
 2717TIP3   OH2 8095   1.849   4.919   1.805
 2717TIP3    H1 8096   1.886   5.006   1.795
 2717TIP3    H2 8097   1.848   4.882   1.716
 2718TIP3   OH2 8098   7.283   1.083   1.393
 2718TIP3    H1 8099   7.227   1.055   1.321
 2718TIP3    H2 8100   7.245   1.167   1.421
 2719TIP3   OH2 8101   3.791   2.305   1.955
 2719TIP3    H1 8102   3.704   2.310   1.915
 2719TIP3    H2 8103   3.830   2.390   1.938
 2720TIP3   OH2 8104   7.295   7.722   3.051
 2720TIP3    H1 8105   7.208   7.703   3.014
 2720TIP3    H2 8106   7.356   7.706   2.979
 2721TIP3   OH2 8107   0.427   6.141   6.323
 2721TIP3    H1 8108   0.341   6.172   6.295
 2721TIP3    H2 8109   0.409   6.055   6.362
 2722TIP3   OH2 8110   2.013   1.901   0.483
 2722TIP3    H1 8111   2.055   1.955   0.550
 2722TIP3    H2 8112   1.924   1.887   0.516
 2723TIP3   OH2 8113   5.722   4.982   0.411
 2723TIP3    H1 8114   5.708   4.891   0.385
 2723TIP3    H2 8115   5.652   5.031   0.368
 2724TIP3   OH2 8116   6.553   5.141   0.631
 2724TIP3    H1 8117   6.599   5.211   0.677
 2724TIP3    H2 8118   6.463   5.148   0.661
 2725TIP3   OH2 8119   2.025   5.869   3.534
 2725TIP3    H1 8120   2.016   5.899   3.625
 2725TIP3    H2 8121   1.980   5.785   3.532
 2726TIP3   OH2 8122   4.551   5.071   2.391
 2726TIP3    H1 8123   4.556   5.154   2.439
 2726TIP3    H2 8124   4.494   5.090   2.316
 2727TIP3   OH2 8125   1.115   6.420   4.911
 2727TIP3    H1 8126   1.208   6.433   4.891
 2727TIP3    H2 8127   1.070   6.452   4.832
 2728TIP3   OH2 8128   2.168   2.283   1.599
 2728TIP3    H1 8129   2.263   2.273   1.597
 2728TIP3    H2 8130   2.148   2.334   1.520
 2729TIP3   OH2 8131   4.331   3.041   6.695
 2729TIP3    H1 8132   4.302   3.129   6.673
 2729TIP3    H2 8133   4.393   3.018   6.625
 2730TIP3   OH2 8134   5.050   4.203   2.680
 2730TIP3    H1 8135   5.086   4.115   2.670
 2730TIP3    H2 8136   4.962   4.188   2.715
 2731TIP3   OH2 8137   0.283   3.722   0.017
 2731TIP3    H1 8138   0.258   3.799   0.068
 2731TIP3    H2 8139   0.318   3.660   0.082
 2732TIP3   OH2 8140   3.490   3.290   5.420
 2732TIP3    H1 8141   3.491   3.246   5.505
 2732TIP3    H2 8142   3.582   3.299   5.396
 2733TIP3   OH2 8143   6.675   0.041   4.327
 2733TIP3    H1 8144   6.597   0.096   4.338
 2733TIP3    H2 8145   6.675  -0.015   4.405
 2734TIP3   OH2 8146   6.532   1.658   2.667
 2734TIP3    H1 8147   6.595   1.726   2.642
 2734TIP3    H2 8148   6.584   1.596   2.718
 2735TIP3   OH2 8149   4.364   0.882   0.818
 2735TIP3    H1 8150   4.357   0.977   0.804
 2735TIP3    H2 8151   4.406   0.849   0.739
 2736TIP3   OH2 8152   3.061   4.735   4.317
 2736TIP3    H1 8153   3.134   4.683   4.281
 2736TIP3    H2 8154   3.050   4.807   4.255
 2737TIP3   OH2 8155   3.397   4.924   4.503
 2737TIP3    H1 8156   3.394   5.008   4.456
 2737TIP3    H2 8157   3.446   4.866   4.445
 2738TIP3   OH2 8158   5.688   2.746   2.861
 2738TIP3    H1 8159   5.784   2.743   2.860
 2738TIP3    H2 8160   5.662   2.704   2.779
 2739TIP3   OH2 8161   2.369   4.275   4.972
 2739TIP3    H1 8162   2.354   4.245   5.061
 2739TIP3    H2 8163   2.463   4.266   4.959
 2740TIP3   OH2 8164   2.736   0.580   6.345
 2740TIP3    H1 8165   2.719   0.546   6.257
 2740TIP3    H2 8166   2.792   0.514   6.386
 2741TIP3   OH2 8167   0.682   7.115   6.436
 2741TIP3    H1 8168   0.604   7.121   6.380
 2741TIP3    H2 8169   0.689   7.202   6.476
 2742TIP3   OH2 8170   2.159   1.738   6.183
 2742TIP3    H1 8171   2.233   1.798   6.194
 2742TIP3    H2 8172   2.174   1.670   6.249
 2743TIP3   OH2 8173   7.684   4.178   4.794
 2743TIP3    H1 8174   7.748   4.196   4.725
 2743TIP3    H2 8175   7.706   4.241   4.863
 2744TIP3   OH2 8176   4.283   4.108   2.456
 2744TIP3    H1 8177   4.366   4.068   2.483
 2744TIP3    H2 8178   4.221   4.081   2.524
 2745TIP3   OH2 8179   4.211   0.346   1.664
 2745TIP3    H1 8180   4.207   0.331   1.569
 2745TIP3    H2 8181   4.194   0.260   1.702
 2746TIP3   OH2 8182   4.995   6.523   2.913
 2746TIP3    H1 8183   5.068   6.497   2.856
 2746TIP3    H2 8184   4.998   6.461   2.985
 2747TIP3   OH2 8185   7.380   3.353   0.249
 2747TIP3    H1 8186   7.415   3.389   0.168
 2747TIP3    H2 8187   7.421   3.406   0.318
 2748TIP3   OH2 8188   7.601   1.115   1.000
 2748TIP3    H1 8189   7.512   1.149   1.007
 2748TIP3    H2 8190   7.648   1.153   1.075
 2749TIP3   OH2 8191   2.955   6.366   1.488
 2749TIP3    H1 8192   2.995   6.292   1.532
 2749TIP3    H2 8193   2.874   6.382   1.536
 2750TIP3   OH2 8194   6.044   0.528   0.132
 2750TIP3    H1 8195   6.036   0.579   0.212
 2750TIP3    H2 8196   6.013   0.587   0.063
 2751TIP3   OH2 8197   0.549   1.269   0.380
 2751TIP3    H1 8198   0.566   1.363   0.369
 2751TIP3    H2 8199   0.533   1.259   0.474
 2752TIP3   OH2 8200   0.464   4.451   6.172
 2752TIP3    H1 8201   0.460   4.384   6.240
 2752TIP3    H2 8202   0.545   4.499   6.190
 2753TIP3   OH2 8203   1.627   0.081   2.047
 2753TIP3    H1 8204   1.650   0.000   2.092
 2753TIP3    H2 8205   1.543   0.107   2.084
 2754TIP3   OH2 8206   6.326   0.752   6.746
 2754TIP3    H1 8207   6.234   0.772   6.759
 2754TIP3    H2 8208   6.370   0.837   6.745
 2755TIP3   OH2 8209   5.165   7.174   5.197
 2755TIP3    H1 8210   5.104   7.106   5.224
 2755TIP3    H2 8211   5.188   7.220   5.277
 2756TIP3   OH2 8212   0.149   2.902   2.673
 2756TIP3    H1 8213   0.118   2.909   2.583
 2756TIP3    H2 8214   0.108   2.976   2.719
 2757TIP3   OH2 8215   5.305   2.033   6.679
 2757TIP3    H1 8216   5.279   2.056   6.590
 2757TIP3    H2 8217   5.224   2.007   6.721
 2758TIP3   OH2 8218   6.016   4.481   0.007
 2758TIP3    H1 8219   5.969   4.428   0.072
 2758TIP3    H2 8220   5.972   4.566   0.010
 2759TIP3   OH2 8221   2.548   4.377   3.662
 2759TIP3    H1 8222   2.520   4.290   3.690
 2759TIP3    H2 8223   2.494   4.396   3.585
 2760TIP3   OH2 8224   3.571   5.408   3.547
 2760TIP3    H1 8225   3.537   5.321   3.523
 2760TIP3    H2 8226   3.664   5.394   3.563
 2761TIP3   OH2 8227   2.809   5.726   2.672
 2761TIP3    H1 8228   2.730   5.775   2.648
 2761TIP3    H2 8229   2.873   5.793   2.694
 2762TIP3   OH2 8230   2.692   5.696   6.527
 2762TIP3    H1 8231   2.650   5.733   6.604
 2762TIP3    H2 8232   2.717   5.607   6.554
 2763TIP3   OH2 8233   0.131   6.373   6.779
 2763TIP3    H1 8234   0.187   6.315   6.830
 2763TIP3    H2 8235   0.075   6.314   6.728
 2764TIP3   OH2 8236   0.223   4.777   2.796
 2764TIP3    H1 8237   0.217   4.696   2.848
 2764TIP3    H2 8238   0.181   4.843   2.852
 2765TIP3   OH2 8239   7.530   3.913   5.747
 2765TIP3    H1 8240   7.574   3.961   5.817
 2765TIP3    H2 8241   7.591   3.844   5.723
 2766TIP3   OH2 8242   3.954   0.169   1.525
 2766TIP3    H1 8243   3.979   0.248   1.477
 2766TIP3    H2 8244   3.986   0.097   1.471
 2767TIP3   OH2 8245   7.227   6.375   6.251
 2767TIP3    H1 8246   7.296   6.379   6.317
 2767TIP3    H2 8247   7.226   6.283   6.224
 2768TIP3   OH2 8248   0.304   1.691   5.158
 2768TIP3    H1 8249   0.387   1.703   5.112
 2768TIP3    H2 8250   0.240   1.677   5.089
 2769TIP3   OH2 8251   7.557   7.711   3.238
 2769TIP3    H1 8252   7.473   7.684   3.275
 2769TIP3    H2 8253   7.535   7.775   3.171
 2770TIP3   OH2 8254   3.674   1.209   6.072
 2770TIP3    H1 8255   3.682   1.303   6.091
 2770TIP3    H2 8256   3.580   1.194   6.068
 2771TIP3   OH2 8257   6.882   4.419   1.901
 2771TIP3    H1 8258   6.883   4.513   1.882
 2771TIP3    H2 8259   6.797   4.405   1.943
 2772TIP3   OH2 8260   3.767   0.643   6.281
 2772TIP3    H1 8261   3.695   0.697   6.313
 2772TIP3    H2 8262   3.769   0.568   6.341
 2773TIP3   OH2 8263   7.019   4.321   4.522
 2773TIP3    H1 8264   6.974   4.246   4.560
 2773TIP3    H2 8265   6.955   4.360   4.463
 2774TIP3   OH2 8266   1.931   6.860   4.637
 2774TIP3    H1 8267   2.006   6.905   4.598
 2774TIP3    H2 8268   1.956   6.845   4.728
 2775TIP3   OH2 8269   4.080   6.031   0.786
 2775TIP3    H1 8270   4.105   6.081   0.708
 2775TIP3    H2 8271   4.026   6.092   0.837
 2776TIP3   OH2 8272   3.390   5.885   5.756
 2776TIP3    H1 8273   3.431   5.915   5.675
 2776TIP3    H2 8274   3.432   5.936   5.825
 2777TIP3   OH2 8275   5.397   5.165   5.609
 2777TIP3    H1 8276   5.491   5.176   5.619
 2777TIP3    H2 8277   5.373   5.098   5.673
 2778TIP3   OH2 8278   3.973   7.522   5.289
 2778TIP3    H1 8279   3.892   7.569   5.307
 2778TIP3    H2 8280   4.001   7.555   5.203
 2779TIP3   OH2 8281   0.863   7.559   3.169
 2779TIP3    H1 8282   0.862   7.653   3.147
 2779TIP3    H2 8283   0.869   7.557   3.264
 2780TIP3   OH2 8284   8.232   1.802   2.846
 2780TIP3    H1 8285   8.163   1.835   2.902
 2780TIP3    H2 8286   8.194   1.725   2.803
 2781TIP3   OH2 8287   3.545   1.409   5.804
 2781TIP3    H1 8288   3.485   1.430   5.876
 2781TIP3    H2 8289   3.526   1.318   5.782
 2782TIP3   OH2 8290   3.052   4.091   5.339
 2782TIP3    H1 8291   3.084   4.005   5.363
 2782TIP3    H2 8292   3.006   4.077   5.256
 2783TIP3   OH2 8293   6.156   4.034   6.571
 2783TIP3    H1 8294   6.139   3.951   6.616
 2783TIP3    H2 8295   6.245   4.025   6.537
 2784TIP3   OH2 8296   3.688   1.628   2.126
 2784TIP3    H1 8297   3.625   1.615   2.197
 2784TIP3    H2 8298   3.644   1.686   2.065
 2785TIP3   OH2 8299   5.763   0.249   0.535
 2785TIP3    H1 8300   5.735   0.184   0.472
 2785TIP3    H2 8301   5.691   0.313   0.537
 2786TIP3   OH2 8302   3.305   7.522   6.403
 2786TIP3    H1 8303   3.254   7.598   6.433
 2786TIP3    H2 8304   3.394   7.555   6.393
 2787TIP3   OH2 8305   7.343   2.256   3.906
 2787TIP3    H1 8306   7.321   2.251   3.999
 2787TIP3    H2 8307   7.368   2.348   3.892
 2788TIP3   OH2 8308   0.327   2.960   5.728
 2788TIP3    H1 8309   0.278   3.037   5.698
 2788TIP3    H2 8310   0.287   2.886   5.683
 2789TIP3   OH2 8311   2.419   3.831   6.455
 2789TIP3    H1 8312   2.381   3.875   6.531
 2789TIP3    H2 8313   2.351   3.836   6.388
 2790TIP3   OH2 8314   4.335   6.992   0.278
 2790TIP3    H1 8315   4.391   6.927   0.236
 2790TIP3    H2 8316   4.347   6.978   0.372
 2791TIP3   OH2 8317   4.375   3.730   4.633
 2791TIP3    H1 8318   4.420   3.770   4.707
 2791TIP3    H2 8319   4.282   3.748   4.649
 2792TIP3   OH2 8320   8.221   1.324   2.342
 2792TIP3    H1 8321   8.166   1.398   2.366
 2792TIP3    H2 8322   8.179   1.248   2.383
 2793TIP3   OH2 8323   5.820   2.069   3.675
 2793TIP3    H1 8324   5.758   2.131   3.711
 2793TIP3    H2 8325   5.906   2.107   3.694
 2794TIP3   OH2 8326   6.991   1.104   2.894
 2794TIP3    H1 8327   6.973   1.029   2.951
 2794TIP3    H2 8328   7.086   1.112   2.894
 2795TIP3   OH2 8329   5.329   5.144   1.817
 2795TIP3    H1 8330   5.382   5.102   1.885
 2795TIP3    H2 8331   5.292   5.071   1.767
 2796TIP3   OH2 8332   1.607   6.386   0.572
 2796TIP3    H1 8333   1.652   6.395   0.488
 2796TIP3    H2 8334   1.657   6.441   0.632
 2797TIP3   OH2 8335   2.237   2.894   5.422
 2797TIP3    H1 8336   2.252   2.985   5.448
 2797TIP3    H2 8337   2.176   2.900   5.349
 2798TIP3   OH2 8338   1.482   3.480   6.729
 2798TIP3    H1 8339   1.529   3.491   6.646
 2798TIP3    H2 8340   1.530   3.535   6.791
 2799TIP3   OH2 8341   4.666   3.682   1.473
 2799TIP3    H1 8342   4.683   3.631   1.394
 2799TIP3    H2 8343   4.710   3.634   1.543
 2800TIP3   OH2 8344   7.138   4.697   3.620
 2800TIP3    H1 8345   7.133   4.747   3.538
 2800TIP3    H2 8346   7.142   4.606   3.591
 2801TIP3   OH2 8347   3.911   2.869   0.912
 2801TIP3    H1 8348   3.870   2.942   0.958
 2801TIP3    H2 8349   3.838   2.813   0.886
 2802TIP3   OH2 8350   2.293   2.045   2.412
 2802TIP3    H1 8351   2.236   2.122   2.409
 2802TIP3    H2 8352   2.327   2.038   2.323
 2803TIP3   OH2 8353   4.576   5.579   3.291
 2803TIP3    H1 8354   4.482   5.589   3.302
 2803TIP3    H2 8355   4.590   5.485   3.280
 2804TIP3   OH2 8356   6.195   3.925   5.612
 2804TIP3    H1 8357   6.287   3.941   5.593
 2804TIP3    H2 8358   6.167   4.002   5.661
 2805TIP3   OH2 8359   4.505   7.320   6.490
 2805TIP3    H1 8360   4.480   7.371   6.567
 2805TIP3    H2 8361   4.559   7.249   6.524
 2806TIP3   OH2 8362   7.791   1.721   3.742
 2806TIP3    H1 8363   7.723   1.741   3.807
 2806TIP3    H2 8364   7.782   1.627   3.726
 2807TIP3   OH2 8365   3.010   4.272   5.531
 2807TIP3    H1 8366   3.098   4.259   5.566
 2807TIP3    H2 8367   2.997   4.198   5.471
 2808TIP3   OH2 8368   7.736   2.077   5.663
 2808TIP3    H1 8369   7.649   2.037   5.652
 2808TIP3    H2 8370   7.724   2.140   5.734
 2809TIP3   OH2 8371   5.217   7.065   1.105
 2809TIP3    H1 8372   5.260   6.981   1.120
 2809TIP3    H2 8373   5.168   7.082   1.186
 2810TIP3   OH2 8374   4.366   2.154   6.452
 2810TIP3    H1 8375   4.375   2.157   6.357
 2810TIP3    H2 8376   4.296   2.090   6.468
 2811TIP3   OH2 8377   5.234   0.854   4.546
 2811TIP3    H1 8378   5.202   0.776   4.501
 2811TIP3    H2 8379   5.162   0.880   4.604
 2812TIP3   OH2 8380   1.419   2.364   3.099
 2812TIP3    H1 8381   1.416   2.392   3.190
 2812TIP3    H2 8382   1.327   2.347   3.076
 2813TIP3   OH2 8383   4.200   6.302   4.074
 2813TIP3    H1 8384   4.192   6.206   4.072
 2813TIP3    H2 8385   4.166   6.331   3.990
 2814TIP3   OH2 8386   3.894   0.391   3.175
 2814TIP3    H1 8387   3.945   0.457   3.130
 2814TIP3    H2 8388   3.955   0.318   3.188
 2815TIP3   OH2 8389   3.402   0.568   6.116
 2815TIP3    H1 8390   3.328   0.515   6.147
 2815TIP3    H2 8391   3.361   0.641   6.070
 2816TIP3   OH2 8392   2.790   1.002   4.038
 2816TIP3    H1 8393   2.711   1.000   3.983
 2816TIP3    H2 8394   2.773   0.934   4.104
 2817TIP3   OH2 8395   1.369   7.400   5.652
 2817TIP3    H1 8396   1.296   7.340   5.668
 2817TIP3    H2 8397   1.367   7.460   5.726
 2818TIP3   OH2 8398   4.962   3.866   2.883
 2818TIP3    H1 8399   4.892   3.921   2.847
 2818TIP3    H2 8400   4.922   3.779   2.888
 2819TIP3   OH2 8401   0.782   0.148   1.889
 2819TIP3    H1 8402   0.698   0.102   1.898
 2819TIP3    H2 8403   0.800   0.181   1.978
 2820TIP3   OH2 8404   6.005   7.325   0.909
 2820TIP3    H1 8405   6.070   7.388   0.939
 2820TIP3    H2 8406   5.924   7.375   0.900
 2821TIP3   OH2 8407   2.629   5.926   6.751
 2821TIP3    H1 8408   2.666   6.002   6.705
 2821TIP3    H2 8409   2.675   5.924   6.835
 2822TIP3   OH2 8410   8.037   0.071   0.854
 2822TIP3    H1 8411   8.103   0.055   0.921
 2822TIP3    H2 8412   8.022  -0.015   0.814
 2823TIP3   OH2 8413   0.073   5.959   0.494
 2823TIP3    H1 8414   0.132   6.025   0.459
 2823TIP3    H2 8415  -0.003   6.008   0.525
 2824TIP3   OH2 8416   3.570   5.184   0.721
 2824TIP3    H1 8417   3.623   5.250   0.676
 2824TIP3    H2 8418   3.627   5.108   0.729
 2825TIP3   OH2 8419   8.213   6.224   4.297
 2825TIP3    H1 8420   8.272   6.175   4.354
 2825TIP3    H2 8421   8.166   6.284   4.355
 2826TIP3   OH2 8422   4.073   6.841   0.057
 2826TIP3    H1 8423   4.139   6.907   0.035
 2826TIP3    H2 8424   3.990   6.890   0.060
 2827TIP3   OH2 8425   4.571   0.122   3.414
 2827TIP3    H1 8426   4.656   0.122   3.371
 2827TIP3    H2 8427   4.574   0.197   3.473
 2828TIP3   OH2 8428   7.382   6.911   6.354
 2828TIP3    H1 8429   7.399   6.971   6.282
 2828TIP3    H2 8430   7.465   6.864   6.367
 2829TIP3   OH2 8431   4.508   1.325   6.114
 2829TIP3    H1 8432   4.588   1.375   6.128
 2829TIP3    H2 8433   4.508   1.305   6.020
 2830TIP3   OH2 8434   1.757   1.677   3.523
 2830TIP3    H1 8435   1.815   1.601   3.526
 2830TIP3    H2 8436   1.778   1.727   3.602
 2831TIP3   OH2 8437   4.489   2.782   4.322
 2831TIP3    H1 8438   4.571   2.741   4.293
 2831TIP3    H2 8439   4.421   2.719   4.298
 2832TIP3   OH2 8440   4.967   2.455   5.632
 2832TIP3    H1 8441   5.053   2.486   5.661
 2832TIP3    H2 8442   4.909   2.531   5.642
 2833TIP3   OH2 8443   5.057   1.920   2.154
 2833TIP3    H1 8444   4.973   1.965   2.156
 2833TIP3    H2 8445   5.077   1.901   2.246
 2834TIP3   OH2 8446   1.909   1.011   6.050
 2834TIP3    H1 8447   1.947   1.094   6.022
 2834TIP3    H2 8448   1.816   1.030   6.063
 2835TIP3   OH2 8449   4.794   5.661   0.334
 2835TIP3    H1 8450   4.761   5.692   0.250
 2835TIP3    H2 8451   4.715   5.641   0.384
 2836TIP3   OH2 8452   6.844   4.284   0.463
 2836TIP3    H1 8453   6.908   4.213   0.457
 2836TIP3    H2 8454   6.839   4.304   0.556
 2837TIP3   OH2 8455   0.608   1.328   2.004
 2837TIP3    H1 8456   0.528   1.277   2.008
 2837TIP3    H2 8457   0.646   1.308   1.918
 2838TIP3   OH2 8458   2.715   3.210   3.389
 2838TIP3    H1 8459   2.636   3.253   3.423
 2838TIP3    H2 8460   2.784   3.275   3.401
 2839TIP3   OH2 8461   1.792   0.694   2.053
 2839TIP3    H1 8462   1.857   0.742   2.105
 2839TIP3    H2 8463   1.756   0.759   1.993
 2840TIP3   OH2 8464   6.662   2.354   5.118
 2840TIP3    H1 8465   6.620   2.351   5.204
 2840TIP3    H2 8466   6.591   2.333   5.057
 2841TIP3   OH2 8467   2.693   1.023   4.759
 2841TIP3    H1 8468   2.717   1.116   4.754
 2841TIP3    H2 8469   2.740   0.982   4.687
 2842TIP3   OH2 8470   0.835   5.375   4.523
 2842TIP3    H1 8471   0.856   5.291   4.482
 2842TIP3    H2 8472   0.847   5.359   4.617
 2843TIP3   OH2 8473   0.702   3.676   2.023
 2843TIP3    H1 8474   0.652   3.627   2.088
 2843TIP3    H2 8475   0.685   3.631   1.940
 2844TIP3   OH2 8476   2.825   6.221   6.551
 2844TIP3    H1 8477   2.827   6.195   6.643
 2844TIP3    H2 8478   2.736   6.201   6.522
 2845TIP3   OH2 8479   8.271   6.471   5.531
 2845TIP3    H1 8480   8.318   6.390   5.551
 2845TIP3    H2 8481   8.192   6.441   5.486
 2846TIP3   OH2 8482   4.143   5.913   2.307
 2846TIP3    H1 8483   4.063   5.939   2.352
 2846TIP3    H2 8484   4.113   5.853   2.238
 2847TIP3   OH2 8485   0.096   4.451   4.635
 2847TIP3    H1 8486   0.042   4.428   4.559
 2847TIP3    H2 8487   0.053   4.409   4.709
 2848TIP3   OH2 8488   4.845   2.536   2.362
 2848TIP3    H1 8489   4.823   2.621   2.399
 2848TIP3    H2 8490   4.803   2.473   2.421
 2849TIP3   OH2 8491   5.833   3.396   0.744
 2849TIP3    H1 8492   5.795   3.484   0.743
 2849TIP3    H2 8493   5.880   3.389   0.660
 2850TIP3   OH2 8494   1.803   4.724   1.289
 2850TIP3    H1 8495   1.783   4.715   1.196
 2850TIP3    H2 8496   1.899   4.725   1.293
 2851TIP3   OH2 8497   5.517   4.363   4.829
 2851TIP3    H1 8498   5.581   4.412   4.881
 2851TIP3    H2 8499   5.545   4.272   4.835
 2852TIP3   OH2 8500   7.009   3.590   4.431
 2852TIP3    H1 8501   6.948   3.606   4.503
 2852TIP3    H2 8502   6.990   3.659   4.367
 2853TIP3   OH2 8503   3.762   4.403   3.235
 2853TIP3    H1 8504   3.751   4.350   3.156
 2853TIP3    H2 8505   3.745   4.493   3.206
 2854TIP3   OH2 8506   7.018   3.104   3.764
 2854TIP3    H1 8507   7.032   3.179   3.706
 2854TIP3    H2 8508   7.079   3.118   3.836
 2855TIP3   OH2 8509   3.601   5.600   6.405
 2855TIP3    H1 8510   3.646   5.655   6.341
 2855TIP3    H2 8511   3.630   5.634   6.490
 2856TIP3   OH2 8512   5.555   4.259   6.492
 2856TIP3    H1 8513   5.491   4.212   6.545
 2856TIP3    H2 8514   5.561   4.346   6.531
 2857TIP3   OH2 8515   0.957   3.371   0.929
 2857TIP3    H1 8516   0.877   3.388   0.978
 2857TIP3    H2 8517   0.988   3.287   0.963
 2858TIP3   OH2 8518   4.735   5.134   0.135
 2858TIP3    H1 8519   4.648   5.122   0.173
 2858TIP3    H2 8520   4.777   5.199   0.192
 2859TIP3   OH2 8521   0.314   3.195   3.393
 2859TIP3    H1 8522   0.248   3.134   3.360
 2859TIP3    H2 8523   0.359   3.226   3.314
 2860TIP3   OH2 8524   5.134   2.601   5.782
 2860TIP3    H1 8525   5.141   2.540   5.855
 2860TIP3    H2 8526   5.050   2.644   5.794
 2861TIP3   OH2 8527   1.189   0.910   4.825
 2861TIP3    H1 8528   1.203   1.004   4.835
 2861TIP3    H2 8529   1.097   0.898   4.850
 2862TIP3   OH2 8530   0.084   4.847   1.312
 2862TIP3    H1 8531   0.068   4.775   1.373
 2862TIP3    H2 8532   0.000   4.891   1.304
 2863TIP3   OH2 8533   0.634   7.414   5.365
 2863TIP3    H1 8534   0.569   7.350   5.393
 2863TIP3    H2 8535   0.617   7.491   5.418
 2864TIP3   OH2 8536   1.778   3.100   4.135
 2864TIP3    H1 8537   1.743   3.037   4.072
 2864TIP3    H2 8538   1.858   3.058   4.168
 2865TIP3   OH2 8539   6.797   2.711   3.798
 2865TIP3    H1 8540   6.703   2.722   3.813
 2865TIP3    H2 8541   6.803   2.657   3.719
 2866TIP3   OH2 8542   1.993   2.496   5.077
 2866TIP3    H1 8543   1.970   2.404   5.085
 2866TIP3    H2 8544   1.909   2.540   5.061
 2867TIP3   OH2 8545   3.776   3.260   4.630
 2867TIP3    H1 8546   3.726   3.277   4.550
 2867TIP3    H2 8547   3.718   3.206   4.683
 2868TIP3   OH2 8548   1.119   5.990   3.535
 2868TIP3    H1 8549   1.070   6.032   3.607
 2868TIP3    H2 8550   1.179   6.058   3.505
 2869TIP3   OH2 8551   4.639   7.071   0.160
 2869TIP3    H1 8552   4.731   7.070   0.131
 2869TIP3    H2 8553   4.639   7.019   0.240
 2870TIP3   OH2 8554   3.654   1.905   4.652
 2870TIP3    H1 8555   3.717   1.880   4.720
 2870TIP3    H2 8556   3.657   1.833   4.589
 2871TIP3   OH2 8557   3.667   4.606   0.711
 2871TIP3    H1 8558   3.740   4.629   0.652
 2871TIP3    H2 8559   3.681   4.661   0.788
 2872TIP3   OH2 8560   2.740   4.290   6.423
 2872TIP3    H1 8561   2.746   4.234   6.501
 2872TIP3    H2 8562   2.817   4.265   6.371
 2873TIP3   OH2 8563   7.130   5.477   1.476
 2873TIP3    H1 8564   7.224   5.491   1.464
 2873TIP3    H2 8565   7.091   5.563   1.462
 2874TIP3   OH2 8566   8.027   7.551   4.181
 2874TIP3    H1 8567   8.036   7.511   4.095
 2874TIP3    H2 8568   8.116   7.546   4.218
 2875TIP3   OH2 8569   6.044   4.603   1.346
 2875TIP3    H1 8570   6.015   4.624   1.257
 2875TIP3    H2 8571   6.032   4.509   1.354
 2876TIP3   OH2 8572   7.048   5.923   1.173
 2876TIP3    H1 8573   7.127   5.967   1.142
 2876TIP3    H2 8574   6.996   5.992   1.214
 2877TIP3   OH2 8575   5.112   1.364   6.035
 2877TIP3    H1 8576   5.110   1.455   6.006
 2877TIP3    H2 8577   5.029   1.327   6.005
 2878TIP3   OH2 8578   1.518   0.715   6.029
 2878TIP3    H1 8579   1.488   0.645   5.971
 2878TIP3    H2 8580   1.476   0.794   5.995
 2879TIP3   OH2 8581   8.200   2.566   2.117
 2879TIP3    H1 8582   8.127   2.583   2.057
 2879TIP3    H2 8583   8.198   2.639   2.178
 2880TIP3   OH2 8584   7.994   7.053   4.685
 2880TIP3    H1 8585   8.029   7.004   4.612
 2880TIP3    H2 8586   8.024   7.143   4.670
 2881TIP3   OH2 8587   6.757   4.355   0.064
 2881TIP3    H1 8588   6.674   4.387   0.029
 2881TIP3    H2 8589   6.821   4.422   0.038
 2882TIP3   OH2 8590   0.998   3.177   2.779
 2882TIP3    H1 8591   0.927   3.169   2.715
 2882TIP3    H2 8592   0.999   3.092   2.823
 2883TIP3   OH2 8593   1.382   6.119   3.549
 2883TIP3    H1 8594   1.387   6.073   3.466
 2883TIP3    H2 8595   1.471   6.116   3.584
 2884TIP3   OH2 8596   4.056   3.407   4.295
 2884TIP3    H1 8597   4.047   3.431   4.203
 2884TIP3    H2 8598   4.148   3.425   4.316
 2885TIP3   OH2 8599   1.604   2.692   5.722
 2885TIP3    H1 8600   1.623   2.600   5.739
 2885TIP3    H2 8601   1.519   2.691   5.678
 2886TIP3   OH2 8602   2.752   5.063   2.587
 2886TIP3    H1 8603   2.836   5.106   2.571
 2886TIP3    H2 8604   2.774   4.988   2.642
 2887TIP3   OH2 8605   0.747   4.732   5.812
 2887TIP3    H1 8606   0.745   4.824   5.783
 2887TIP3    H2 8607   0.836   4.720   5.846
 2888TIP3   OH2 8608   7.759   1.658   2.411
 2888TIP3    H1 8609   7.743   1.664   2.316
 2888TIP3    H2 8610   7.737   1.745   2.444
 2889TIP3   OH2 8611   0.592   1.630   0.669
 2889TIP3    H1 8612   0.550   1.660   0.588
 2889TIP3    H2 8613   0.534   1.660   0.739
 2890TIP3   OH2 8614   7.398   3.182   1.240
 2890TIP3    H1 8615   7.419   3.100   1.284
 2890TIP3    H2 8616   7.481   3.210   1.201
 2891TIP3   OH2 8617   7.474   7.140   0.826
 2891TIP3    H1 8618   7.478   7.049   0.856
 2891TIP3    H2 8619   7.553   7.180   0.863
 2892TIP3   OH2 8620   2.356   7.768   0.974
 2892TIP3    H1 8621   2.309   7.721   1.043
 2892TIP3    H2 8622   2.344   7.860   0.996
 2893TIP3   OH2 8623   2.576   2.911   3.206
 2893TIP3    H1 8624   2.663   2.948   3.192
 2893TIP3    H2 8625   2.517   2.986   3.204
 2894TIP3   OH2 8626   1.046   1.464   6.105
 2894TIP3    H1 8627   1.036   1.545   6.155
 2894TIP3    H2 8628   1.061   1.492   6.015
 2895TIP3   OH2 8629   4.233   2.473   2.928
 2895TIP3    H1 8630   4.230   2.386   2.969
 2895TIP3    H2 8631   4.199   2.460   2.840
 2896TIP3   OH2 8632   7.271   7.043   4.134
 2896TIP3    H1 8633   7.235   6.996   4.209
 2896TIP3    H2 8634   7.343   6.988   4.104
 2897TIP3   OH2 8635   7.297   7.630   4.782
 2897TIP3    H1 8636   7.358   7.568   4.743
 2897TIP3    H2 8637   7.234   7.649   4.713
 2898TIP3   OH2 8638   7.832   5.288   6.696
 2898TIP3    H1 8639   7.819   5.197   6.722
 2898TIP3    H2 8640   7.895   5.322   6.760
 2899TIP3   OH2 8641   7.143   7.218   1.885
 2899TIP3    H1 8642   7.234   7.194   1.866
 2899TIP3    H2 8643   7.095   7.195   1.806
 2900TIP3   OH2 8644   7.040   0.304   4.600
 2900TIP3    H1 8645   7.087   0.289   4.681
 2900TIP3    H2 8646   6.954   0.265   4.614
 2901TIP3   OH2 8647   7.961   5.347   5.943
 2901TIP3    H1 8648   7.918   5.281   5.888
 2901TIP3    H2 8649   7.896   5.418   5.949
 2902TIP3   OH2 8650   2.033   7.696   0.940
 2902TIP3    H1 8651   2.038   7.762   0.871
 2902TIP3    H2 8652   2.058   7.742   1.020
 2903TIP3   OH2 8653   1.248   0.211   1.052
 2903TIP3    H1 8654   1.337   0.212   1.018
 2903TIP3    H2 8655   1.258   0.189   1.145
 2904TIP3   OH2 8656   3.447   0.757   1.695
 2904TIP3    H1 8657   3.526   0.738   1.644
 2904TIP3    H2 8658   3.391   0.681   1.681
 2905TIP3   OH2 8659   0.307   3.386   5.523
 2905TIP3    H1 8660   0.253   3.465   5.520
 2905TIP3    H2 8661   0.396   3.418   5.516
 2906TIP3   OH2 8662   4.672   6.604   1.240
 2906TIP3    H1 8663   4.654   6.630   1.330
 2906TIP3    H2 8664   4.596   6.637   1.191
 2907TIP3   OH2 8665   7.010   5.585   3.332
 2907TIP3    H1 8666   6.918   5.599   3.309
 2907TIP3    H2 8667   7.008   5.513   3.395
 2908TIP3   OH2 8668   4.084   4.292   2.874
 2908TIP3    H1 8669   4.177   4.279   2.893
 2908TIP3    H2 8670   4.070   4.386   2.886
 2909TIP3   OH2 8671   1.591   2.128   4.331
 2909TIP3    H1 8672   1.621   2.203   4.382
 2909TIP3    H2 8673   1.670   2.092   4.292
 2910TIP3   OH2 8674   3.994   3.548   5.315
 2910TIP3    H1 8675   3.949   3.608   5.256
 2910TIP3    H2 8676   4.052   3.497   5.259
 2911TIP3   OH2 8677   4.786   5.965   1.729
 2911TIP3    H1 8678   4.809   5.875   1.752
 2911TIP3    H2 8679   4.717   5.988   1.792
 2912TIP3   OH2 8680   2.545   7.482   5.502
 2912TIP3    H1 8681   2.585   7.482   5.589
 2912TIP3    H2 8682   2.620   7.481   5.442
 2913TIP3   OH2 8683   3.234   5.743   2.777
 2913TIP3    H1 8684   3.306   5.694   2.738
 2913TIP3    H2 8685   3.160   5.728   2.718
 2914TIP3   OH2 8686   1.686   1.754   2.622
 2914TIP3    H1 8687   1.753   1.721   2.681
 2914TIP3    H2 8688   1.645   1.676   2.585
 2915TIP3   OH2 8689   0.533   3.073   1.325
 2915TIP3    H1 8690   0.483   2.996   1.297
 2915TIP3    H2 8691   0.585   3.042   1.399
 2916TIP3   OH2 8692   0.668   6.759   1.625
 2916TIP3    H1 8693   0.617   6.682   1.647
 2916TIP3    H2 8694   0.731   6.729   1.560
 2917TIP3   OH2 8695   6.773   4.709   4.386
 2917TIP3    H1 8696   6.782   4.667   4.300
 2917TIP3    H2 8697   6.860   4.701   4.425
 2918TIP3   OH2 8698   1.997   5.284   5.202
 2918TIP3    H1 8699   2.089   5.305   5.183
 2918TIP3    H2 8700   2.000   5.201   5.249
 2919TIP3   OH2 8701   3.732   6.073   0.877
 2919TIP3    H1 8702   3.788   6.143   0.910
 2919TIP3    H2 8703   3.658   6.119   0.837
 2920TIP3   OH2 8704   7.172   1.699   3.171
 2920TIP3    H1 8705   7.123   1.660   3.244
 2920TIP3    H2 8706   7.137   1.655   3.093
 2921TIP3   OH2 8707   2.712   3.087   4.311
 2921TIP3    H1 8708   2.800   3.054   4.296
 2921TIP3    H2 8709   2.654   3.024   4.267
 2922TIP3   OH2 8710   6.375   1.049   0.745
 2922TIP3    H1 8711   6.334   1.127   0.781
 2922TIP3    H2 8712   6.304   0.985   0.738
 2923TIP3   OH2 8713   2.408   4.085   0.123
 2923TIP3    H1 8714   2.468   4.138   0.175
 2923TIP3    H2 8715   2.321   4.114   0.149
 2924TIP3   OH2 8716   7.978   3.609   6.449
 2924TIP3    H1 8717   8.001   3.654   6.530
 2924TIP3    H2 8718   7.949   3.679   6.390
 2925TIP3   OH2 8719   3.907   5.228   4.897
 2925TIP3    H1 8720   3.815   5.212   4.877
 2925TIP3    H2 8721   3.939   5.145   4.930
 2926TIP3   OH2 8722   4.133   0.496   3.039
 2926TIP3    H1 8723   4.169   0.421   2.991
 2926TIP3    H2 8724   4.200   0.517   3.104
 2927TIP3   OH2 8725   2.903   7.133   2.682
 2927TIP3    H1 8726   2.880   7.094   2.597
 2927TIP3    H2 8727   2.999   7.140   2.680
 2928TIP3   OH2 8728   7.010   0.114   5.072
 2928TIP3    H1 8729   6.936   0.081   5.124
 2928TIP3    H2 8730   7.031   0.199   5.111
 2929TIP3   OH2 8731   1.806   2.702   0.169
 2929TIP3    H1 8732   1.753   2.714   0.090
 2929TIP3    H2 8733   1.743   2.711   0.241
 2930TIP3   OH2 8734   4.784   1.844   1.319
 2930TIP3    H1 8735   4.827   1.763   1.294
 2930TIP3    H2 8736   4.843   1.884   1.383
 2931TIP3   OH2 8737   6.216   3.812   3.136
 2931TIP3    H1 8738   6.139   3.837   3.084
 2931TIP3    H2 8739   6.179   3.767   3.212
 2932TIP3   OH2 8740   5.351   3.658   3.999
 2932TIP3    H1 8741   5.432   3.681   4.045
 2932TIP3    H2 8742   5.373   3.665   3.907
 2933TIP3   OH2 8743   6.826   4.043   2.874
 2933TIP3    H1 8744   6.846   4.133   2.898
 2933TIP3    H2 8745   6.810   4.046   2.779
 2934TIP3   OH2 8746   6.245   5.201   2.934
 2934TIP3    H1 8747   6.278   5.215   3.023
 2934TIP3    H2 8748   6.224   5.289   2.903
 2935TIP3   OH2 8749   4.814   3.343   0.540
 2935TIP3    H1 8750   4.885   3.400   0.512
 2935TIP3    H2 8751   4.735   3.397   0.532
 2936TIP3   OH2 8752   5.898   7.565   5.071
 2936TIP3    H1 8753   5.890   7.557   5.166
 2936TIP3    H2 8754   5.962   7.635   5.058
 2937TIP3   OH2 8755   0.299   6.340   5.117
 2937TIP3    H1 8756   0.274   6.304   5.201
 2937TIP3    H2 8757   0.394   6.347   5.121
 2938TIP3   OH2 8758   0.879   4.066   4.429
 2938TIP3    H1 8759   0.888   4.129   4.500
 2938TIP3    H2 8760   0.964   4.023   4.423
 2939TIP3   OH2 8761   2.047   4.362   6.684
 2939TIP3    H1 8762   1.996   4.292   6.645
 2939TIP3    H2 8763   2.025   4.359   6.777
 2940TIP3   OH2 8764   1.657   2.332   5.566
 2940TIP3    H1 8765   1.666   2.376   5.481
 2940TIP3    H2 8766   1.720   2.376   5.623
 2941TIP3   OH2 8767   7.794   3.209   2.127
 2941TIP3    H1 8768   7.729   3.263   2.173
 2941TIP3    H2 8769   7.752   3.184   2.045
 2942TIP3   OH2 8770   0.268   6.067   1.883
 2942TIP3    H1 8771   0.345   6.058   1.828
 2942TIP3    H2 8772   0.298   6.121   1.957
 2943TIP3   OH2 8773   0.686   0.769   3.492
 2943TIP3    H1 8774   0.759   0.708   3.496
 2943TIP3    H2 8775   0.694   0.822   3.572
 2944TIP3   OH2 8776   3.018   6.865   5.828
 2944TIP3    H1 8777   3.025   6.769   5.832
 2944TIP3    H2 8778   3.004   6.891   5.919
 2945TIP3   OH2 8779   2.921   2.606   1.439
 2945TIP3    H1 8780   2.924   2.667   1.512
 2945TIP3    H2 8781   2.999   2.552   1.449
 2946TIP3   OH2 8782   2.441   2.961   5.665
 2946TIP3    H1 8783   2.533   2.941   5.646
 2946TIP3    H2 8784   2.432   2.944   5.759
 2947TIP3   OH2 8785   8.244   5.396   3.810
 2947TIP3    H1 8786   8.273   5.467   3.866
 2947TIP3    H2 8787   8.251   5.431   3.721
 2948TIP3   OH2 8788   6.193   2.462   3.713
 2948TIP3    H1 8789   6.192   2.498   3.624
 2948TIP3    H2 8790   6.101   2.438   3.729
 2949TIP3   OH2 8791   5.044   6.173   3.819
 2949TIP3    H1 8792   5.136   6.158   3.842
 2949TIP3    H2 8793   5.010   6.086   3.799
 2950TIP3   OH2 8794   3.000   4.226   3.741
 2950TIP3    H1 8795   2.910   4.250   3.762
 2950TIP3    H2 8796   3.052   4.300   3.772
 2951TIP3   OH2 8797   0.478   1.388   6.479
 2951TIP3    H1 8798   0.492   1.327   6.407
 2951TIP3    H2 8799   0.387   1.415   6.470
 2952TIP3   OH2 8800   7.929   0.969   6.081
 2952TIP3    H1 8801   8.023   0.974   6.097
 2952TIP3    H2 8802   7.917   1.012   5.996
 2953TIP3   OH2 8803   3.801   7.332   4.378
 2953TIP3    H1 8804   3.751   7.267   4.428
 2953TIP3    H2 8805   3.855   7.279   4.319
 2954TIP3   OH2 8806   3.879   2.259   5.954
 2954TIP3    H1 8807   3.851   2.290   6.040
 2954TIP3    H2 8808   3.918   2.335   5.912
 2955TIP3   OH2 8809   6.229   2.640   0.404
 2955TIP3    H1 8810   6.187   2.707   0.459
 2955TIP3    H2 8811   6.322   2.660   0.409
 2956TIP3   OH2 8812   6.584   2.006   4.087
 2956TIP3    H1 8813   6.576   2.090   4.133
 2956TIP3    H2 8814   6.500   1.995   4.042
 2957TIP3   OH2 8815   4.665   7.380   6.251
 2957TIP3    H1 8816   4.747   7.409   6.291
 2957TIP3    H2 8817   4.607   7.363   6.325
 2958TIP3   OH2 8818   0.006   2.987   1.468
 2958TIP3    H1 8819   0.029   2.898   1.493
 2958TIP3    H2 8820   0.070   3.042   1.511
 2959TIP3   OH2 8821   3.502   7.128   4.162
 2959TIP3    H1 8822   3.539   7.179   4.090
 2959TIP3    H2 8823   3.567   7.059   4.178
 2960TIP3   OH2 8824   2.530   4.406   2.135
 2960TIP3    H1 8825   2.566   4.342   2.073
 2960TIP3    H2 8826   2.606   4.452   2.170
 2961TIP3   OH2 8827   1.244   3.966   2.999
 2961TIP3    H1 8828   1.301   3.898   3.036
 2961TIP3    H2 8829   1.288   4.048   3.023
 2962TIP3   OH2 8830   7.465   5.890   2.054
 2962TIP3    H1 8831   7.523   5.863   1.983
 2962TIP3    H2 8832   7.518   5.951   2.106
 2963TIP3   OH2 8833   6.084   2.785   3.622
 2963TIP3    H1 8834   6.131   2.860   3.659
 2963TIP3    H2 8835   6.152   2.724   3.595
 2964TIP3   OH2 8836   3.754   5.631   3.791
 2964TIP3    H1 8837   3.793   5.661   3.709
 2964TIP3    H2 8838   3.673   5.681   3.800
 2965TIP3   OH2 8839   0.710   6.808   5.278
 2965TIP3    H1 8840   0.756   6.822   5.361
 2965TIP3    H2 8841   0.693   6.714   5.276
 2966TIP3   OH2 8842   2.936   3.254   6.019
 2966TIP3    H1 8843   2.856   3.305   6.033
 2966TIP3    H2 8844   2.984   3.304   5.952
 2967TIP3   OH2 8845   0.885   7.350   1.982
 2967TIP3    H1 8846   0.822   7.289   1.943
 2967TIP3    H2 8847   0.971   7.312   1.962
 2968TIP3   OH2 8848   4.295   2.824   0.445
 2968TIP3    H1 8849   4.390   2.831   0.452
 2968TIP3    H2 8850   4.263   2.911   0.470
 2969TIP3   OH2 8851   7.921   2.249   0.877
 2969TIP3    H1 8852   7.833   2.278   0.851
 2969TIP3    H2 8853   7.953   2.201   0.800
 2970TIP3   OH2 8854   7.322   7.333   0.715
 2970TIP3    H1 8855   7.360   7.266   0.771
 2970TIP3    H2 8856   7.331   7.298   0.626
 2971TIP3   OH2 8857   2.179   7.175   1.138
 2971TIP3    H1 8858   2.192   7.094   1.188
 2971TIP3    H2 8859   2.089   7.169   1.106
 2972TIP3   OH2 8860   6.536   3.524   3.147
 2972TIP3    H1 8861   6.529   3.615   3.174
 2972TIP3    H2 8862   6.625   3.516   3.111
 2973TIP3   OH2 8863   4.988   5.152   3.999
 2973TIP3    H1 8864   5.010   5.067   3.962
 2973TIP3    H2 8865   4.898   5.143   4.030
 2974TIP3   OH2 8866   5.262   2.019   0.738
 2974TIP3    H1 8867   5.197   2.011   0.808
 2974TIP3    H2 8868   5.216   2.066   0.668
 2975TIP3   OH2 8869   6.927   6.027   3.033
 2975TIP3    H1 8870   6.910   6.078   3.112
 2975TIP3    H2 8871   7.003   5.973   3.055
 2976TIP3   OH2 8872   6.433   6.635   6.525
 2976TIP3    H1 8873   6.388   6.559   6.489
 2976TIP3    H2 8874   6.441   6.616   6.618
 2977TIP3   OH2 8875   1.506   1.057   5.946
 2977TIP3    H1 8876   1.580   1.117   5.956
 2977TIP3    H2 8877   1.452   1.073   6.023
 2978TIP3   OH2 8878   7.307   7.581   4.003
 2978TIP3    H1 8879   7.337   7.496   4.034
 2978TIP3    H2 8880   7.261   7.562   3.921
 2979TIP3   OH2 8881   1.474   2.207   6.369
 2979TIP3    H1 8882   1.564   2.218   6.399
 2979TIP3    H2 8883   1.447   2.121   6.403
 2980TIP3   OH2 8884   7.420   3.901   4.116
 2980TIP3    H1 8885   7.366   3.971   4.151
 2980TIP3    H2 8886   7.380   3.820   4.149
 2981TIP3   OH2 8887   2.929   7.254   0.759
 2981TIP3    H1 8888   2.868   7.182   0.777
 2981TIP3    H2 8889   2.876   7.318   0.711
 2982TIP3   OH2 8890   2.597   7.512   0.617
 2982TIP3    H1 8891   2.594   7.597   0.661
 2982TIP3    H2 8892   2.690   7.499   0.597
 2983TIP3   OH2 8893   6.858   4.740   4.824
 2983TIP3    H1 8894   6.933   4.691   4.792
 2983TIP3    H2 8895   6.873   4.750   4.918
 2984TIP3   OH2 8896   7.545   7.187   5.333
 2984TIP3    H1 8897   7.451   7.203   5.338
 2984TIP3    H2 8898   7.581   7.270   5.301
 2985TIP3   OH2 8899   8.241   0.566   5.127
 2985TIP3    H1 8900   8.215   0.629   5.194
 2985TIP3    H2 8901   8.219   0.608   5.044
 2986TIP3   OH2 8902   0.438   6.231   5.932
 2986TIP3    H1 8903   0.509   6.184   5.977
 2986TIP3    H2 8904   0.368   6.166   5.925
 2987TIP3   OH2 8905   4.190   3.750   4.185
 2987TIP3    H1 8906   4.240   3.778   4.108
 2987TIP3    H2 8907   4.146   3.670   4.157
 2988TIP3   OH2 8908   3.091   0.443   5.540
 2988TIP3    H1 8909   3.105   0.373   5.603
 2988TIP3    H2 8910   3.140   0.416   5.462
 2989TIP3   OH2 8911   5.962   5.008   1.500
 2989TIP3    H1 8912   5.978   5.031   1.409
 2989TIP3    H2 8913   5.986   5.086   1.549
 2990TIP3   OH2 8914   5.892   3.147   2.961
 2990TIP3    H1 8915   5.933   3.222   2.919
 2990TIP3    H2 8916   5.948   3.127   3.036
 2991TIP3   OH2 8917   1.754   1.577   4.793
 2991TIP3    H1 8918   1.827   1.519   4.814
 2991TIP3    H2 8919   1.742   1.631   4.871
 2992TIP3   OH2 8920   1.909   2.801   2.340
 2992TIP3    H1 8921   1.971   2.731   2.357
 2992TIP3    H2 8922   1.960   2.881   2.351
 2993TIP3   OH2 8923   1.940   7.432   2.483
 2993TIP3    H1 8924   2.020   7.440   2.431
 2993TIP3    H2 8925   1.874   7.404   2.420
 2994TIP3   OH2 8926   5.750   3.585   6.051
 2994TIP3    H1 8927   5.844   3.594   6.071
 2994TIP3    H2 8928   5.707   3.589   6.137
 2995TIP3   OH2 8929   1.247   3.120   4.384
 2995TIP3    H1 8930   1.193   3.181   4.434
 2995TIP3    H2 8931   1.231   3.143   4.292
 2996TIP3   OH2 8932   5.779   5.521   6.009
 2996TIP3    H1 8933   5.821   5.446   6.050
 2996TIP3    H2 8934   5.817   5.597   6.054
 2997TIP3   OH2 8935   1.138   7.771   6.105
 2997TIP3    H1 8936   1.211   7.823   6.072
 2997TIP3    H2 8937   1.143   7.780   6.200
 2998TIP3   OH2 8938   0.824   2.891   4.684
 2998TIP3    H1 8939   0.747   2.918   4.635
 2998TIP3    H2 8940   0.870   2.972   4.704
 2999TIP3   OH2 8941   7.087   6.794   3.563
 2999TIP3    H1 8942   7.018   6.730   3.578
 2999TIP3    H2 8943   7.100   6.835   3.648
 3000TIP3   OH2 8944   0.658   2.696   2.074
 3000TIP3    H1 8945   0.589   2.633   2.055
 3000TIP3    H2 8946   0.639   2.726   2.163
 3001TIP3   OH2 8947   1.004   5.825   4.520
 3001TIP3    H1 8948   1.021   5.731   4.526
 3001TIP3    H2 8949   0.913   5.830   4.491
 3002TIP3   OH2 8950   7.372   2.311   6.705
 3002TIP3    H1 8951   7.351   2.339   6.616
 3002TIP3    H2 8952   7.464   2.333   6.716
 3003TIP3   OH2 8953   5.897   7.433   1.440
 3003TIP3    H1 8954   5.911   7.341   1.416
 3003TIP3    H2 8955   5.821   7.460   1.387
 3004TIP3   OH2 8956   7.593   1.858   0.587
 3004TIP3    H1 8957   7.540   1.898   0.655
 3004TIP3    H2 8958   7.589   1.764   0.605
 3005TIP3   OH2 8959   0.806   4.045   6.387
 3005TIP3    H1 8960   0.756   3.989   6.446
 3005TIP3    H2 8961   0.879   4.077   6.441
 3006TIP3   OH2 8962   6.013   7.368   3.510
 3006TIP3    H1 8963   6.040   7.390   3.421
 3006TIP3    H2 8964   5.918   7.355   3.504
 3007TIP3   OH2 8965   6.172   4.772   0.954
 3007TIP3    H1 8966   6.204   4.725   0.876
 3007TIP3    H2 8967   6.114   4.840   0.920
 3008TIP3   OH2 8968   1.578   2.126   0.530
 3008TIP3    H1 8969   1.633   2.201   0.553
 3008TIP3    H2 8970   1.525   2.156   0.456
 3009TIP3   OH2 8971   3.407   5.011   5.967
 3009TIP3    H1 8972   3.387   4.965   5.885
 3009TIP3    H2 8973   3.409   4.942   6.033
 3010TIP3   OH2 8974   6.776   2.410   4.121
 3010TIP3    H1 8975   6.758   2.504   4.127
 3010TIP3    H2 8976   6.690   2.369   4.115
 3011TIP3   OH2 8977   0.144   1.098   4.133
 3011TIP3    H1 8978   0.154   1.066   4.223
 3011TIP3    H2 8979   0.066   1.152   4.135
 3012TIP3   OH2 8980   5.573   5.596   2.818
 3012TIP3    H1 8981   5.573   5.691   2.829
 3012TIP3    H2 8982   5.553   5.562   2.905
 3013TIP3   OH2 8983   0.761   2.349   2.138
 3013TIP3    H1 8984   0.770   2.283   2.207
 3013TIP3    H2 8985   0.825   2.416   2.161
 3014TIP3   OH2 8986   0.996   0.715   3.108
 3014TIP3    H1 8987   0.990   0.697   3.014
 3014TIP3    H2 8988   1.036   0.636   3.145
 3015TIP3   OH2 8989   4.521   2.219   2.868
 3015TIP3    H1 8990   4.428   2.220   2.892
 3015TIP3    H2 8991   4.555   2.139   2.908
 3016TIP3   OH2 8992   4.005   0.861   6.231
 3016TIP3    H1 8993   4.057   0.886   6.155
 3016TIP3    H2 8994   3.920   0.901   6.217
 3017TIP3   OH2 8995   2.252   3.847   4.334
 3017TIP3    H1 8996   2.283   3.785   4.400
 3017TIP3    H2 8997   2.277   3.933   4.368
 3018TIP3   OH2 8998   3.649   0.347   5.710
 3018TIP3    H1 8999   3.661   0.354   5.805
 3018TIP3    H2 9000   3.556   0.329   5.699
 3019TIP3   OH2 9001   2.093   7.328   3.720
 3019TIP3    H1 9002   2.001   7.308   3.739
 3019TIP3    H2 9003   2.095   7.344   3.626
 3020TIP3   OH2 9004   3.590   1.390   4.337
 3020TIP3    H1 9005   3.497   1.378   4.356
 3020TIP3    H2 9006   3.624   1.435   4.414
 3021TIP3   OH2 9007   7.117   4.466   2.265
 3021TIP3    H1 9008   7.068   4.537   2.224
 3021TIP3    H2 9009   7.078   4.457   2.352
 3022TIP3   OH2 9010   6.160   7.474   1.385
 3022TIP3    H1 9011   6.073   7.499   1.418
 3022TIP3    H2 9012   6.216   7.476   1.462
 3023TIP3   OH2 9013   4.705   3.445   5.722
 3023TIP3    H1 9014   4.696   3.350   5.719
 3023TIP3    H2 9015   4.686   3.468   5.813
 3024TIP3   OH2 9016   2.549   0.476   3.876
 3024TIP3    H1 9017   2.474   0.535   3.880
 3024TIP3    H2 9018   2.586   0.491   3.788
 3025TIP3   OH2 9019   3.928   1.566   6.195
 3025TIP3    H1 9020   4.016   1.529   6.185
 3025TIP3    H2 9021   3.929   1.608   6.280
 3026TIP3   OH2 9022   5.220   6.127   2.386
 3026TIP3    H1 9023   5.226   6.074   2.465
 3026TIP3    H2 9024   5.253   6.070   2.317
 3027TIP3   OH2 9025   0.721   0.815   1.149
 3027TIP3    H1 9026   0.771   0.733   1.154
 3027TIP3    H2 9027   0.787   0.883   1.135
 3028TIP3   OH2 9028   2.181   0.840   0.517
 3028TIP3    H1 9029   2.087   0.842   0.536
 3028TIP3    H2 9030   2.220   0.799   0.594
 3029TIP3   OH2 9031   6.260   2.491   5.994
 3029TIP3    H1 9032   6.338   2.471   6.046
 3029TIP3    H2 9033   6.276   2.449   5.909
 3030TIP3   OH2 9034   5.691   3.348   2.571
 3030TIP3    H1 9035   5.638   3.417   2.531
 3030TIP3    H2 9036   5.630   3.303   2.630
 3031TIP3   OH2 9037   4.801   1.406   3.668
 3031TIP3    H1 9038   4.876   1.374   3.718
 3031TIP3    H2 9039   4.774   1.331   3.615
 3032TIP3   OH2 9040   0.250   4.995   5.268
 3032TIP3    H1 9041   0.185   5.028   5.205
 3032TIP3    H2 9042   0.317   4.954   5.214
 3033TIP3   OH2 9043   4.094   4.483   4.964
 3033TIP3    H1 9044   4.108   4.450   5.053
 3033TIP3    H2 9045   4.174   4.533   4.944
 3034TIP3   OH2 9046   0.867   5.989   3.437
 3034TIP3    H1 9047   0.837   5.903   3.407
 3034TIP3    H2 9048   0.961   5.978   3.449
 3035TIP3   OH2 9049   7.002   2.332   5.257
 3035TIP3    H1 9050   6.936   2.380   5.306
 3035TIP3    H2 9051   7.084   2.378   5.274
 3036TIP3   OH2 9052   5.017   0.718   3.071
 3036TIP3    H1 9053   5.021   0.630   3.034
 3036TIP3    H2 9054   5.063   0.773   3.008
 3037TIP3   OH2 9055   1.450   6.582   6.740
 3037TIP3    H1 9056   1.509   6.635   6.686
 3037TIP3    H2 9057   1.460   6.617   6.829
 3038TIP3   OH2 9058   5.203   7.091   6.218
 3038TIP3    H1 9059   5.239   7.035   6.287
 3038TIP3    H2 9060   5.109   7.080   6.225
 3039TIP3   OH2 9061   0.977   2.133   2.453
 3039TIP3    H1 9062   0.897   2.166   2.410
 3039TIP3    H2 9063   1.014   2.072   2.390
 3040TIP3   OH2 9064   7.827   3.267   5.657
 3040TIP3    H1 9065   7.913   3.304   5.636
 3040TIP3    H2 9066   7.816   3.194   5.595
 3041TIP3   OH2 9067   5.232   4.151   1.125
 3041TIP3    H1 9068   5.313   4.119   1.167
 3041TIP3    H2 9069   5.183   4.192   1.196
 3042TIP3   OH2 9070   2.829   4.489   3.543
 3042TIP3    H1 9071   2.908   4.437   3.556
 3042TIP3    H2 9072   2.858   4.565   3.493
 3043TIP3   OH2 9073   5.724   4.760   2.872
 3043TIP3    H1 9074   5.641   4.748   2.826
 3043TIP3    H2 9075   5.699   4.789   2.960
 3044TIP3   OH2 9076   1.666   0.831   1.095
 3044TIP3    H1 9077   1.705   0.754   1.135
 3044TIP3    H2 9078   1.571   0.819   1.107
 3045TIP3   OH2 9079   0.730   5.107   1.156
 3045TIP3    H1 9080   0.751   5.199   1.169
 3045TIP3    H2 9081   0.800   5.073   1.102
 3046TIP3   OH2 9082   7.712   4.737   0.549
 3046TIP3    H1 9083   7.703   4.791   0.470
 3046TIP3    H2 9084   7.677   4.652   0.524
 3047TIP3   OH2 9085   5.857   1.945   3.436
 3047TIP3    H1 9086   5.826   2.009   3.500
 3047TIP3    H2 9087   5.952   1.954   3.437
 3048TIP3   OH2 9088   0.895   4.262   4.613
 3048TIP3    H1 9089   0.972   4.317   4.629
 3048TIP3    H2 9090   0.891   4.204   4.689
 3049TIP3   OH2 9091   4.041   0.727   4.312
 3049TIP3    H1 9092   3.987   0.693   4.383
 3049TIP3    H2 9093   3.978   0.762   4.249
 3050TIP3   OH2 9094   1.943   7.606   5.401
 3050TIP3    H1 9095   1.873   7.593   5.466
 3050TIP3    H2 9096   1.976   7.694   5.419
 3051TIP3   OH2 9097   1.719   4.837   3.515
 3051TIP3    H1 9098   1.728   4.764   3.453
 3051TIP3    H2 9099   1.742   4.914   3.463
 3052TIP3   OH2 9100   6.557   3.204   4.627
 3052TIP3    H1 9101   6.507   3.232   4.704
 3052TIP3    H2 9102   6.647   3.228   4.647
 3053TIP3   OH2 9103   1.462   1.470   5.505
 3053TIP3    H1 9104   1.469   1.404   5.574
 3053TIP3    H2 9105   1.456   1.553   5.552
 3054TIP3   OH2 9106   6.821   6.043   5.731
 3054TIP3    H1 9107   6.834   6.004   5.644
 3054TIP3    H2 9108   6.781   6.128   5.713
 3055TIP3   OH2 9109   2.988   2.073   5.517
 3055TIP3    H1 9110   2.984   1.998   5.577
 3055TIP3    H2 9111   2.899   2.107   5.514
 3056TIP3   OH2 9112   1.427   7.678   0.091
 3056TIP3    H1 9113   1.416   7.597   0.040
 3056TIP3    H2 9114   1.466   7.739   0.030
 3057TIP3   OH2 9115   5.479   4.341   3.504
 3057TIP3    H1 9116   5.504   4.386   3.423
 3057TIP3    H2 9117   5.520   4.393   3.573
 3058TIP3   OH2 9118   6.945   7.505   3.227
 3058TIP3    H1 9119   7.035   7.536   3.242
 3058TIP3    H2 9120   6.932   7.515   3.133
 3059TIP3   OH2 9121   4.194   4.104   6.066
 3059TIP3    H1 9122   4.209   4.056   5.984
 3059TIP3    H2 9123   4.197   4.196   6.039
 3060TIP3   OH2 9124   2.833   3.297   6.796
 3060TIP3    H1 9125   2.870   3.382   6.771
 3060TIP3    H2 9126   2.893   3.233   6.757
 3061TIP3   OH2 9127   3.725   5.639   1.627
 3061TIP3    H1 9128   3.679   5.557   1.643
 3061TIP3    H2 9129   3.705   5.662   1.536
 3062TIP3   OH2 9130   3.724   5.332   5.466
 3062TIP3    H1 9131   3.753   5.421   5.444
 3062TIP3    H2 9132   3.695   5.337   5.557
 3063TIP3   OH2 9133   7.125   1.874   5.471
 3063TIP3    H1 9134   7.050   1.917   5.429
 3063TIP3    H2 9135   7.109   1.884   5.565
 3064TIP3   OH2 9136   5.516   3.969   2.304
 3064TIP3    H1 9137   5.594   3.938   2.260
 3064TIP3    H2 9138   5.456   3.993   2.233
 3065TIP3   OH2 9139   6.243   2.413   1.192
 3065TIP3    H1 9140   6.243   2.322   1.224
 3065TIP3    H2 9141   6.333   2.429   1.166
 3066TIP3   OH2 9142   4.799   7.285   4.098
 3066TIP3    H1 9143   4.761   7.320   4.018
 3066TIP3    H2 9144   4.879   7.336   4.111
 3067TIP3   OH2 9145   4.849   4.015   0.754
 3067TIP3    H1 9146   4.846   4.053   0.841
 3067TIP3    H2 9147   4.851   4.091   0.695
 3068TIP3   OH2 9148   7.786   7.017   0.833
 3068TIP3    H1 9149   7.778   6.923   0.815
 3068TIP3    H2 9150   7.760   7.059   0.751
 3069TIP3   OH2 9151   5.120   2.446   1.235
 3069TIP3    H1 9152   5.025   2.442   1.241
 3069TIP3    H2 9153   5.138   2.531   1.195
 3070TIP3   OH2 9154   3.835   1.354   5.849
 3070TIP3    H1 9155   3.815   1.270   5.889
 3070TIP3    H2 9156   3.749   1.392   5.829
 3071TIP3   OH2 9157   1.794   2.147   2.725
 3071TIP3    H1 9158   1.707   2.166   2.691
 3071TIP3    H2 9159   1.831   2.083   2.664
 3072TIP3   OH2 9160   4.074   2.787   4.294
 3072TIP3    H1 9161   4.131   2.794   4.370
 3072TIP3    H2 9162   4.039   2.698   4.298
 3073TIP3   OH2 9163   7.076   0.541   1.749
 3073TIP3    H1 9164   7.091   0.507   1.838
 3073TIP3    H2 9165   7.157   0.522   1.702
 3074TIP3   OH2 9166   1.812   0.053   0.083
 3074TIP3    H1 9167   1.809   0.094  -0.004
 3074TIP3    H2 9168   1.902   0.022   0.092
 3075TIP3   OH2 9169   1.287   5.119   6.491
 3075TIP3    H1 9170   1.380   5.097   6.486
 3075TIP3    H2 9171   1.259   5.124   6.400
 3076TIP3   OH2 9172   3.154   7.755   0.318
 3076TIP3    H1 9173   3.204   7.801   0.386
 3076TIP3    H2 9174   3.202   7.773   0.237
 3077TIP3   OH2 9175   7.064   1.565   1.673
 3077TIP3    H1 9176   7.114   1.484   1.661
 3077TIP3    H2 9177   7.011   1.550   1.751
 3078TIP3   OH2 9178   3.543   3.059   4.561
 3078TIP3    H1 9179   3.576   2.971   4.541
 3078TIP3    H2 9180   3.507   3.051   4.649
 3079TIP3   OH2 9181   3.834   7.405   2.226
 3079TIP3    H1 9182   3.759   7.453   2.259
 3079TIP3    H2 9183   3.808   7.313   2.230
 3080TIP3   OH2 9184   0.942   3.758   5.836
 3080TIP3    H1 9185   0.949   3.786   5.928
 3080TIP3    H2 9186   0.955   3.664   5.838
 3081TIP3   OH2 9187   1.926   3.091   0.776
 3081TIP3    H1 9188   2.018   3.107   0.755
 3081TIP3    H2 9189   1.898   3.170   0.822
 3082TIP3   OH2 9190   6.175   6.728   3.605
 3082TIP3    H1 9191   6.087   6.738   3.569
 3082TIP3    H2 9192   6.233   6.735   3.529
 3083TIP3   OH2 9193   3.180   7.348   1.147
 3083TIP3    H1 9194   3.230   7.388   1.076
 3083TIP3    H2 9195   3.199   7.403   1.224
 3084TIP3   OH2 9196   2.295   0.031   1.051
 3084TIP3    H1 9197   2.345   0.044   0.970
 3084TIP3    H2 9198   2.212   0.077   1.035
 3085TIP3   OH2 9199   6.500   3.421   4.154
 3085TIP3    H1 9200   6.518   3.404   4.246
 3085TIP3    H2 9201   6.424   3.367   4.133
 3086TIP3   OH2 9202   8.167   3.407   6.382
 3086TIP3    H1 9203   8.105   3.457   6.436
 3086TIP3    H2 9204   8.126   3.321   6.374
 3087TIP3   OH2 9205   3.733   5.984   4.004
 3087TIP3    H1 9206   3.795   5.936   4.059
 3087TIP3    H2 9207   3.648   5.967   4.045
 3088TIP3   OH2 9208   7.126   3.660   1.832
 3088TIP3    H1 9209   7.113   3.589   1.769
 3088TIP3    H2 9210   7.220   3.674   1.833
 3089TIP3   OH2 9211   3.440   3.850   6.369
 3089TIP3    H1 9212   3.357   3.893   6.387
 3089TIP3    H2 9213   3.456   3.866   6.276
 3090TIP3   OH2 9214   6.117   7.582   0.304
 3090TIP3    H1 9215   6.129   7.676   0.312
 3090TIP3    H2 9216   6.041   7.563   0.360
 3091TIP3   OH2 9217   0.290   6.502   5.587
 3091TIP3    H1 9218   0.225   6.526   5.520
 3091TIP3    H2 9219   0.284   6.572   5.652
 3092TIP3   OH2 9220   0.228   2.819   5.090
 3092TIP3    H1 9221   0.149   2.846   5.136
 3092TIP3    H2 9222   0.252   2.735   5.130
 3093TIP3   OH2 9223   8.207   0.383   0.486
 3093TIP3    H1 9224   8.264   0.453   0.518
 3093TIP3    H2 9225   8.210   0.316   0.555
 3094TIP3   OH2 9226   5.039   0.860   3.814
 3094TIP3    H1 9227   4.971   0.873   3.748
 3094TIP3    H2 9228   5.025   0.930   3.877
 3095TIP3   OH2 9229   1.882   6.775   4.188
 3095TIP3    H1 9230   1.935   6.730   4.253
 3095TIP3    H2 9231   1.817   6.823   4.239
 3096TIP3   OH2 9232   7.058   7.803   1.809
 3096TIP3    H1 9233   7.098   7.716   1.815
 3096TIP3    H2 9234   7.107   7.856   1.871
 3097TIP3   OH2 9235   2.098   2.728   4.850
 3097TIP3    H1 9236   2.188   2.695   4.851
 3097TIP3    H2 9237   2.107   2.823   4.863
 3098TIP3   OH2 9238   1.160   6.657   2.905
 3098TIP3    H1 9239   1.184   6.730   2.847
 3098TIP3    H2 9240   1.124   6.700   2.983
 3099TIP3   OH2 9241   5.550   0.351   5.760
 3099TIP3    H1 9242   5.634   0.386   5.729
 3099TIP3    H2 9243   5.541   0.385   5.849
 3100TIP3   OH2 9244   3.110   7.605   3.141
 3100TIP3    H1 9245   3.047   7.535   3.157
 3100TIP3    H2 9246   3.156   7.616   3.224
 3101TIP3   OH2 9247   7.458   7.555   6.232
 3101TIP3    H1 9248   7.465   7.512   6.317
 3101TIP3    H2 9249   7.532   7.616   6.229
 3102TIP3   OH2 9250   8.065   6.769   1.933
 3102TIP3    H1 9251   8.006   6.811   1.870
 3102TIP3    H2 9252   8.008   6.714   1.986
 3103TIP3   OH2 9253   6.566   5.048   2.231
 3103TIP3    H1 9254   6.545   5.026   2.322
 3103TIP3    H2 9255   6.504   5.118   2.208
 3104TIP3   OH2 9256   6.263   4.114   4.518
 3104TIP3    H1 9257   6.239   4.204   4.497
 3104TIP3    H2 9258   6.198   4.087   4.583
 3105TIP3   OH2 9259   0.634   4.237   6.248
 3105TIP3    H1 9260   0.652   4.228   6.154
 3105TIP3    H2 9261   0.686   4.167   6.289
 3106TIP3   OH2 9262   8.142   2.235   1.048
 3106TIP3    H1 9263   8.114   2.160   1.100
 3106TIP3    H2 9264   8.070   2.249   0.986
 3107TIP3   OH2 9265   7.545   0.669   2.793
 3107TIP3    H1 9266   7.530   0.762   2.812
 3107TIP3    H2 9267   7.637   0.655   2.816
 3108TIP3   OH2 9268   4.197   0.876   6.669
 3108TIP3    H1 9269   4.125   0.862   6.607
 3108TIP3    H2 9270   4.156   0.869   6.755
 3109TIP3   OH2 9271   8.002   0.940   2.015
 3109TIP3    H1 9272   8.005   0.855   2.059
 3109TIP3    H2 9273   7.911   0.969   2.026
 3110TIP3   OH2 9274   4.563   7.406   1.808
 3110TIP3    H1 9275   4.551   7.472   1.740
 3110TIP3    H2 9276   4.594   7.328   1.762
 3111TIP3   OH2 9277   4.796   0.534   1.832
 3111TIP3    H1 9278   4.803   0.592   1.756
 3111TIP3    H2 9279   4.868   0.472   1.822
 3112TIP3   OH2 9280   6.751   4.291   0.962
 3112TIP3    H1 9281   6.731   4.232   1.035
 3112TIP3    H2 9282   6.818   4.245   0.912
 3113TIP3   OH2 9283   3.342   3.835   3.907
 3113TIP3    H1 9284   3.296   3.907   3.863
 3113TIP3    H2 9285   3.323   3.847   4.000
 3114TIP3   OH2 9286   6.505   4.654   0.355
 3114TIP3    H1 9287   6.413   4.631   0.346
 3114TIP3    H2 9288   6.504   4.734   0.407
 3115TIP3   OH2 9289   8.294   4.112   1.035
 3115TIP3    H1 9290   8.238   4.070   1.101
 3115TIP3    H2 9291   8.339   4.039   0.992
 3116TIP3   OH2 9292   2.182   6.541   3.923
 3116TIP3    H1 9293   2.230   6.593   3.859
 3116TIP3    H2 9294   2.104   6.592   3.943
 3117TIP3   OH2 9295   4.822   7.103   0.437
 3117TIP3    H1 9296   4.907   7.128   0.400
 3117TIP3    H2 9297   4.836   7.103   0.532
 3118TIP3   OH2 9298   6.474   5.264   5.915
 3118TIP3    H1 9299   6.493   5.213   5.837
 3118TIP3    H2 9300   6.393   5.227   5.950
 3119TIP3   OH2 9301   6.144   6.869   3.011
 3119TIP3    H1 9302   6.110   6.911   2.932
 3119TIP3    H2 9303   6.232   6.840   2.987
 3120TIP3   OH2 9304   5.202   4.676   1.449
 3120TIP3    H1 9305   5.147   4.708   1.521
 3120TIP3    H2 9306   5.142   4.663   1.376
 3121TIP3   OH2 9307   4.822   2.972   4.878
 3121TIP3    H1 9308   4.807   2.971   4.973
 3121TIP3    H2 9309   4.917   2.974   4.868
 3122TIP3   OH2 9310   1.335   3.758   2.298
 3122TIP3    H1 9311   1.369   3.681   2.345
 3122TIP3    H2 9312   1.387   3.761   2.218
 3123TIP3   OH2 9313   1.289   6.353   1.101
 3123TIP3    H1 9314   1.212   6.387   1.056
 3123TIP3    H2 9315   1.359   6.415   1.079
 3124TIP3   OH2 9316   8.113   3.771   6.619
 3124TIP3    H1 9317   8.086   3.814   6.701
 3124TIP3    H2 9318   8.196   3.729   6.641
 3125TIP3   OH2 9319   3.970   5.493   3.082
 3125TIP3    H1 9320   3.942   5.434   3.151
 3125TIP3    H2 9321   3.892   5.541   3.057
 3126TIP3   OH2 9322   5.210   5.516   6.084
 3126TIP3    H1 9323   5.162   5.487   6.162
 3126TIP3    H2 9324   5.297   5.537   6.116
 3127TIP3   OH2 9325   6.525   7.196   4.300
 3127TIP3    H1 9326   6.483   7.281   4.288
 3127TIP3    H2 9327   6.503   7.147   4.221
 3128TIP3   OH2 9328   6.524   5.892   4.068
 3128TIP3    H1 9329   6.469   5.970   4.061
 3128TIP3    H2 9330   6.601   5.921   4.116
 3129TIP3   OH2 9331   5.525   5.618   2.550
 3129TIP3    H1 9332   5.593   5.558   2.521
 3129TIP3    H2 9333   5.553   5.646   2.637
 3130TIP3   OH2 9334   7.107   3.337   2.412
 3130TIP3    H1 9335   7.104   3.242   2.426
 3130TIP3    H2 9336   7.116   3.374   2.500
 3131TIP3   OH2 9337   0.600   7.419   2.215
 3131TIP3    H1 9338   0.646   7.337   2.235
 3131TIP3    H2 9339   0.522   7.391   2.168
 3132TIP3   OH2 9340   6.041   3.534   5.391
 3132TIP3    H1 9341   5.970   3.486   5.433
 3132TIP3    H2 9342   6.059   3.484   5.311
 3133TIP3   OH2 9343   1.135   4.165   0.492
 3133TIP3    H1 9344   1.157   4.227   0.423
 3133TIP3    H2 9345   1.080   4.099   0.449
 3134TIP3   OH2 9346   4.349   6.437   1.132
 3134TIP3    H1 9347   4.348   6.525   1.094
 3134TIP3    H2 9348   4.432   6.400   1.102
 3135TIP3   OH2 9349   2.688   6.419   5.538
 3135TIP3    H1 9350   2.677   6.367   5.458
 3135TIP3    H2 9351   2.752   6.370   5.589
 3136TIP3   OH2 9352   6.366   2.426   2.339
 3136TIP3    H1 9353   6.458   2.449   2.327
 3136TIP3    H2 9354   6.329   2.500   2.387
 3137TIP3   OH2 9355   2.258   4.352   3.538
 3137TIP3    H1 9356   2.229   4.392   3.456
 3137TIP3    H2 9357   2.331   4.295   3.512
 3138TIP3   OH2 9358   2.618   0.614   2.901
 3138TIP3    H1 9359   2.528   0.589   2.882
 3138TIP3    H2 9360   2.658   0.631   2.816
 3139TIP3   OH2 9361   0.306   4.853   3.134
 3139TIP3    H1 9362   0.394   4.868   3.102
 3139TIP3    H2 9363   0.249   4.891   3.067
 3140TIP3   OH2 9364   2.075   0.848   1.826
 3140TIP3    H1 9365   2.060   0.790   1.900
 3140TIP3    H2 9366   2.083   0.935   1.865
 3141TIP3   OH2 9367   0.375   4.674   3.962
 3141TIP3    H1 9368   0.395   4.581   3.977
 3141TIP3    H2 9369   0.451   4.720   3.998
 3142TIP3   OH2 9370   5.110   0.215   5.393
 3142TIP3    H1 9371   5.090   0.258   5.476
 3142TIP3    H2 9372   5.197   0.247   5.369
 3143TIP3   OH2 9373   3.606   0.969   0.698
 3143TIP3    H1 9374   3.614   0.928   0.784
 3143TIP3    H2 9375   3.653   1.052   0.705
 3144TIP3   OH2 9376   6.617   1.706   0.680
 3144TIP3    H1 9377   6.668   1.628   0.703
 3144TIP3    H2 9378   6.560   1.721   0.756
 3145TIP3   OH2 9379   5.126   2.348   0.212
 3145TIP3    H1 9380   5.190   2.416   0.229
 3145TIP3    H2 9381   5.177   2.266   0.212
 3146TIP3   OH2 9382   7.937   6.329   2.120
 3146TIP3    H1 9383   7.922   6.396   2.053
 3146TIP3    H2 9384   7.992   6.264   2.077
 3147TIP3   OH2 9385   2.830   4.767   4.624
 3147TIP3    H1 9386   2.893   4.778   4.695
 3147TIP3    H2 9387   2.772   4.697   4.654
 3148TIP3   OH2 9388   5.587   4.662   1.700
 3148TIP3    H1 9389   5.575   4.747   1.741
 3148TIP3    H2 9390   5.498   4.630   1.684
 3149TIP3   OH2 9391   0.855   6.011   2.372
 3149TIP3    H1 9392   0.917   5.984   2.439
 3149TIP3    H2 9393   0.881   6.100   2.349
 3150TIP3   OH2 9394   7.189   0.101   1.873
 3150TIP3    H1 9395   7.148   0.056   1.948
 3150TIP3    H2 9396   7.266   0.143   1.910
 3151TIP3   OH2 9397   5.267   5.933   1.279
 3151TIP3    H1 9398   5.257   5.908   1.370
 3151TIP3    H2 9399   5.289   5.852   1.233
 3152TIP3   OH2 9400   2.679   3.938   5.132
 3152TIP3    H1 9401   2.596   3.981   5.154
 3152TIP3    H2 9402   2.690   3.956   5.039
 3153TIP3   OH2 9403   3.387   2.593   0.034
 3153TIP3    H1 9404   3.376   2.687   0.021
 3153TIP3    H2 9405   3.309   2.566   0.082
 3154TIP3   OH2 9406   5.161   2.822   3.044
 3154TIP3    H1 9407   5.233   2.779   2.997
 3154TIP3    H2 9408   5.122   2.881   2.980
 3155TIP3   OH2 9409   5.698   1.171   0.208
 3155TIP3    H1 9410   5.626   1.120   0.245
 3155TIP3    H2 9411   5.751   1.106   0.161
 3156TIP3   OH2 9412   0.634   2.070   5.736
 3156TIP3    H1 9413   0.681   2.016   5.673
 3156TIP3    H2 9414   0.584   2.007   5.788
 3157TIP3   OH2 9415   7.564   3.257   4.077
 3157TIP3    H1 9416   7.639   3.273   4.134
 3157TIP3    H2 9417   7.489   3.256   4.136
 3158TIP3   OH2 9418   2.222   0.556   5.128
 3158TIP3    H1 9419   2.216   0.507   5.046
 3158TIP3    H2 9420   2.299   0.519   5.172
 3159TIP3   OH2 9421   1.472   6.368   3.304
 3159TIP3    H1 9422   1.431   6.286   3.277
 3159TIP3    H2 9423   1.400   6.422   3.335
 3160TIP3   OH2 9424   4.258   5.533   6.028
 3160TIP3    H1 9425   4.246   5.547   6.122
 3160TIP3    H2 9426   4.169   5.534   5.993
 3161TIP3   OH2 9427   3.833   7.107   5.566
 3161TIP3    H1 9428   3.907   7.088   5.509
 3161TIP3    H2 9429   3.771   7.035   5.549
 3162TIP3   OH2 9430   2.326   1.961   1.761
 3162TIP3    H1 9431   2.275   1.993   1.835
 3162TIP3    H2 9432   2.279   1.884   1.730
 3163TIP3   OH2 9433   7.720   6.315   2.292
 3163TIP3    H1 9434   7.755   6.367   2.365
 3163TIP3    H2 9435   7.785   6.325   2.222
 3164TIP3   OH2 9436   2.866   5.350   1.678
 3164TIP3    H1 9437   2.861   5.428   1.623
 3164TIP3    H2 9438   2.959   5.328   1.681
 3165TIP3   OH2 9439   5.651   1.844   4.542
 3165TIP3    H1 9440   5.585   1.877   4.603
 3165TIP3    H2 9441   5.691   1.769   4.588
 3166TIP3   OH2 9442   6.200   3.259   1.839
 3166TIP3    H1 9443   6.248   3.177   1.826
 3166TIP3    H2 9444   6.250   3.324   1.791
 3167TIP3   OH2 9445   4.720   0.595   4.647
 3167TIP3    H1 9446   4.647   0.629   4.595
 3167TIP3    H2 9447   4.681   0.528   4.703
 3168TIP3   OH2 9448   4.013   5.675   2.241
 3168TIP3    H1 9449   3.988   5.598   2.293
 3168TIP3    H2 9450   3.949   5.678   2.170
 3169TIP3   OH2 9451   7.217   5.833   3.440
 3169TIP3    H1 9452   7.297   5.873   3.473
 3169TIP3    H2 9453   7.193   5.768   3.506
 3170TIP3   OH2 9454   5.181   7.334   6.743
 3170TIP3    H1 9455   5.240   7.274   6.698
 3170TIP3    H2 9456   5.190   7.312   6.835
 3171TIP3   OH2 9457   2.884   3.641   4.060
 3171TIP3    H1 9458   2.915   3.619   3.972
 3171TIP3    H2 9459   2.915   3.731   4.074
 3172TIP3   OH2 9460   7.030   5.598   5.065
 3172TIP3    H1 9461   6.989   5.542   5.131
 3172TIP3    H2 9462   6.971   5.674   5.058
 3173TIP3   OH2 9463   4.617   5.671   6.337
 3173TIP3    H1 9464   4.575   5.586   6.321
 3173TIP3    H2 9465   4.575   5.703   6.417
 3174TIP3   OH2 9466   6.668   2.622   0.130
 3174TIP3    H1 9467   6.704   2.682   0.065
 3174TIP3    H2 9468   6.744   2.590   0.178
 3175TIP3   OH2 9469   2.851   6.025   0.744
 3175TIP3    H1 9470   2.804   6.009   0.662
 3175TIP3    H2 9471   2.810   5.965   0.807
 3176TIP3   OH2 9472   2.204   3.239   2.602
 3176TIP3    H1 9473   2.215   3.210   2.693
 3176TIP3    H2 9474   2.131   3.301   2.606
 3177TIP3   OH2 9475   7.110   3.464   5.489
 3177TIP3    H1 9476   7.169   3.501   5.423
 3177TIP3    H2 9477   7.137   3.373   5.497
 3178TIP3   OH2 9478   3.134   6.269   3.396
 3178TIP3    H1 9479   3.150   6.297   3.486
 3178TIP3    H2 9480   3.168   6.341   3.342
 3179TIP3   OH2 9481   5.256   0.846   2.257
 3179TIP3    H1 9482   5.212   0.924   2.221
 3179TIP3    H2 9483   5.274   0.870   2.348
 3180TIP3   OH2 9484   0.080   5.800   3.441
 3180TIP3    H1 9485   0.042   5.882   3.471
 3180TIP3    H2 9486   0.028   5.775   3.365
 3181TIP3   OH2 9487   2.200   5.887   2.992
 3181TIP3    H1 9488   2.239   5.924   3.071
 3181TIP3    H2 9489   2.146   5.815   3.023
 3182TIP3   OH2 9490   4.858   4.188   0.516
 3182TIP3    H1 9491   4.906   4.263   0.550
 3182TIP3    H2 9492   4.774   4.224   0.488
 3183TIP3   OH2 9493   1.391   2.143   3.962
 3183TIP3    H1 9494   1.358   2.205   4.026
 3183TIP3    H2 9495   1.411   2.064   4.013
 3184TIP3   OH2 9496   2.820   3.220   2.354
 3184TIP3    H1 9497   2.875   3.280   2.403
 3184TIP3    H2 9498   2.878   3.146   2.332
 3185TIP3   OH2 9499   8.036   2.700   6.466
 3185TIP3    H1 9500   8.106   2.667   6.523
 3185TIP3    H2 9501   7.961   2.643   6.485
 3186TIP3   OH2 9502   0.548   5.871   0.625
 3186TIP3    H1 9503   0.550   5.966   0.635
 3186TIP3    H2 9504   0.485   5.855   0.555
 3187TIP3   OH2 9505   1.848   5.439   1.439
 3187TIP3    H1 9506   1.930   5.446   1.488
 3187TIP3    H2 9507   1.793   5.509   1.473
 3188TIP3   OH2 9508   3.940  -0.053   1.125
 3188TIP3    H1 9509   3.980  -0.117   1.067
 3188TIP3    H2 9510   3.959   0.032   1.086
 3189TIP3   OH2 9511   1.713   2.692   1.986
 3189TIP3    H1 9512   1.772   2.617   1.999
 3189TIP3    H2 9513   1.772   2.764   1.961
 3190TIP3   OH2 9514   7.303   5.375   3.347
 3190TIP3    H1 9515   7.299   5.440   3.277
 3190TIP3    H2 9516   7.222   5.389   3.397
 3191TIP3   OH2 9517   8.126   2.716   3.207
 3191TIP3    H1 9518   8.095   2.640   3.257
 3191TIP3    H2 9519   8.221   2.715   3.221
 3192TIP3   OH2 9520   2.389   2.853   2.941
 3192TIP3    H1 9521   2.484   2.856   2.936
 3192TIP3    H2 9522   2.370   2.837   3.033
 3193TIP3   OH2 9523   7.674   5.387   6.154
 3193TIP3    H1 9524   7.703   5.477   6.169
 3193TIP3    H2 9525   7.723   5.334   6.217
 3194TIP3   OH2 9526   2.085   4.271   5.446
 3194TIP3    H1 9527   2.176   4.262   5.417
 3194TIP3    H2 9528   2.040   4.195   5.408
 3195TIP3   OH2 9529   8.251   2.158   6.407
 3195TIP3    H1 9530   8.213   2.140   6.492
 3195TIP3    H2 9531   8.277   2.073   6.373
 3196TIP3   OH2 9532   7.138   5.709   2.840
 3196TIP3    H1 9533   7.200   5.738   2.773
 3196TIP3    H2 9534   7.152   5.770   2.913
 3197TIP3   OH2 9535   6.910   5.904   2.069
 3197TIP3    H1 9536   7.004   5.919   2.061
 3197TIP3    H2 9537   6.872   5.958   2.000
 3198TIP3   OH2 9538   7.418   5.240   1.464
 3198TIP3    H1 9539   7.388   5.313   1.409
 3198TIP3    H2 9540   7.386   5.162   1.418
 3199TIP3   OH2 9541   7.563   1.544   6.051
 3199TIP3    H1 9542   7.504   1.521   6.123
 3199TIP3    H2 9543   7.507   1.544   5.974
 3200TIP3   OH2 9544   1.168   5.132   3.311
 3200TIP3    H1 9545   1.171   5.209   3.255
 3200TIP3    H2 9546   1.079   5.131   3.346
 3201TIP3   OH2 9547   2.096   6.485   3.404
 3201TIP3    H1 9548   2.046   6.472   3.485
 3201TIP3    H2 9549   2.181   6.518   3.434
 3202TIP3   OH2 9550   3.971   7.462   1.981
 3202TIP3    H1 9551   3.940   7.437   2.068
 3202TIP3    H2 9552   4.060   7.428   1.977
 3203TIP3   OH2 9553   6.529   1.719   3.358
 3203TIP3    H1 9554   6.439   1.749   3.347
 3203TIP3    H2 9555   6.577   1.763   3.288
 3204TIP3   OH2 9556   0.798   4.785   3.576
 3204TIP3    H1 9557   0.872   4.766   3.635
 3204TIP3    H2 9558   0.733   4.718   3.597
 3205TIP3   OH2 9559   7.861   2.350   3.289
 3205TIP3    H1 9560   7.798   2.282   3.314
 3205TIP3    H2 9561   7.807   2.427   3.270
 3206TIP3   OH2 9562   1.173   5.119   1.294
 3206TIP3    H1 9563   1.234   5.169   1.241
 3206TIP3    H2 9564   1.154   5.175   1.369
 3207TIP3   OH2 9565   4.763   7.500   0.805
 3207TIP3    H1 9566   4.806   7.461   0.728
 3207TIP3    H2 9567   4.736   7.587   0.776
 3208TIP3   OH2 9568   2.892   2.371   4.089
 3208TIP3    H1 9569   2.917   2.282   4.066
 3208TIP3    H2 9570   2.965   2.425   4.059
 3209TIP3   OH2 9571   0.389   4.809   3.615
 3209TIP3    H1 9572   0.380   4.718   3.586
 3209TIP3    H2 9573   0.412   4.802   3.707
 3210TIP3   OH2 9574   2.859   6.085   5.416
 3210TIP3    H1 9575   2.817   6.091   5.331
 3210TIP3    H2 9576   2.790   6.053   5.475
 3211TIP3   OH2 9577   1.074   0.321   4.034
 3211TIP3    H1 9578   1.166   0.330   4.055
 3211TIP3    H2 9579   1.039   0.264   4.102
 3212TIP3   OH2 9580   3.660   0.479   3.563
 3212TIP3    H1 9581   3.681   0.439   3.479
 3212TIP3    H2 9582   3.617   0.562   3.541
 3213TIP3   OH2 9583   1.269   4.384   6.054
 3213TIP3    H1 9584   1.327   4.427   6.118
 3213TIP3    H2 9585   1.287   4.430   5.972
 3214TIP3   OH2 9586   4.743   3.581   4.194
 3214TIP3    H1 9587   4.764   3.656   4.249
 3214TIP3    H2 9588   4.773   3.505   4.244
 3215TIP3   OH2 9589   5.053   6.877   0.493
 3215TIP3    H1 9590   4.992   6.813   0.529
 3215TIP3    H2 9591   5.035   6.957   0.544
 3216TIP3   OH2 9592   4.087   4.234   4.344
 3216TIP3    H1 9593   4.129   4.319   4.329
 3216TIP3    H2 9594   4.084   4.225   4.439
 3217TIP3   OH2 9595   4.959   4.970   0.980
 3217TIP3    H1 9596   4.872   4.932   0.987
 3217TIP3    H2 9597   4.966   5.026   1.058
 3218TIP3   OH2 9598   7.752   0.719   6.000
 3218TIP3    H1 9599   7.809   0.699   6.074
 3218TIP3    H2 9600   7.665   0.725   6.038
 3219TIP3   OH2 9601   4.374   7.336   2.137
 3219TIP3    H1 9602   4.330   7.415   2.167
 3219TIP3    H2 9603   4.367   7.275   2.211
 3220TIP3   OH2 9604   5.032   7.043   5.517
 3220TIP3    H1 9605   5.071   6.971   5.565
 3220TIP3    H2 9606   5.035   7.117   5.577
 3221TIP3   OH2 9607   1.648   1.187   4.286
 3221TIP3    H1 9608   1.669   1.094   4.273
 3221TIP3    H2 9609   1.595   1.188   4.365
 3222TIP3   OH2 9610   0.353   5.678   2.989
 3222TIP3    H1 9611   0.384   5.713   2.905
 3222TIP3    H2 9612   0.430   5.635   3.027
 3223TIP3   OH2 9613   1.117   1.290   6.486
 3223TIP3    H1 9614   1.162   1.372   6.506
 3223TIP3    H2 9615   1.175   1.222   6.520
 3224TIP3   OH2 9616   2.161   1.949   3.915
 3224TIP3    H1 9617   2.126   1.893   3.984
 3224TIP3    H2 9618   2.096   2.018   3.904
 3225TIP3   OH2 9619   5.564   3.439   3.891
 3225TIP3    H1 9620   5.486   3.384   3.890
 3225TIP3    H2 9621   5.534   3.524   3.859
 3226TIP3   OH2 9622   2.162   5.050   5.320
 3226TIP3    H1 9623   2.228   4.980   5.324
 3226TIP3    H2 9624   2.157   5.072   5.227
 3227TIP3   OH2 9625   7.883   2.008   1.983
 3227TIP3    H1 9626   7.808   2.058   1.951
 3227TIP3    H2 9627   7.959   2.062   1.960
 3228TIP3   OH2 9628   7.976   4.825   1.512
 3228TIP3    H1 9629   8.019   4.743   1.486
 3228TIP3    H2 9630   8.008   4.842   1.600
 3229TIP3   OH2 9631   7.892   0.750   6.257
 3229TIP3    H1 9632   7.884   0.824   6.197
 3229TIP3    H2 9633   7.818   0.760   6.317
 3230TIP3   OH2 9634   7.164   1.099   3.420
 3230TIP3    H1 9635   7.084   1.093   3.368
 3230TIP3    H2 9636   7.135   1.083   3.510
 3231TIP3   OH2 9637   7.843   2.288   0.462
 3231TIP3    H1 9638   7.754   2.307   0.492
 3231TIP3    H2 9639   7.885   2.373   0.456
 3232TIP3   OH2 9640   1.950   6.596   0.907
 3232TIP3    H1 9641   1.933   6.519   0.961
 3232TIP3    H2 9642   1.951   6.669   0.968
 3233TIP3   OH2 9643   2.030   7.589   5.074
 3233TIP3    H1 9644   2.047   7.519   5.011
 3233TIP3    H2 9645   2.087   7.660   5.045
 3234TIP3   OH2 9646   7.721   3.489   1.744
 3234TIP3    H1 9647   7.786   3.446   1.688
 3234TIP3    H2 9648   7.645   3.502   1.687
 3235TIP3   OH2 9649   2.766   2.709   4.327
 3235TIP3    H1 9650   2.759   2.750   4.413
 3235TIP3    H2 9651   2.683   2.728   4.283
 3236TIP3   OH2 9652   0.868   1.313   2.427
 3236TIP3    H1 9653   0.941   1.357   2.384
 3236TIP3    H2 9654   0.837   1.250   2.363
 3237TIP3   OH2 9655   8.223   5.456   2.501
 3237TIP3    H1 9656   8.195   5.455   2.592
 3237TIP3    H2 9657   8.166   5.520   2.459
 3238TIP3   OH2 9658   5.552   6.872   3.733
 3238TIP3    H1 9659   5.505   6.895   3.653
 3238TIP3    H2 9660   5.622   6.937   3.739
 3239TIP3   OH2 9661   7.813   5.429   1.168
 3239TIP3    H1 9662   7.895   5.457   1.129
 3239TIP3    H2 9663   7.839   5.371   1.240
 3240TIP3   OH2 9664   4.300   5.222   4.674
 3240TIP3    H1 9665   4.318   5.252   4.585
 3240TIP3    H2 9666   4.238   5.286   4.709
 3241TIP3   OH2 9667   1.799   2.822   1.317
 3241TIP3    H1 9668   1.762   2.751   1.369
 3241TIP3    H2 9669   1.782   2.901   1.369
 3242TIP3   OH2 9670   3.534   2.427   2.227
 3242TIP3    H1 9671   3.461   2.466   2.274
 3242TIP3    H2 9672   3.497   2.349   2.186
 3243TIP3   OH2 9673   3.267   6.287   5.005
 3243TIP3    H1 9674   3.203   6.273   5.075
 3243TIP3    H2 9675   3.322   6.359   5.037
 3244TIP3   OH2 9676   3.169   2.118   1.605
 3244TIP3    H1 9677   3.110   2.132   1.530
 3244TIP3    H2 9678   3.199   2.028   1.594
 3245TIP3   OH2 9679   1.301   5.175   4.502
 3245TIP3    H1 9680   1.248   5.102   4.472
 3245TIP3    H2 9681   1.363   5.191   4.431
 3246TIP3   OH2 9682   8.141   1.342   3.478
 3246TIP3    H1 9683   8.232   1.365   3.496
 3246TIP3    H2 9684   8.098   1.344   3.564
 3247TIP3   OH2 9685   5.829   1.474   2.550
 3247TIP3    H1 9686   5.785   1.526   2.618
 3247TIP3    H2 9687   5.877   1.539   2.499
 3248TIP3   OH2 9688   0.386   6.734   2.765
 3248TIP3    H1 9689   0.355   6.668   2.827
 3248TIP3    H2 9690   0.319   6.802   2.766
 3249TIP3   OH2 9691   7.324   1.144   3.209
 3249TIP3    H1 9692   7.336   1.235   3.181
 3249TIP3    H2 9693   7.259   1.149   3.280
 3250TIP3   OH2 9694   3.206   7.332   3.874
 3250TIP3    H1 9695   3.148   7.386   3.928
 3250TIP3    H2 9696   3.199   7.245   3.913
 3251TIP3   OH2 9697   6.149   6.362   0.596
 3251TIP3    H1 9698   6.111   6.448   0.612
 3251TIP3    H2 9699   6.206   6.375   0.519
 3252TIP3   OH2 9700   4.421   2.233   1.385
 3252TIP3    H1 9701   4.503   2.239   1.336
 3252TIP3    H2 9702   4.437   2.280   1.467
 3253TIP3   OH2 9703   4.884   4.325   4.555
 3253TIP3    H1 9704   4.857   4.311   4.646
 3253TIP3    H2 9705   4.868   4.419   4.539
 3254TIP3   OH2 9706   4.432   3.657   3.442
 3254TIP3    H1 9707   4.366   3.595   3.411
 3254TIP3    H2 9708   4.478   3.685   3.362
 3255TIP3   OH2 9709   7.734  -0.006   4.294
 3255TIP3    H1 9710   7.646   0.029   4.276
 3255TIP3    H2 9711   7.787   0.026   4.221
 3256TIP3   OH2 9712   0.469   0.159   2.157
 3256TIP3    H1 9713   0.509   0.231   2.205
 3256TIP3    H2 9714   0.430   0.104   2.225
 3257TIP3   OH2 9715   1.410   6.113   5.305
 3257TIP3    H1 9716   1.377   6.121   5.215
 3257TIP3    H2 9717   1.384   6.026   5.333
 3258TIP3   OH2 9718   4.411   4.064   5.580
 3258TIP3    H1 9719   4.424   4.120   5.656
 3258TIP3    H2 9720   4.347   3.999   5.609
 3259TIP3   OH2 9721   7.265   1.273   4.311
 3259TIP3    H1 9722   7.235   1.340   4.373
 3259TIP3    H2 9723   7.360   1.283   4.309
 3260TIP3   OH2 9724   2.498   1.351   1.767
 3260TIP3    H1 9725   2.430   1.286   1.747
 3260TIP3    H2 9726   2.508   1.347   1.862
 3261TIP3   OH2 9727   5.462   4.153   0.520
 3261TIP3    H1 9728   5.371   4.123   0.521
 3261TIP3    H2 9729   5.512   4.080   0.558
 3262TIP3   OH2 9730   2.252   3.316   6.062
 3262TIP3    H1 9731   2.297   3.399   6.078
 3262TIP3    H2 9732   2.322   3.255   6.038
 3263TIP3   OH2 9733   6.379   5.718   1.721
 3263TIP3    H1 9734   6.290   5.751   1.710
 3263TIP3    H2 9735   6.395   5.722   1.815
 3264TIP3   OH2 9736   5.026   3.192   2.076
 3264TIP3    H1 9737   5.011   3.174   1.983
 3264TIP3    H2 9738   4.939   3.204   2.113
 3265TIP3   OH2 9739   7.273   2.701   4.466
 3265TIP3    H1 9740   7.355   2.732   4.506
 3265TIP3    H2 9741   7.204   2.747   4.514
 3266TIP3   OH2 9742   0.567   4.372   2.645
 3266TIP3    H1 9743   0.529   4.459   2.631
 3266TIP3    H2 9744   0.601   4.374   2.734
 3267TIP3   OH2 9745   7.296   7.455   5.357
 3267TIP3    H1 9746   7.225   7.515   5.378
 3267TIP3    H2 9747   7.260   7.368   5.375
 3268TIP3   OH2 9748   5.624   2.941   5.582
 3268TIP3    H1 9749   5.662   2.855   5.598
 3268TIP3    H2 9750   5.549   2.946   5.642
 3269TIP3   OH2 9751   4.860   4.765   0.763
 3269TIP3    H1 9752   4.877   4.850   0.722
 3269TIP3    H2 9753   4.946   4.728   0.781
 3270TIP3   OH2 9754   3.158   4.957   4.098
 3270TIP3    H1 9755   3.235   4.999   4.138
 3270TIP3    H2 9756   3.105   5.030   4.067
 3271TIP3   OH2 9757   7.432   4.718   3.534
 3271TIP3    H1 9758   7.431   4.785   3.465
 3271TIP3    H2 9759   7.402   4.638   3.491
 3272TIP3   OH2 9760   2.339   2.390   5.979
 3272TIP3    H1 9761   2.347   2.303   5.941
 3272TIP3    H2 9762   2.386   2.385   6.062
 3273TIP3   OH2 9763   7.549   7.436   1.109
 3273TIP3    H1 9764   7.575   7.523   1.140
 3273TIP3    H2 9765   7.600   7.424   1.029
 3274TIP3   OH2 9766   1.679   6.102   0.679
 3274TIP3    H1 9767   1.613   6.157   0.722
 3274TIP3    H2 9768   1.760   6.153   0.682
 3275TIP3   OH2 9769   7.843   0.581   6.601
 3275TIP3    H1 9770   7.796   0.555   6.680
 3275TIP3    H2 9771   7.878   0.499   6.566
 3276TIP3   OH2 9772   3.820   5.092   5.584
 3276TIP3    H1 9773   3.810   5.179   5.545
 3276TIP3    H2 9774   3.783   5.032   5.519
 3277TIP3   OH2 9775   5.920   3.811   2.673
 3277TIP3    H1 9776   5.956   3.897   2.690
 3277TIP3    H2 9777   5.911   3.807   2.578
 3278TIP3   OH2 9778   2.571   6.770   4.631
 3278TIP3    H1 9779   2.593   6.863   4.628
 3278TIP3    H2 9780   2.604   6.740   4.716
 3279TIP3   OH2 9781   4.017   3.348   3.170
 3279TIP3    H1 9782   4.043   3.334   3.261
 3279TIP3    H2 9783   4.050   3.436   3.148
 3280TIP3   OH2 9784   1.786   6.270   3.422
 3280TIP3    H1 9785   1.809   6.183   3.389
 3280TIP3    H2 9786   1.831   6.277   3.506
 3281TIP3   OH2 9787   4.610   3.453   3.935
 3281TIP3    H1 9788   4.663   3.510   3.990
 3281TIP3    H2 9789   4.656   3.369   3.936
 3282TIP3   OH2 9790   2.294   6.801   1.636
 3282TIP3    H1 9791   2.379   6.821   1.675
 3282TIP3    H2 9792   2.285   6.865   1.565
 3283TIP3   OH2 9793   2.659   3.987   4.854
 3283TIP3    H1 9794   2.688   3.973   4.764
 3283TIP3    H2 9795   2.586   4.048   4.847
 3284TIP3   OH2 9796   8.206   1.275   1.879
 3284TIP3    H1 9797   8.221   1.189   1.919
 3284TIP3    H2 9798   8.196   1.335   1.952
 3285TIP3   OH2 9799   2.707   6.470   1.585
 3285TIP3    H1 9800   2.674   6.531   1.651
 3285TIP3    H2 9801   2.702   6.519   1.503
 3286TIP3   OH2 9802   0.364   2.103   0.332
 3286TIP3    H1 9803   0.455   2.099   0.363
 3286TIP3    H2 9804   0.330   2.185   0.367
 3287TIP3   OH2 9805   3.208   2.953   2.924
 3287TIP3    H1 9806   3.184   3.032   2.973
 3287TIP3    H2 9807   3.145   2.951   2.851
 3288TIP3   OH2 9808   1.593   1.131   0.364
 3288TIP3    H1 9809   1.553   1.157   0.282
 3288TIP3    H2 9810   1.520   1.098   0.417
 3289TIP3   OH2 9811   5.738   2.413   5.053
 3289TIP3    H1 9812   5.690   2.481   5.099
 3289TIP3    H2 9813   5.682   2.335   5.061
 3290TIP3   OH2 9814   1.237   5.033   3.066
 3290TIP3    H1 9815   1.220   5.066   3.154
 3290TIP3    H2 9816   1.298   5.096   3.028
 3291TIP3   OH2 9817   0.390   2.983   5.388
 3291TIP3    H1 9818   0.444   3.057   5.415
 3291TIP3    H2 9819   0.340   3.016   5.314
 3292TIP3   OH2 9820   5.072   3.024   1.112
 3292TIP3    H1 9821   5.085   3.118   1.104
 3292TIP3    H2 9822   4.990   3.008   1.064
 3293TIP3   OH2 9823   5.902   6.566   1.320
 3293TIP3    H1 9824   5.961   6.620   1.268
 3293TIP3    H2 9825   5.948   6.483   1.331
 3294TIP3   OH2 9826   6.374   0.679   4.202
 3294TIP3    H1 9827   6.282   0.695   4.220
 3294TIP3    H2 9828   6.389   0.718   4.116
 3295TIP3   OH2 9829   5.630   0.904   3.095
 3295TIP3    H1 9830   5.682   0.971   3.138
 3295TIP3    H2 9831   5.651   0.823   3.141
 3296TIP3   OH2 9832   5.037   7.393   6.092
 3296TIP3    H1 9833   4.987   7.320   6.129
 3296TIP3    H2 9834   5.128   7.366   6.102
 3297TIP3   OH2 9835   3.050   6.194   0.857
 3297TIP3    H1 9836   2.974   6.149   0.819
 3297TIP3    H2 9837   3.105   6.216   0.782
 3298TIP3   OH2 9838   4.388   0.569   5.200
 3298TIP3    H1 9839   4.345   0.513   5.265
 3298TIP3    H2 9840   4.395   0.514   5.122
 3299TIP3   OH2 9841   6.182   3.413   2.766
 3299TIP3    H1 9842   6.209   3.339   2.819
 3299TIP3    H2 9843   6.261   3.439   2.719
 3300TIP3   OH2 9844   0.076   1.840   1.407
 3300TIP3    H1 9845   0.136   1.897   1.360
 3300TIP3    H2 9846   0.128   1.762   1.428
 3301TIP3   OH2 9847   0.686   3.519   2.444
 3301TIP3    H1 9848   0.684   3.611   2.420
 3301TIP3    H2 9849   0.596   3.498   2.467
 3302TIP3   OH2 9850   2.353   7.403   0.721
 3302TIP3    H1 9851   2.366   7.320   0.768
 3302TIP3    H2 9852   2.427   7.408   0.660
 3303TIP3   OH2 9853   3.607   4.612   6.241
 3303TIP3    H1 9854   3.546   4.538   6.234
 3303TIP3    H2 9855   3.690   4.572   6.266
 3304TIP3   OH2 9856   6.525   1.299   4.046
 3304TIP3    H1 9857   6.522   1.215   4.000
 3304TIP3    H2 9858   6.439   1.308   4.085
 3305TIP3   OH2 9859   4.330   4.937   4.641
 3305TIP3    H1 9860   4.248   4.919   4.596
 3305TIP3    H2 9861   4.336   5.033   4.644
 3306TIP3   OH2 9862   7.210   1.920   2.441
 3306TIP3    H1 9863   7.245   1.890   2.357
 3306TIP3    H2 9864   7.243   2.009   2.450
 3307TIP3   OH2 9865   7.390   7.827   6.772
 3307TIP3    H1 9866   7.483   7.802   6.766
 3307TIP3    H2 9867   7.342   7.747   6.752
 3308TIP3   OH2 9868   8.264   2.017   3.370
 3308TIP3    H1 9869   8.190   1.998   3.313
 3308TIP3    H2 9870   8.333   1.958   3.340
 3309TIP3   OH2 9871   4.148   3.862   2.793
 3309TIP3    H1 9872   4.112   3.948   2.772
 3309TIP3    H2 9873   4.188   3.833   2.711
 3310TIP3   OH2 9874   1.816   4.588   0.400
 3310TIP3    H1 9875   1.758   4.661   0.376
 3310TIP3    H2 9876   1.787   4.516   0.345
 3311TIP3   OH2 9877   1.450   3.437   4.532
 3311TIP3    H1 9878   1.441   3.429   4.627
 3311TIP3    H2 9879   1.381   3.381   4.496
 3312TIP3   OH2 9880   0.795   4.041   0.000
 3312TIP3    H1 9881   0.824   4.101  -0.069
 3312TIP3    H2 9882   0.872   3.987   0.018
 3313TIP3   OH2 9883   7.431   7.216   0.399
 3313TIP3    H1 9884   7.487   7.203   0.323
 3313TIP3    H2 9885   7.429   7.130   0.442
 3314TIP3   OH2 9886   0.496   0.832   0.832
 3314TIP3    H1 9887   0.448   0.881   0.899
 3314TIP3    H2 9888   0.436   0.761   0.808
 3315TIP3   OH2 9889   1.818   7.603   3.649
 3315TIP3    H1 9890   1.816   7.558   3.565
 3315TIP3    H2 9891   1.881   7.674   3.637
 3316TIP3   OH2 9892   0.621   2.328   3.023
 3316TIP3    H1 9893   0.570   2.338   2.942
 3316TIP3    H2 9894   0.643   2.235   3.026
 3317TIP3   OH2 9895   2.376   2.957   5.940
 3317TIP3    H1 9896   2.449   3.016   5.958
 3317TIP3    H2 9897   2.302   3.015   5.924
 3318TIP3   OH2 9898   4.701   7.059   2.832
 3318TIP3    H1 9899   4.713   6.966   2.815
 3318TIP3    H2 9900   4.682   7.097   2.746
 3319TIP3   OH2 9901   7.956   0.205   4.890
 3319TIP3    H1 9902   7.907   0.214   4.972
 3319TIP3    H2 9903   8.041   0.245   4.910
 3320TIP3   OH2 9904   0.706   0.906   6.363
 3320TIP3    H1 9905   0.649   0.843   6.318
 3320TIP3    H2 9906   0.761   0.943   6.294
 3321TIP3   OH2 9907   1.675   3.809   6.462
 3321TIP3    H1 9908   1.687   3.880   6.399
 3321TIP3    H2 9909   1.644   3.735   6.410
 3322TIP3   OH2 9910   4.452   1.562   1.994
 3322TIP3    H1 9911   4.423   1.481   1.952
 3322TIP3    H2 9912   4.469   1.622   1.921
 3323TIP3   OH2 9913   6.515   2.566   3.745
 3323TIP3    H1 9914   6.503   2.646   3.694
 3323TIP3    H2 9915   6.482   2.588   3.832
 3324TIP3   OH2 9916   2.370   5.317   1.908
 3324TIP3    H1 9917   2.415   5.234   1.922
 3324TIP3    H2 9918   2.431   5.383   1.940
 3325TIP3   OH2 9919   2.884   5.045   0.372
 3325TIP3    H1 9920   2.823   4.982   0.332
 3325TIP3    H2 9921   2.886   5.021   0.464
 3326TIP3   OH2 9922   2.456   2.282   1.453
 3326TIP3    H1 9923   2.455   2.232   1.371
 3326TIP3    H2 9924   2.535   2.336   1.446
 3327TIP3   OH2 9925   1.151   4.181   5.646
 3327TIP3    H1 9926   1.135   4.089   5.663
 3327TIP3    H2 9927   1.240   4.196   5.677
 3328TIP3   OH2 9928   2.815   4.469   1.618
 3328TIP3    H1 9929   2.776   4.492   1.533
 3328TIP3    H2 9930   2.842   4.378   1.608
 3329TIP3   OH2 9931   5.436   5.399   6.693
 3329TIP3    H1 9932   5.342   5.394   6.712
 3329TIP3    H2 9933   5.477   5.400   6.780
 3330TIP3   OH2 9934   0.111   3.472   4.895
 3330TIP3    H1 9935   0.167   3.402   4.862
 3330TIP3    H2 9936   0.095   3.449   4.987
 3331TIP3   OH2 9937   4.376   5.395   2.785
 3331TIP3    H1 9938   4.360   5.477   2.832
 3331TIP3    H2 9939   4.441   5.349   2.838
 3332TIP3   OH2 9940   5.541   7.504   3.637
 3332TIP3    H1 9941   5.580   7.588   3.613
 3332TIP3    H2 9942   5.476   7.487   3.568
 3333TIP3   OH2 9943   1.420   3.976   2.466
 3333TIP3    H1 9944   1.395   3.892   2.427
 3333TIP3    H2 9945   1.387   4.042   2.405
 3334TIP3   OH2 9946   5.921   6.894   4.594
 3334TIP3    H1 9947   5.960   6.980   4.605
 3334TIP3    H2 9948   5.910   6.861   4.683
 3335TIP3   OH2 9949   1.973   7.105   0.120
 3335TIP3    H1 9950   1.881   7.089   0.101
 3335TIP3    H2 9951   2.015   7.020   0.107
 3336TIP3   OH2 9952   8.158   0.797   4.967
 3336TIP3    H1 9953   8.228   0.859   4.948
 3336TIP3    H2 9954   8.118   0.830   5.048
 3337TIP3   OH2 9955   6.917   2.631   6.229
 3337TIP3    H1 9956   6.862   2.615   6.306
 3337TIP3    H2 9957   6.994   2.575   6.243
 3338TIP3   OH2 9958   7.288   5.400   5.733
 3338TIP3    H1 9959   7.196   5.418   5.713
 3338TIP3    H2 9960   7.295   5.415   5.827
 3339TIP3   OH2 9961   2.369   7.735   6.117
 3339TIP3    H1 9962   2.370   7.727   6.021
 3339TIP3    H2 9963   2.350   7.646   6.147
 3340TIP3   OH2 9964   5.580   3.093   1.480
 3340TIP3    H1 9965   5.654   3.034   1.474
 3340TIP3    H2 9966   5.554   3.091   1.572
 3341TIP3   OH2 9967   3.028   4.042   5.059
 3341TIP3    H1 9968   3.047   4.106   4.990
 3341TIP3    H2 9969   3.013   3.960   5.012
 3342TIP3   OH2 9970   3.831   4.625   5.836
 3342TIP3    H1 9971   3.807   4.625   5.743
 3342TIP3    H2 9972   3.796   4.708   5.869
 3343TIP3   OH2 9973   2.910   2.828   2.596
 3343TIP3    H1 9974   2.825   2.812   2.638
 3343TIP3    H2 9975   2.962   2.869   2.665
 3344TIP3   OH2 9976   6.676   7.270   2.378
 3344TIP3    H1 9977   6.588   7.240   2.403
 3344TIP3    H2 9978   6.701   7.212   2.306
 3345TIP3   OH2 9979   2.056   7.102   5.589
 3345TIP3    H1 9980   2.075   7.186   5.548
 3345TIP3    H2 9981   2.140   7.075   5.627
 3346TIP3   OH2 9982   3.290   3.646   2.449
 3346TIP3    H1 9983   3.241   3.598   2.516
 3346TIP3    H2 9984   3.236   3.723   2.430
 3347TIP3   OH2 9985   7.690   6.473   6.737
 3347TIP3    H1 9986   7.655   6.560   6.720
 3347TIP3    H2 9987   7.780   6.488   6.765
 3348TIP3   OH2 9988   3.837   0.902   3.337
 3348TIP3    H1 9989   3.868   0.985   3.300
 3348TIP3    H2 9990   3.741   0.910   3.335
 3349TIP3   OH2 9991   1.771   5.677   5.306
 3349TIP3    H1 9992   1.757   5.605   5.368
 3349TIP3    H2 9993   1.845   5.648   5.252
 3350TIP3   OH2 9994   3.594   7.431   0.916
 3350TIP3    H1 9995   3.689   7.415   0.917
 3350TIP3    H2 9996   3.571   7.441   1.008
 3351TIP3   OH2 9997   2.701   4.836   2.894
 3351TIP3    H1 9998   2.716   4.783   2.972
 3351TIP3    H2 9999   2.787   4.847   2.854
 3352TIP3   OH210000   6.831   3.273   2.286
 3352TIP3    H110001   6.833   3.258   2.192
 3352TIP3    H210002   6.887   3.349   2.300
 3353TIP3   OH210003   6.717   7.621   5.429
 3353TIP3    H110004   6.730   7.675   5.507
 3353TIP3    H210005   6.721   7.531   5.461
 3354TIP3   OH210006   2.603   7.037   1.005
 3354TIP3    H110007   2.549   6.962   1.028
 3354TIP3    H210008   2.567   7.109   1.058
 3355TIP3   OH210009   0.776   6.043   4.431
 3355TIP3    H110010   0.847   6.019   4.371
 3355TIP3    H210011   0.699   5.997   4.397
 3356TIP3   OH210012   2.743   5.260   0.803
 3356TIP3    H110013   2.735   5.290   0.712
 3356TIP3    H210014   2.837   5.250   0.817
 3357TIP3   OH210015   3.903   3.341   1.023
 3357TIP3    H110016   3.834   3.351   0.956
 3357TIP3    H210017   3.860   3.364   1.105
 3358TIP3   OH210018   0.666   7.197   1.863
 3358TIP3    H110019   0.613   7.142   1.920
 3358TIP3    H210020   0.687   7.141   1.788
 3359TIP3   OH210021   7.656   2.801   1.476
 3359TIP3    H110022   7.716   2.730   1.498
 3359TIP3    H210023   7.569   2.766   1.497
 3360TIP3   OH210024   2.773   1.769   6.465
 3360TIP3    H110025   2.690   1.745   6.505
 3360TIP3    H210026   2.750   1.835   6.399
 3361TIP3   OH210027   6.101   7.686   2.448
 3361TIP3    H110028   6.109   7.599   2.410
 3361TIP3    H210029   6.177   7.734   2.415
 3362TIP3   OH210030   7.536   2.804   4.269
 3362TIP3    H110031   7.521   2.820   4.176
 3362TIP3    H210032   7.519   2.711   4.281
 3363TIP3   OH210033   1.810   3.233   2.346
 3363TIP3    H110034   1.772   3.301   2.403
 3363TIP3    H210035   1.789   3.151   2.391
 3364TIP3   OH210036   7.449   7.358   6.033
 3364TIP3    H110037   7.431   7.414   6.109
 3364TIP3    H210038   7.537   7.384   6.005
 3365TIP3   OH210039   3.127   5.447   2.605
 3365TIP3    H110040   3.179   5.403   2.538
 3365TIP3    H210041   3.103   5.531   2.566
 3366TIP3   OH210042   1.885   5.456   1.151
 3366TIP3    H110043   1.878   5.410   1.235
 3366TIP3    H210044   1.953   5.408   1.104
 3367TIP3   OH210045   7.598   5.075   1.265
 3367TIP3    H110046   7.641   5.023   1.197
 3367TIP3    H210047   7.657   5.148   1.280
 3368TIP3   OH210048   6.008   1.002   2.907
 3368TIP3    H110049   6.100   1.028   2.900
 3368TIP3    H210050   6.001   0.964   2.995
 3369TIP3   OH210051   2.484   0.115   2.326
 3369TIP3    H110052   2.567   0.072   2.311
 3369TIP3    H210053   2.428   0.047   2.365
 3370TIP3   OH210054   4.210   6.930   5.858
 3370TIP3    H110055   4.257   7.005   5.895
 3370TIP3    H210056   4.256   6.910   5.777
 3371TIP3   OH210057   4.091   1.687   3.531
 3371TIP3    H110058   4.133   1.772   3.519
 3371TIP3    H210059   4.129   1.653   3.612
 3372TIP3   OH210060   3.305   4.263   4.833
 3372TIP3    H110061   3.290   4.320   4.757
 3372TIP3    H210062   3.227   4.208   4.838
 3373TIP3   OH210063   4.216   5.686   1.203
 3373TIP3    H110064   4.158   5.726   1.138
 3373TIP3    H210065   4.242   5.758   1.261
 3374TIP3   OH210066   7.508   7.340   4.740
 3374TIP3    H110067   7.587   7.302   4.702
 3374TIP3    H210068   7.509   7.432   4.711
 3375TIP3   OH210069   7.583   2.525   4.412
 3375TIP3    H110070   7.675   2.512   4.392
 3375TIP3    H210071   7.536   2.482   4.340
 3376TIP3   OH210072   3.494   2.023   0.422
 3376TIP3    H110073   3.513   1.996   0.512
 3376TIP3    H210074   3.420   1.968   0.396
 3377TIP3   OH210075   1.222   7.274   2.211
 3377TIP3    H110076   1.193   7.183   2.208
 3377TIP3    H210077   1.318   7.269   2.213
 3378TIP3   OH210078   1.581   2.969   5.954
 3378TIP3    H110079   1.632   2.895   5.922
 3378TIP3    H210080   1.608   2.980   6.045
 3379TIP3   OH210081   4.567   5.437   0.174
 3379TIP3    H110082   4.662   5.450   0.175
 3379TIP3    H210083   4.554   5.350   0.210
 3380TIP3   OH210084   2.699   5.082   6.218
 3380TIP3    H110085   2.744   5.012   6.266
 3380TIP3    H210086   2.610   5.080   6.252
 3381TIP3   OH210087   2.590   4.627   4.011
 3381TIP3    H110088   2.544   4.659   4.089
 3381TIP3    H210089   2.683   4.644   4.029
 3382TIP3   OH210090   4.728   6.966   4.567
 3382TIP3    H110091   4.752   7.020   4.491
 3382TIP3    H210092   4.797   6.983   4.631
 3383TIP3   OH210093   6.894   4.694   1.882
 3383TIP3    H110094   6.930   4.775   1.917
 3383TIP3    H210095   6.875   4.714   1.790
 3384TIP3   OH210096   5.376   0.176   2.561
 3384TIP3    H110097   5.462   0.134   2.554
 3384TIP3    H210098   5.332   0.153   2.480
 3385TIP3   OH210099   7.875   0.167   5.854
 3385TIP3    H110100   7.824   0.246   5.835
 3385TIP3    H210101   7.880   0.122   5.769
 3386TIP3   OH210102   0.510   7.626   6.527
 3386TIP3    H110103   0.555   7.687   6.469
 3386TIP3    H210104   0.538   7.651   6.615
 3387TIP3   OH210105   6.151   5.125   1.737
 3387TIP3    H110106   6.238   5.124   1.698
 3387TIP3    H210107   6.096   5.171   1.674
 3388TIP3   OH210108   5.611   2.515   5.519
 3388TIP3    H110109   5.550   2.540   5.450
 3388TIP3    H210110   5.649   2.598   5.548
 3389TIP3   OH210111   1.769   3.232   4.569
 3389TIP3    H110112   1.798   3.321   4.551
 3389TIP3    H210113   1.694   3.219   4.510
 3390TIP3   OH210114   0.781   6.347   3.619
 3390TIP3    H110115   0.860   6.303   3.651
 3390TIP3    H210116   0.724   6.276   3.589
 3391TIP3   OH210117   3.205   3.290   6.616
 3391TIP3    H110118   3.227   3.355   6.683
 3391TIP3    H210119   3.238   3.327   6.534
 3392TIP3   OH210120   4.601   0.738   3.761
 3392TIP3    H110121   4.528   0.788   3.798
 3392TIP3    H210122   4.561   0.685   3.692
 3393TIP3   OH210123   4.023   1.618   3.864
 3393TIP3    H110124   3.968   1.577   3.930
 3393TIP3    H210125   4.032   1.709   3.893
 3394TIP3   OH210126   7.753   0.589   2.450
 3394TIP3    H110127   7.691   0.640   2.398
 3394TIP3    H210128   7.724   0.499   2.440
 3395TIP3   OH210129   7.107   4.259   5.623
 3395TIP3    H110130   7.130   4.300   5.539
 3395TIP3    H210131   7.133   4.324   5.689
 3396TIP3   OH210132   3.542   2.759   0.863
 3396TIP3    H110133   3.587   2.715   0.935
 3396TIP3    H210134   3.464   2.796   0.903
 3397TIP3   OH210135   7.807   6.141   0.322
 3397TIP3    H110136   7.736   6.116   0.380
 3397TIP3    H210137   7.887   6.113   0.368
 3398TIP3   OH210138   6.193   0.866   4.468
 3398TIP3    H110139   6.237   0.796   4.515
 3398TIP3    H210140   6.100   0.844   4.474
 3399TIP3   OH210141   4.998   5.423   4.722
 3399TIP3    H110142   4.943   5.345   4.734
 3399TIP3    H210143   5.062   5.419   4.793
 3400TIP3   OH210144   6.108   6.047   3.422
 3400TIP3    H110145   6.023   6.003   3.418
 3400TIP3    H210146   6.171   5.975   3.434
 3401TIP3   OH210147   6.642   7.457   4.122
 3401TIP3    H110148   6.636   7.422   4.033
 3401TIP3    H210149   6.717   7.412   4.161
 3402TIP3   OH210150   3.711   0.850   4.089
 3402TIP3    H110151   3.679   0.845   3.999
 3402TIP3    H210152   3.744   0.762   4.108
 3403TIP3   OH210153   0.907   3.123   6.494
 3403TIP3    H110154   0.969   3.056   6.464
 3403TIP3    H210155   0.855   3.145   6.417
 3404TIP3   OH210156   7.669   0.740   2.063
 3404TIP3    H110157   7.585   0.763   2.103
 3404TIP3    H210158   7.687   0.811   2.003
 3405TIP3   OH210159   4.566   4.230   1.932
 3405TIP3    H110160   4.497   4.204   1.871
 3405TIP3    H210161   4.647   4.206   1.888
 3406TIP3   OH210162   3.310   2.863   1.027
 3406TIP3    H110163   3.244   2.794   1.025
 3406TIP3    H210164   3.290   2.917   0.950
 3407TIP3   OH210165   3.649   5.792   6.226
 3407TIP3    H110166   3.665   5.802   6.132
 3407TIP3    H210167   3.576   5.850   6.245
 3408TIP3   OH210168   4.991   5.079   1.544
 3408TIP3    H110169   5.076   5.101   1.506
 3408TIP3    H210170   4.965   4.998   1.501
 3409TIP3   OH210171   7.658   4.328   3.010
 3409TIP3    H110172   7.564   4.346   3.010
 3409TIP3    H210173   7.674   4.286   3.095
 3410TIP3   OH210174   2.440   2.956   3.535
 3410TIP3    H110175   2.401   3.042   3.521
 3410TIP3    H210176   2.377   2.910   3.591
 3411TIP3   OH210177   8.186   3.477   0.352
 3411TIP3    H110178   8.154   3.566   0.335
 3411TIP3    H210179   8.107   3.428   0.375
 3412TIP3   OH210180   8.275   2.759   1.827
 3412TIP3    H110181   8.306   2.734   1.914
 3412TIP3    H210182   8.291   2.853   1.821
 3413TIP3   OH210183   1.038   2.473   0.164
 3413TIP3    H110184   1.101   2.511   0.225
 3413TIP3    H210185   1.026   2.539   0.096
 3414TIP3   OH210186   1.933   0.216   3.829
 3414TIP3    H110187   1.875   0.267   3.886
 3414TIP3    H210188   1.943   0.132   3.874
 3415TIP3   OH210189   1.999   4.838   2.065
 3415TIP3    H110190   2.021   4.931   2.066
 3415TIP3    H210191   2.022   4.809   1.976
 3416TIP3   OH210192   0.409   7.713   1.552
 3416TIP3    H110193   0.359   7.681   1.476
 3416TIP3    H210194   0.358   7.683   1.627
 3417TIP3   OH210195   0.822   2.215   6.065
 3417TIP3    H110196   0.837   2.258   5.981
 3417TIP3    H210197   0.874   2.266   6.127
 3418TIP3   OH210198   1.495   1.949   4.769
 3418TIP3    H110199   1.516   1.917   4.681
 3418TIP3    H210200   1.566   2.010   4.790
 3419TIP3   OH210201   3.456   3.272   2.476
 3419TIP3    H110202   3.467   3.297   2.568
 3419TIP3    H210203   3.501   3.188   2.469
 3420TIP3   OH210204   5.120   4.320   0.290
 3420TIP3    H110205   5.154   4.260   0.223
 3420TIP3    H210206   5.079   4.391   0.240
 3421TIP3   OH210207   6.251   1.609   2.736
 3421TIP3    H110208   6.323   1.670   2.719
 3421TIP3    H210209   6.222   1.630   2.824
 3422TIP3   OH210210   7.062   3.329   4.297
 3422TIP3    H110211   7.032   3.386   4.368
 3422TIP3    H210212   6.995   3.337   4.229
 3423TIP3   OH210213   4.032   3.165   4.714
 3423TIP3    H110214   4.058   3.120   4.633
 3423TIP3    H210215   3.940   3.186   4.702
 3424TIP3   OH210216   6.066   5.591   0.636
 3424TIP3    H110217   6.075   5.676   0.678
 3424TIP3    H210218   6.109   5.601   0.551
 3425TIP3   OH210219   0.131   2.285   2.368
 3425TIP3    H110220   0.217   2.242   2.367
 3425TIP3    H210221   0.126   2.330   2.284
 3426TIP3   OH210222   3.340   6.963   3.142
 3426TIP3    H110223   3.396   7.021   3.091
 3426TIP3    H210224   3.401   6.915   3.199
 3427TIP3   OH210225   4.816   0.531   5.490
 3427TIP3    H110226   4.845   0.566   5.406
 3427TIP3    H210227   4.749   0.593   5.519
 3428TIP3   OH210228   2.280   7.359   0.145
 3428TIP3    H110229   2.214   7.420   0.113
 3428TIP3    H210230   2.243   7.323   0.225
 3429TIP3   OH210231   4.196   0.675   3.842
 3429TIP3    H110232   4.274   0.731   3.843
 3429TIP3    H210233   4.230   0.587   3.824
 3430TIP3   OH210234   5.362   4.532   1.689
 3430TIP3    H110235   5.395   4.442   1.696
 3430TIP3    H210236   5.302   4.541   1.763
 3431TIP3   OH210237   5.786   1.690   1.333
 3431TIP3    H110238   5.745   1.773   1.359
 3431TIP3    H210239   5.831   1.660   1.412
 3432TIP3   OH210240   4.149   5.150   5.449
 3432TIP3    H110241   4.239   5.120   5.458
 3432TIP3    H210242   4.097   5.077   5.484
 3433TIP3   OH210243   5.483   6.971   3.087
 3433TIP3    H110244   5.438   7.054   3.102
 3433TIP3    H210245   5.515   6.977   2.997
 3434TIP3   OH210246   7.658   5.009   3.161
 3434TIP3    H110247   7.737   4.964   3.131
 3434TIP3    H210248   7.691   5.084   3.211
 3435TIP3   OH210249   6.534   5.617   5.054
 3435TIP3    H110250   6.452   5.639   5.009
 3435TIP3    H210251   6.592   5.585   4.985
 3436TIP3   OH210252   7.138   6.715   5.338
 3436TIP3    H110253   7.215   6.770   5.327
 3436TIP3    H210254   7.104   6.738   5.425
 3437TIP3   OH210255   3.900   4.857   1.743
 3437TIP3    H110256   3.981   4.860   1.692
 3437TIP3    H210257   3.884   4.948   1.770
 3438TIP3   OH210258   0.979   5.283   4.912
 3438TIP3    H110259   1.006   5.191   4.907
 3438TIP3    H210260   0.884   5.280   4.912
 3439TIP3   OH210261   3.404   7.215   5.006
 3439TIP3    H110262   3.486   7.206   4.958
 3439TIP3    H210263   3.392   7.131   5.050
 3440TIP3   OH210264   8.312   4.808   4.605
 3440TIP3    H110265   8.265   4.787   4.524
 3440TIP3    H210266   8.282   4.896   4.629
 3441TIP3   OH210267   5.324   4.644   2.081
 3441TIP3    H110268   5.406   4.594   2.078
 3441TIP3    H210269   5.321   4.679   2.170
 3442TIP3   OH210270   5.609   4.931   5.487
 3442TIP3    H110271   5.597   4.930   5.392
 3442TIP3    H210272   5.554   4.860   5.519
 3443TIP3   OH210273   4.940   4.366   6.684
 3443TIP3    H110274   4.939   4.432   6.614
 3443TIP3    H210275   4.908   4.414   6.762
 3444TIP3   OH210276   3.890   5.433   0.464
 3444TIP3    H110277   3.962   5.423   0.525
 3444TIP3    H210278   3.931   5.436   0.378
 3445TIP3   OH210279   8.225   6.922   4.062
 3445TIP3    H110280   8.140   6.898   4.025
 3445TIP3    H210281   8.206   6.993   4.123
 3446TIP3   OH210282   0.488   7.182   6.247
 3446TIP3    H110283   0.431   7.257   6.234
 3446TIP3    H210284   0.429   7.108   6.259
 3447TIP3   OH210285   3.578   4.517   1.785
 3447TIP3    H110286   3.593   4.488   1.875
 3447TIP3    H210287   3.533   4.601   1.794
 3448TIP3   OH210288   2.665   0.395   6.109
 3448TIP3    H110289   2.642   0.429   6.023
 3448TIP3    H210290   2.609   0.319   6.120
 3449TIP3   OH210291   8.305   0.619   0.214
 3449TIP3    H110292   8.226   0.565   0.211
 3449TIP3    H210293   8.272   0.709   0.213
 3450TIP3   OH210294   2.814   3.966   3.042
 3450TIP3    H110295   2.748   4.021   3.084
 3450TIP3    H210296   2.788   3.964   2.950
 3451TIP3   OH210297   0.919   7.490   5.049
 3451TIP3    H110298   0.846   7.429   5.044
 3451TIP3    H210299   0.879   7.572   5.078
 3452TIP3   OH210300   6.642   1.406   0.727
 3452TIP3    H110301   6.651   1.321   0.684
 3452TIP3    H210302   6.592   1.387   0.806
 3453TIP3   OH210303   0.240   1.707   6.513
 3453TIP3    H110304   0.235   1.627   6.564
 3453TIP3    H210305   0.190   1.688   6.434
 3454TIP3   OH210306   4.823   2.643   4.513
 3454TIP3    H110307   4.750   2.688   4.554
 3454TIP3    H210308   4.808   2.654   4.419
 3455TIP3   OH210309   5.094   5.926   1.637
 3455TIP3    H110310   5.061   5.870   1.708
 3455TIP3    H210311   5.155   5.871   1.590
 3456TIP3   OH210312   2.412   1.675   1.947
 3456TIP3    H110313   2.477   1.685   1.878
 3456TIP3    H210314   2.392   1.764   1.974
 3457TIP3   OH210315   0.381   7.361   2.444
 3457TIP3    H110316   0.454   7.420   2.462
 3457TIP3    H210317   0.368   7.368   2.349
 3458TIP3   OH210318   3.551   3.710   2.277
 3458TIP3    H110319   3.531   3.785   2.221
 3458TIP3    H210320   3.489   3.643   2.250
 3459TIP3   OH210321   6.063   5.264   6.178
 3459TIP3    H110322   5.999   5.219   6.234
 3459TIP3    H210323   6.048   5.357   6.195
 3460TIP3   OH210324   3.245   7.045   4.472
 3460TIP3    H110325   3.284   6.974   4.420
 3460TIP3    H210326   3.275   7.125   4.429
 3461TIP3   OH210327   7.160   6.195   1.535
 3461TIP3    H110328   7.106   6.274   1.526
 3461TIP3    H210329   7.102   6.123   1.510
 3462TIP3   OH210330   6.567   6.201   6.618
 3462TIP3    H110331   6.546   6.124   6.671
 3462TIP3    H210332   6.504   6.267   6.646
 3463TIP3   OH210333   7.791   5.515   1.584
 3463TIP3    H110334   7.734   5.553   1.651
 3463TIP3    H210335   7.880   5.536   1.614
 3464TIP3   OH210336   6.528   7.256   1.327
 3464TIP3    H110337   6.582   7.179   1.343
 3464TIP3    H210338   6.557   7.320   1.392
 3465TIP3   OH210339   7.482   4.776   6.081
 3465TIP3    H110340   7.494   4.769   5.986
 3465TIP3    H210341   7.568   4.803   6.114
 3466TIP3   OH210342   1.905   3.549   2.832
 3466TIP3    H110343   1.943   3.632   2.860
 3466TIP3    H210344   1.811   3.559   2.845
 3467TIP3   OH210345   6.968   1.752   0.469
 3467TIP3    H110346   6.970   1.810   0.392
 3467TIP3    H210347   6.980   1.664   0.433
 3468TIP3   OH210348   4.345   6.033   3.400
 3468TIP3    H110349   4.389   6.042   3.315
 3468TIP3    H210350   4.400   5.973   3.450
 3469TIP3   OH210351   0.288   1.121   1.759
 3469TIP3    H110352   0.300   1.031   1.791
 3469TIP3    H210353   0.212   1.115   1.700
 3470TIP3   OH210354   2.757   2.472   0.582
 3470TIP3    H110355   2.685   2.415   0.553
 3470TIP3    H210356   2.756   2.545   0.520
 3471TIP3   OH210357   8.184   2.694   0.628
 3471TIP3    H110358   8.206   2.752   0.700
 3471TIP3    H210359   8.197   2.606   0.663
 3472TIP3   OH210360   4.555   0.108   1.833
 3472TIP3    H110361   4.568   0.202   1.822
 3472TIP3    H210362   4.630   0.068   1.788
 3473TIP3   OH210363   1.546   4.962   6.195
 3473TIP3    H110364   1.554   5.025   6.266
 3473TIP3    H210365   1.477   4.902   6.223
 3474TIP3   OH210366   0.723   3.616   0.221
 3474TIP3    H110367   0.745   3.567   0.142
 3474TIP3    H210368   0.670   3.689   0.190
 3475TIP3   OH210369   3.277   0.397   2.536
 3475TIP3    H110370   3.201   0.446   2.505
 3475TIP3    H210371   3.346   0.417   2.472
 3476TIP3   OH210372   2.703   5.945   0.519
 3476TIP3    H110373   2.682   5.855   0.493
 3476TIP3    H210374   2.696   5.996   0.438
 3477TIP3   OH210375   4.653   2.975   1.925
 3477TIP3    H110376   4.623   3.053   1.878
 3477TIP3    H210377   4.573   2.925   1.941
 3478TIP3   OH210378   0.429   7.213   4.456
 3478TIP3    H110379   0.363   7.145   4.469
 3478TIP3    H210380   0.490   7.175   4.392
 3479TIP3   OH210381   2.076   5.096   2.365
 3479TIP3    H110382   2.102   5.170   2.309
 3479TIP3    H210383   1.984   5.113   2.385
 3480TIP3   OH210384   3.972   5.512   6.424
 3480TIP3    H110385   3.904   5.575   6.448
 3480TIP3    H210386   4.003   5.477   6.508
 3481TIP3   OH210387   7.300   1.155   1.752
 3481TIP3    H110388   7.312   1.118   1.840
 3481TIP3    H210389   7.211   1.129   1.728
 3482TIP3   OH210390   7.992   3.891   1.795
 3482TIP3    H110391   7.999   3.963   1.733
 3482TIP3    H210392   8.032   3.924   1.875
 3483TIP3   OH210393   7.881   4.267   1.963
 3483TIP3    H110394   7.907   4.359   1.958
 3483TIP3    H210395   7.954   4.224   2.007
 3484TIP3   OH210396   3.992   5.686   0.052
 3484TIP3    H110397   4.044   5.760   0.023
 3484TIP3    H210398   3.923   5.725   0.107
 3485TIP3   OH210399   7.158   2.215   2.482
 3485TIP3    H110400   7.104   2.260   2.417
 3485TIP3    H210401   7.095   2.175   2.542
 3486TIP3   OH210402   7.681   2.595   3.617
 3486TIP3    H110403   7.626   2.668   3.646
 3486TIP3    H210404   7.661   2.586   3.523
 3487TIP3   OH210405   3.335   0.837   4.976
 3487TIP3    H110406   3.382   0.917   4.996
 3487TIP3    H210407   3.364   0.813   4.888
 3488TIP3   OH210408   8.150   1.272   0.378
 3488TIP3    H110409   8.082   1.302   0.318
 3488TIP3    H210410   8.221   1.242   0.321
 3489TIP3   OH210411   2.654   5.961   5.522
 3489TIP3    H110412   2.607   6.031   5.476
 3489TIP3    H210413   2.632   5.881   5.473
 3490TIP3   OH210414   6.745   4.746   2.297
 3490TIP3    H110415   6.713   4.699   2.374
 3490TIP3    H210416   6.815   4.803   2.331
 3491TIP3   OH210417   6.804   4.126   5.329
 3491TIP3    H110418   6.793   4.077   5.410
 3491TIP3    H210419   6.898   4.125   5.312
 3492TIP3   OH210420   5.151   6.928   5.974
 3492TIP3    H110421   5.147   6.997   6.041
 3492TIP3    H210422   5.136   6.847   6.022
 3493TIP3   OH210423   2.868   7.361   5.460
 3493TIP3    H110424   2.833   7.301   5.395
 3493TIP3    H210425   2.963   7.349   5.455
 3494TIP3   OH210426   6.206   6.772   6.754
 3494TIP3    H110427   6.158   6.751   6.674
 3494TIP3    H210428   6.223   6.866   6.748
 3495TIP3   OH210429   7.639   5.596   4.093
 3495TIP3    H110430   7.682   5.678   4.117
 3495TIP3    H210431   7.657   5.585   4.000
 3496TIP3   OH210432   1.714   0.670   0.513
 3496TIP3    H110433   1.679   0.593   0.467
 3496TIP3    H210434   1.656   0.741   0.487
 3497TIP3   OH210435   6.536   4.226   4.017
 3497TIP3    H110436   6.445   4.208   3.994
 3497TIP3    H210437   6.533   4.307   4.068
 3498TIP3   OH210438   1.692   0.666   5.212
 3498TIP3    H110439   1.654   0.752   5.195
 3498TIP3    H210440   1.785   0.676   5.195
 3499TIP3   OH210441   5.517   2.441   1.444
 3499TIP3    H110442   5.455   2.380   1.484
 3499TIP3    H210443   5.558   2.391   1.374
 3500TIP3   OH210444   0.777   6.234   2.703
 3500TIP3    H110445   0.736   6.197   2.781
 3500TIP3    H210446   0.706   6.239   2.639
 3501TIP3   OH210447   4.316   1.684   2.443
 3501TIP3    H110448   4.292   1.626   2.370
 3501TIP3    H210449   4.288   1.771   2.414
 3502TIP3   OH210450   5.736   7.545   0.249
 3502TIP3    H110451   5.761   7.585   0.333
 3502TIP3    H210452   5.756   7.612   0.184
 3503TIP3   OH210453   3.711   1.917   3.881
 3503TIP3    H110454   3.721   1.935   3.974
 3503TIP3    H210455   3.642   1.850   3.876
 3504TIP3   OH210456   3.893   4.612   1.059
 3504TIP3    H110457   3.959   4.555   1.019
 3504TIP3    H210458   3.943   4.669   1.117
 3505TIP3   OH210459   6.692   4.546   4.980
 3505TIP3    H110460   6.713   4.607   4.910
 3505TIP3    H210461   6.647   4.599   5.046
 3506TIP3   OH210462   3.413   1.972   6.636
 3506TIP3    H110463   3.501   1.959   6.673
 3506TIP3    H210464   3.422   1.943   6.545
 3507TIP3   OH210465   1.653   7.769   5.053
 3507TIP3    H110466   1.558   7.779   5.043
 3507TIP3    H210467   1.673   7.816   5.134
 3508TIP3   OH210468   5.088   0.895   4.161
 3508TIP3    H110469   5.157   0.914   4.097
 3508TIP3    H210470   5.071   0.979   4.204
 3509TIP3   OH210471   6.602   0.302   4.473
 3509TIP3    H110472   6.553   0.335   4.549
 3509TIP3    H210473   6.534   0.270   4.414
 3510TIP3   OH210474   6.387   2.607   0.795
 3510TIP3    H110475   6.372   2.654   0.878
 3510TIP3    H210476   6.316   2.637   0.738
 3511TIP3   OH210477   5.017   3.634   6.073
 3511TIP3    H110478   5.101   3.617   6.030
 3511TIP3    H210479   4.988   3.718   6.037
 3512TIP3   OH210480   0.104   6.113   4.485
 3512TIP3    H110481   0.119   6.147   4.573
 3512TIP3    H210482   0.076   6.022   4.498
 3513TIP3   OH210483   1.905   2.042   4.717
 3513TIP3    H110484   1.994   2.051   4.683
 3513TIP3    H210485   1.871   1.962   4.677
 3514TIP3   OH210486   0.865   0.453   3.278
 3514TIP3    H110487   0.911   0.476   3.358
 3514TIP3    H210488   0.787   0.509   3.278
 3515TIP3   OH210489   5.098   4.391   6.413
 3515TIP3    H110490   5.138   4.477   6.411
 3515TIP3    H210491   5.172   4.330   6.408
 3516TIP3   OH210492   3.666   5.250   0.439
 3516TIP3    H110493   3.760   5.263   0.440
 3516TIP3    H210494   3.653   5.171   0.386
 3517TIP3   OH210495   2.384   4.698   1.976
 3517TIP3    H110496   2.464   4.649   1.991
 3517TIP3    H210497   2.389   4.724   1.884
 3518TIP3   OH210498   3.551   0.968   4.277
 3518TIP3    H110499   3.460   0.964   4.250
 3518TIP3    H210500   3.599   0.923   4.206
 3519TIP3   OH210501   4.542   5.926   1.248
 3519TIP3    H110502   4.619   5.965   1.207
 3519TIP3    H210503   4.577   5.866   1.314
 3520TIP3   OH210504   8.118   1.328   3.747
 3520TIP3    H110505   8.040   1.296   3.791
 3520TIP3    H210506   8.189   1.312   3.809
 3521TIP3   OH210507   5.395   1.225   3.241
 3521TIP3    H110508   5.443   1.154   3.284
 3521TIP3    H210509   5.454   1.254   3.171
 3522TIP3   OH210510   3.020   6.653   0.292
 3522TIP3    H110511   3.023   6.646   0.197
 3522TIP3    H210512   3.111   6.666   0.318
 3523TIP3   OH210513   3.399   1.143   6.068
 3523TIP3    H110514   3.333   1.176   6.130
 3523TIP3    H210515   3.365   1.168   5.982
 3524TIP3   OH210516   5.652   3.406   2.186
 3524TIP3    H110517   5.573   3.437   2.232
 3524TIP3    H210518   5.672   3.322   2.226
 3525TIP3   OH210519   0.757   1.907   1.149
 3525TIP3    H110520   0.773   1.970   1.219
 3525TIP3    H210521   0.664   1.915   1.129
 3526TIP3   OH210522   1.776   7.114   3.020
 3526TIP3    H110523   1.798   7.079   3.106
 3526TIP3    H210524   1.858   7.109   2.971
 3527TIP3   OH210525   6.544   1.219   3.427
 3527TIP3    H110526   6.538   1.178   3.513
 3527TIP3    H210527   6.569   1.310   3.445
 3528TIP3   OH210528   3.387   1.227   2.405
 3528TIP3    H110529   3.417   1.170   2.334
 3528TIP3    H210530   3.412   1.181   2.485
 3529TIP3   OH210531   7.147   6.504   3.348
 3529TIP3    H110532   7.121   6.522   3.258
 3529TIP3    H210533   7.073   6.534   3.401
 3530TIP3   OH210534   3.105   5.567   6.190
 3530TIP3    H110535   3.088   5.654   6.153
 3530TIP3    H210536   3.200   5.557   6.184
 3531TIP3   OH210537   4.219   3.196   3.812
 3531TIP3    H110538   4.233   3.105   3.841
 3531TIP3    H210539   4.284   3.247   3.860
 3532TIP3   OH210540   4.986   0.698   0.794
 3532TIP3    H110541   5.019   0.648   0.720
 3532TIP3    H210542   4.933   0.768   0.755
 3533TIP3   OH210543   6.729   6.412   0.066
 3533TIP3    H110544   6.820   6.382   0.063
 3533TIP3    H210545   6.712   6.450  -0.020
 3534TIP3   OH210546   3.042   2.573   0.555
 3534TIP3    H110547   3.118   2.526   0.521
 3534TIP3    H210548   2.978   2.505   0.576
 3535TIP3   OH210549   7.843   3.623   5.075
 3535TIP3    H110550   7.758   3.610   5.033
 3535TIP3    H210551   7.828   3.691   5.140
 3536TIP3   OH210552   3.600   0.950   3.586
 3536TIP3    H110553   3.521   0.916   3.627
 3536TIP3    H210554   3.590   0.930   3.493
 3537TIP3   OH210555   2.434   3.078   2.574
 3537TIP3    H110556   2.417   3.022   2.498
 3537TIP3    H210557   2.350   3.082   2.620
 3538TIP3   OH210558   3.235   6.434   6.355
 3538TIP3    H110559   3.246   6.450   6.449
 3538TIP3    H210560   3.140   6.434   6.342
 3539TIP3   OH210561   5.608   6.226   2.543
 3539TIP3    H110562   5.566   6.177   2.614
 3539TIP3    H210563   5.620   6.161   2.474
 3540TIP3   OH210564   4.729   4.607   3.564
 3540TIP3    H110565   4.684   4.593   3.648
 3540TIP3    H210566   4.766   4.521   3.543
 3541TIP3   OH210567   0.282   7.698   5.339
 3541TIP3    H110568   0.231   7.776   5.318
 3541TIP3    H210569   0.367   7.714   5.297
 3542TIP3   OH210570   0.838   5.066   3.027
 3542TIP3    H110571   0.903   5.094   2.963
 3542TIP3    H210572   0.849   5.127   3.100
 3543TIP3   OH210573   4.466   1.876   4.846
 3543TIP3    H110574   4.506   1.793   4.873
 3543TIP3    H210575   4.426   1.856   4.761
 3544TIP3   OH210576   8.220   3.523   2.355
 3544TIP3    H110577   8.153   3.520   2.423
 3544TIP3    H210578   8.213   3.439   2.309
 3545TIP3   OH210579   7.462   4.261   5.498
 3545TIP3    H110580   7.397   4.319   5.458
 3545TIP3    H210581   7.496   4.310   5.572
 3546TIP3   OH210582   1.281   2.927   6.531
 3546TIP3    H110583   1.265   3.020   6.545
 3546TIP3    H210584   1.297   2.893   6.619
 3547TIP3   OH210585   4.307   3.543   1.279
 3547TIP3    H110586   4.243   3.580   1.218
 3547TIP3    H210587   4.261   3.540   1.363
 3548TIP3   OH210588   1.358   1.883   3.673
 3548TIP3    H110589   1.286   1.827   3.703
 3548TIP3    H210590   1.380   1.850   3.587
 3549TIP3   OH210591   3.498   4.350   4.284
 3549TIP3    H110592   3.423   4.397   4.246
 3549TIP3    H210593   3.461   4.267   4.314
 3550TIP3   OH210594   0.889   1.882   0.201
 3550TIP3    H110595   0.852   1.946   0.261
 3550TIP3    H210596   0.981   1.875   0.226
 3551TIP3   OH210597   4.098   5.416   4.824
 3551TIP3    H110598   4.028   5.354   4.843
 3551TIP3    H210599   4.053   5.497   4.801
 3552TIP3   OH210600   6.258   3.046   6.722
 3552TIP3    H110601   6.296   3.057   6.809
 3552TIP3    H210602   6.332   3.022   6.666
 3553TIP3   OH210603   6.159   6.128   1.367
 3553TIP3    H110604   6.204   6.212   1.365
 3553TIP3    H210605   6.190   6.086   1.448
 3554TIP3   OH210606   3.172   3.937   0.085
 3554TIP3    H110607   3.267   3.940   0.078
 3554TIP3    H210608   3.149   4.017   0.133
 3555TIP3   OH210609   5.984   3.144   0.216
 3555TIP3    H110610   5.897   3.162   0.183
 3555TIP3    H210611   5.978   3.058   0.258
 3556TIP3   OH210612   4.892   7.693   2.189
 3556TIP3    H110613   4.801   7.694   2.220
 3556TIP3    H210614   4.901   7.610   2.143
 3557TIP3   OH210615   3.731   6.273   3.583
 3557TIP3    H110616   3.653   6.288   3.529
 3557TIP3    H210617   3.721   6.184   3.617
 3558TIP3   OH210618   2.428   7.570   4.797
 3558TIP3    H110619   2.387   7.651   4.767
 3558TIP3    H210620   2.411   7.568   4.891
 3559TIP3   OH210621   6.195   6.486   6.400
 3559TIP3    H110622   6.117   6.432   6.411
 3559TIP3    H210623   6.162   6.574   6.383
 3560TIP3   OH210624   1.273   1.073   3.760
 3560TIP3    H110625   1.259   1.025   3.842
 3560TIP3    H210626   1.333   1.144   3.785
 3561TIP3   OH210627   7.416   1.364   0.927
 3561TIP3    H110628   7.378   1.436   0.977
 3561TIP3    H210629   7.345   1.302   0.916
 3562TIP3   OH210630   1.515   5.581   5.775
 3562TIP3    H110631   1.590   5.589   5.834
 3562TIP3    H210632   1.529   5.499   5.729
 3563TIP3   OH210633   2.804   5.367   2.753
 3563TIP3    H110634   2.814   5.397   2.844
 3563TIP3    H210635   2.868   5.297   2.744
 3564TIP3   OH210636   2.290   1.889   6.514
 3564TIP3    H110637   2.200   1.885   6.547
 3564TIP3    H210638   2.282   1.937   6.431
 3565TIP3   OH210639   2.789   5.794   3.472
 3565TIP3    H110640   2.716   5.733   3.467
 3565TIP3    H210641   2.775   5.842   3.554
 3566TIP3   OH210642   0.652   3.963   2.642
 3566TIP3    H110643   0.735   3.997   2.676
 3566TIP3    H210644   0.617   4.034   2.589
 3567TIP3   OH210645   0.020   1.116   4.408
 3567TIP3    H110646   0.052   1.192   4.458
 3567TIP3    H210647  -0.034   1.153   4.339
 3568TIP3   OH210648   3.638   0.018   1.006
 3568TIP3    H110649   3.685   0.092   0.967
 3568TIP3    H210650   3.651   0.028   1.100
 3569TIP3   OH210651   3.835   6.413   3.241
 3569TIP3    H110652   3.902   6.416   3.309
 3569TIP3    H210653   3.796   6.501   3.241
 3570TIP3   OH210654   7.884   2.465   4.931
 3570TIP3    H110655   7.952   2.429   4.988
 3570TIP3    H210656   7.867   2.396   4.867
 3571TIP3   OH210657   0.041   6.760   1.612
 3571TIP3    H110658   0.113   6.700   1.631
 3571TIP3    H210659   0.044   6.825   1.682
 3572TIP3   OH210660   5.527   2.005   6.516
 3572TIP3    H110661   5.447   2.017   6.567
 3572TIP3    H210662   5.551   2.093   6.488
 3573TIP3   OH210663   2.978   6.063   4.547
 3573TIP3    H110664   3.060   6.019   4.568
 3573TIP3    H210665   2.986   6.149   4.588
 3574TIP3   OH210666   3.240   3.517   3.135
 3574TIP3    H110667   3.162   3.544   3.183
 3574TIP3    H210668   3.305   3.585   3.152
 3575TIP3   OH210669   4.663   4.020   4.822
 3575TIP3    H110670   4.684   3.990   4.733
 3575TIP3    H210671   4.603   3.953   4.857
 3576TIP3   OH210672   2.201   5.164   5.647
 3576TIP3    H110673   2.151   5.204   5.576
 3576TIP3    H210674   2.268   5.112   5.603
 3577TIP3   OH210675   8.055   3.269   6.059
 3577TIP3    H110676   7.977   3.309   6.020
 3577TIP3    H210677   8.063   3.185   6.015
 3578TIP3   OH210678   1.267   7.666   2.569
 3578TIP3    H110679   1.171   7.670   2.560
 3578TIP3    H210680   1.300   7.675   2.480
 3579TIP3   OH210681   6.748   5.117   5.835
 3579TIP3    H110682   6.760   5.210   5.851
 3579TIP3    H210683   6.712   5.083   5.918
 3580TIP3   OH210684   2.530   7.515   2.077
 3580TIP3    H110685   2.472   7.592   2.078
 3580TIP3    H210686   2.496   7.461   2.005
 3581TIP3   OH210687   4.523   4.771   1.631
 3581TIP3    H110688   4.523   4.765   1.536
 3581TIP3    H210689   4.496   4.862   1.649
 3582TIP3   OH210690   0.038   1.983   4.341
 3582TIP3    H110691   0.004   2.060   4.386
 3582TIP3    H210692   0.093   2.019   4.271
 3583TIP3   OH210693   7.769   2.517   1.492
 3583TIP3    H110694   7.837   2.453   1.471
 3583TIP3    H210695   7.727   2.482   1.571
 3584TIP3   OH210696   2.326   6.659   6.643
 3584TIP3    H110697   2.299   6.719   6.712
 3584TIP3    H210698   2.252   6.600   6.632
 3585TIP3   OH210699   3.482   4.747   4.305
 3585TIP3    H110700   3.420   4.696   4.252
 3585TIP3    H210701   3.522   4.683   4.364
 3586TIP3   OH210702   8.006   1.039   1.041
 3586TIP3    H110703   8.101   1.045   1.054
 3586TIP3    H210704   7.992   0.953   1.003
 3587TIP3   OH210705   2.432   3.171   4.452
 3587TIP3    H110706   2.516   3.141   4.417
 3587TIP3    H210707   2.454   3.207   4.538
 3588TIP3   OH210708   4.575   3.285   6.067
 3588TIP3    H110709   4.649   3.223   6.068
 3588TIP3    H210710   4.579   3.325   5.980
 3589TIP3   OH210711   6.917   6.643   2.200
 3589TIP3    H110712   6.995   6.691   2.228
 3589TIP3    H210713   6.849   6.671   2.261
 3590TIP3   OH210714   4.077   0.769   2.868
 3590TIP3    H110715   4.136   0.844   2.870
 3590TIP3    H210716   4.029   0.773   2.951
 3591TIP3   OH210717   5.299   5.329   1.237
 3591TIP3    H110718   5.211   5.347   1.268
 3591TIP3    H210719   5.297   5.351   1.144
 3592TIP3   OH210720   5.110   4.079   4.043
 3592TIP3    H110721   5.197   4.072   4.081
 3592TIP3    H210722   5.124   4.075   3.949
 3593TIP3   OH210723   1.207   4.415   5.415
 3593TIP3    H110724   1.287   4.468   5.413
 3593TIP3    H210725   1.231   4.334   5.368
 3594TIP3   OH210726   6.384   7.489   3.943
 3594TIP3    H110727   6.300   7.465   3.981
 3594TIP3    H210728   6.426   7.405   3.923
 3595TIP3   OH210729   2.427   5.383   3.541
 3595TIP3    H110730   2.518   5.410   3.528
 3595TIP3    H210731   2.378   5.434   3.477
 3596TIP3   OH210732   7.985   3.560   0.101
 3596TIP3    H110733   7.904   3.566   0.051
 3596TIP3    H210734   7.958   3.567   0.192
 3597TIP3   OH210735   7.696   3.314   0.803
 3597TIP3    H110736   7.753   3.255   0.852
 3597TIP3    H210737   7.717   3.401   0.837
 3598TIP3   OH210738   4.608   5.595   4.662
 3598TIP3    H110739   4.515   5.597   4.684
 3598TIP3    H210740   4.653   5.601   4.747
 3599TIP3   OH210741   7.680   7.442   2.084
 3599TIP3    H110742   7.651   7.398   2.163
 3599TIP3    H210743   7.760   7.395   2.059
 3600TIP3   OH210744   5.411   1.825   6.342
 3600TIP3    H110745   5.324   1.830   6.382
 3600TIP3    H210746   5.469   1.868   6.405
 3601TIP3   OH210747   4.287   6.120   2.146
 3601TIP3    H110748   4.210   6.154   2.101
 3601TIP3    H210749   4.252   6.050   2.202
 3602TIP3   OH210750   2.573   4.725   0.042
 3602TIP3    H110751   2.586   4.669  -0.034
 3602TIP3    H210752   2.502   4.683   0.091
 3603TIP3   OH210753   1.854   7.374   4.948
 3603TIP3    H110754   1.850   7.280   4.930
 3603TIP3    H210755   1.859   7.380   5.043
 3604TIP3   OH210756   3.523   7.380   3.283
 3604TIP3    H110757   3.492   7.469   3.296
 3604TIP3    H210758   3.494   7.332   3.361
 3605TIP3   OH210759   6.659   6.425   5.082
 3605TIP3    H110760   6.747   6.405   5.052
 3605TIP3    H210761   6.622   6.482   5.015
 3606TIP3   OH210762   6.656   5.030   6.070
 3606TIP3    H110763   6.708   4.950   6.068
 3606TIP3    H210764   6.569   5.002   6.097
 3607TIP3   OH210765   0.185   1.378   3.513
 3607TIP3    H110766   0.196   1.447   3.578
 3607TIP3    H210767   0.172   1.299   3.565
 3608TIP3   OH210768   0.128   2.264   0.049
 3608TIP3    H110769   0.200   2.326   0.062
 3608TIP3    H210770   0.057   2.298   0.103
 3609TIP3   OH210771   1.866   5.941   1.297
 3609TIP3    H110772   1.851   5.847   1.293
 3609TIP3    H210773   1.854   5.971   1.206
 3610TIP3   OH210774   6.388   7.794   0.471
 3610TIP3    H110775   6.399   7.700   0.488
 3610TIP3    H210776   6.375   7.833   0.557
 3611TIP3   OH210777   8.051   3.186   0.447
 3611TIP3    H110778   7.981   3.123   0.428
 3611TIP3    H210779   8.088   3.157   0.530
 3612TIP3   OH210780   4.446   4.160   6.225
 3612TIP3    H110781   4.434   4.255   6.234
 3612TIP3    H210782   4.369   4.131   6.176
 3613TIP3   OH210783   0.911   6.792   4.761
 3613TIP3    H110784   0.900   6.758   4.850
 3613TIP3    H210785   0.822   6.807   4.729
 3614TIP3   OH210786   7.829   6.459   2.526
 3614TIP3    H110787   7.815   6.387   2.588
 3614TIP3    H210788   7.881   6.523   2.575
 3615TIP3   OH210789   5.394   3.638   3.708
 3615TIP3    H110790   5.439   3.701   3.652
 3615TIP3    H210791   5.302   3.664   3.705
 3616TIP3   OH210792   3.897   6.724   5.396
 3616TIP3    H110793   3.993   6.724   5.400
 3616TIP3    H210794   3.870   6.682   5.477
 3617TIP3   OH210795   6.730   0.272   6.432
 3617TIP3    H110796   6.767   0.234   6.512
 3617TIP3    H210797   6.760   0.214   6.362
 3618TIP3   OH210798   5.059   3.188   4.393
 3618TIP3    H110799   5.077   3.136   4.471
 3618TIP3    H210800   5.133   3.172   4.335
 3619TIP3   OH210801   7.128   2.702   5.479
 3619TIP3    H110802   7.184   2.640   5.525
 3619TIP3    H210803   7.071   2.738   5.546
 3620TIP3   OH210804   4.542   5.489   1.538
 3620TIP3    H110805   4.588   5.471   1.456
 3620TIP3    H210806   4.602   5.458   1.606
 3621TIP3   OH210807   1.379   4.975   5.289
 3621TIP3    H110808   1.396   4.914   5.218
 3621TIP3    H210809   1.320   4.928   5.348
 3622TIP3   OH210810   4.088   1.138   0.549
 3622TIP3    H110811   4.058   1.136   0.640
 3622TIP3    H210812   4.163   1.078   0.546
 3623TIP3   OH210813   2.966   5.300   0.411
 3623TIP3    H110814   2.921   5.216   0.401
 3623TIP3    H210815   3.018   5.310   0.331
 3624TIP3   OH210816   3.728   4.012   4.765
 3624TIP3    H110817   3.741   4.106   4.772
 3624TIP3    H210818   3.642   4.003   4.723
 3625TIP3   OH210819   1.219   5.342   3.122
 3625TIP3    H110820   1.247   5.394   3.047
 3625TIP3    H210821   1.148   5.392   3.161
 3626TIP3   OH210822   0.921   5.923   6.592
 3626TIP3    H110823   0.885   5.890   6.674
 3626TIP3    H210824   0.856   5.986   6.561
 3627TIP3   OH210825   3.463   6.665   0.870
 3627TIP3    H110826   3.520   6.616   0.929
 3627TIP3    H210827   3.393   6.697   0.926
 3628TIP3   OH210828   6.376   2.615   1.960
 3628TIP3    H110829   6.320   2.540   1.980
 3628TIP3    H210830   6.360   2.677   2.030
 3629TIP3   OH210831   3.265   7.266   6.477
 3629TIP3    H110832   3.294   7.345   6.431
 3629TIP3    H210833   3.174   7.284   6.500
 3630TIP3   OH210834   4.205   2.524   0.616
 3630TIP3    H110835   4.174   2.555   0.701
 3630TIP3    H210836   4.228   2.432   0.631
 3631TIP3   OH210837   5.314   4.250   4.328
 3631TIP3    H110838   5.357   4.326   4.368
 3631TIP3    H210839   5.378   4.179   4.335
 3632TIP3   OH210840   4.242   6.312   0.480
 3632TIP3    H110841   4.278   6.389   0.437
 3632TIP3    H210842   4.278   6.238   0.431
 3633TIP3   OH210843   1.370   4.786   5.107
 3633TIP3    H110844   1.425   4.724   5.059
 3633TIP3    H210845   1.282   4.751   5.100
 3634TIP3   OH210846   4.076   5.336   1.577
 3634TIP3    H110847   4.093   5.248   1.545
 3634TIP3    H210848   4.070   5.390   1.498
 3635TIP3   OH210849   5.203   2.523   1.477
 3635TIP3    H110850   5.230   2.608   1.442
 3635TIP3    H210851   5.169   2.476   1.401
 3636TIP3   OH210852   6.404   7.482   4.729
 3636TIP3    H110853   6.336   7.506   4.791
 3636TIP3    H210854   6.485   7.480   4.780
 3637TIP3   OH210855   1.221   6.004   0.984
 3637TIP3    H110856   1.245   6.077   0.926
 3637TIP3    H210857   1.184   6.047   1.061
 3638TIP3   OH210858   5.757   0.416   4.978
 3638TIP3    H110859   5.699   0.492   4.986
 3638TIP3    H210860   5.798   0.426   4.892
 3639TIP3   OH210861   7.417   2.406   4.934
 3639TIP3    H110862   7.434   2.467   5.007
 3639TIP3    H210863   7.426   2.460   4.855
 3640TIP3   OH210864   6.677   4.011   4.289
 3640TIP3    H110865   6.674   3.947   4.360
 3640TIP3    H210866   6.649   4.093   4.330
 3641TIP3   OH210867   6.345   6.093   5.679
 3641TIP3    H110868   6.263   6.110   5.632
 3641TIP3    H210869   6.414   6.111   5.615
 3642TIP3   OH210870   3.200   0.600   0.423
 3642TIP3    H110871   3.135   0.574   0.358
 3642TIP3    H210872   3.233   0.518   0.459
 3643TIP3   OH210873   5.167   1.486   4.956
 3643TIP3    H110874   5.262   1.495   4.951
 3643TIP3    H210875   5.146   1.420   4.889
 3644TIP3   OH210876   2.630   2.505   4.489
 3644TIP3    H110877   2.671   2.570   4.546
 3644TIP3    H210878   2.622   2.427   4.543
 3645TIP3   OH210879   7.252   5.324   5.270
 3645TIP3    H110880   7.215   5.299   5.186
 3645TIP3    H210881   7.223   5.255   5.331
 3646TIP3   OH210882   6.059   7.127   4.612
 3646TIP3    H110883   6.030   7.207   4.655
 3646TIP3    H210884   6.149   7.146   4.584
 3647TIP3   OH210885   8.002   4.885   0.416
 3647TIP3    H110886   7.996   4.789   0.410
 3647TIP3    H210887   7.911   4.914   0.412
 3648TIP3   OH210888   5.802   6.746   3.830
 3648TIP3    H110889   5.751   6.683   3.780
 3648TIP3    H210890   5.801   6.825   3.776
 3649TIP3   OH210891   0.624   2.872   5.479
 3649TIP3    H110892   0.540   2.909   5.452
 3649TIP3    H210893   0.642   2.804   5.414
 3650TIP3   OH210894   3.679   1.375   2.007
 3650TIP3    H110895   3.722   1.395   1.924
 3650TIP3    H210896   3.687   1.457   2.057
 3651TIP3   OH210897   5.839   0.055   0.716
 3651TIP3    H110898   5.899   0.081   0.786
 3651TIP3    H210899   5.844   0.127   0.653
 3652TIP3   OH210900   4.678   6.543   6.214
 3652TIP3    H110901   4.747   6.537   6.279
 3652TIP3    H210902   4.714   6.598   6.145
 3653TIP3   OH210903   7.359   2.667   2.921
 3653TIP3    H110904   7.323   2.752   2.895
 3653TIP3    H210905   7.335   2.657   3.013
 3654TIP3   OH210906   4.079   5.314   5.235
 3654TIP3    H110907   4.094   5.270   5.319
 3654TIP3    H210908   3.985   5.302   5.218
 3655TIP3   OH210909   6.683   4.045   2.384
 3655TIP3    H110910   6.611   4.090   2.338
 3655TIP3    H210911   6.762   4.088   2.353
 3656TIP3   OH210912   7.969   0.785   0.362
 3656TIP3    H110913   7.965   0.702   0.409
 3656TIP3    H210914   7.878   0.813   0.355
 3657TIP3   OH210915   1.689   0.803   2.713
 3657TIP3    H110916   1.771   0.756   2.703
 3657TIP3    H210917   1.674   0.805   2.808
 3658TIP3   OH210918   0.100   3.057   0.411
 3658TIP3    H110919   0.185   3.025   0.381
 3658TIP3    H210920   0.078   3.129   0.352
 3659TIP3   OH210921   0.364   2.792   1.282
 3659TIP3    H110922   0.327   2.797   1.194
 3659TIP3    H210923   0.407   2.706   1.285
 3660TIP3   OH210924   1.385   4.804   3.679
 3660TIP3    H110925   1.369   4.811   3.585
 3660TIP3    H210926   1.461   4.861   3.695
 3661TIP3   OH210927   6.256   1.910   5.764
 3661TIP3    H110928   6.207   1.916   5.845
 3661TIP3    H210929   6.277   1.817   5.754
 3662TIP3   OH210930   4.346   1.328   1.866
 3662TIP3    H110931   4.369   1.253   1.920
 3662TIP3    H210932   4.254   1.346   1.889
 3663TIP3   OH210933   1.944   4.019   3.534
 3663TIP3    H110934   1.942   3.925   3.554
 3663TIP3    H210935   2.013   4.054   3.590
 3664TIP3   OH210936   4.878   3.051   4.239
 3664TIP3    H110937   4.933   3.095   4.303
 3664TIP3    H210938   4.795   3.035   4.286
 3665TIP3   OH210939   4.737   6.920   5.164
 3665TIP3    H110940   4.745   7.004   5.120
 3665TIP3    H210941   4.713   6.858   5.095
 3666TIP3   OH210942   2.573   3.314   0.295
 3666TIP3    H110943   2.643   3.363   0.339
 3666TIP3    H210944   2.619   3.244   0.248
 3667TIP3   OH210945   3.863   3.948   6.527
 3667TIP3    H110946   3.920   3.997   6.586
 3667TIP3    H210947   3.863   3.859   6.562
 3668TIP3   OH210948   7.142   6.762   2.304
 3668TIP3    H110949   7.082   6.764   2.377
 3668TIP3    H210950   7.171   6.853   2.294
 3669TIP3   OH210951   8.197   0.169   3.928
 3669TIP3    H110952   8.119   0.219   3.954
 3669TIP3    H210953   8.184   0.150   3.835
 3670TIP3   OH210954   3.120   7.197   3.645
 3670TIP3    H110955   3.165   7.233   3.722
 3670TIP3    H210956   3.148   7.106   3.641
 3671TIP3   OH210957   2.625   6.610   5.174
 3671TIP3    H110958   2.609   6.520   5.202
 3671TIP3    H210959   2.720   6.615   5.162
 3672TIP3   OH210960   2.208   0.368   1.929
 3672TIP3    H110961   2.151   0.383   1.854
 3672TIP3    H210962   2.149   0.347   2.001
 3673TIP3   OH210963   3.997   4.534   4.720
 3673TIP3    H110964   4.015   4.521   4.814
 3673TIP3    H210965   3.917   4.586   4.718
 3674TIP3   OH210966   4.614   6.595   2.760
 3674TIP3    H110967   4.518   6.600   2.768
 3674TIP3    H210968   4.632   6.501   2.754
 3675TIP3   OH210969   4.289   1.182   5.061
 3675TIP3    H110970   4.357   1.247   5.043
 3675TIP3    H210971   4.276   1.187   5.156
 3676TIP3   OH210972   2.606   6.025   6.118
 3676TIP3    H110973   2.630   5.954   6.177
 3676TIP3    H210974   2.605   5.984   6.031
 3677TIP3   OH210975   3.906   3.448   0.548
 3677TIP3    H110976   3.996   3.439   0.579
 3677TIP3    H210977   3.857   3.380   0.594
 3678TIP3   OH210978   3.478   5.922   2.023
 3678TIP3    H110979   3.408   5.987   2.021
 3678TIP3    H210980   3.528   5.938   1.944
 3679TIP3   OH210981   2.940   7.274   1.038
 3679TIP3    H110982   2.953   7.257   0.945
 3679TIP3    H210983   3.028   7.287   1.073
 3680TIP3   OH210984   7.287   2.080   2.802
 3680TIP3    H110985   7.291   2.162   2.751
 3680TIP3    H210986   7.365   2.082   2.857
 3681TIP3   OH210987   4.879   3.820   3.533
 3681TIP3    H110988   4.866   3.832   3.439
 3681TIP3    H210989   4.935   3.893   3.560
 3682TIP3   OH210990   1.328   6.441   0.254
 3682TIP3    H110991   1.324   6.349   0.231
 3682TIP3    H210992   1.241   6.475   0.234
 3683TIP3   OH210993   7.388   6.430   0.076
 3683TIP3    H110994   7.365   6.354   0.023
 3683TIP3    H210995   7.446   6.396   0.144
 3684TIP3   OH210996   7.892   1.711   5.468
 3684TIP3    H110997   7.828   1.778   5.443
 3684TIP3    H210998   7.839   1.632   5.481
 3685TIP3   OH210999   1.496   1.201   3.115
 3685TIP3    H111000   1.545   1.131   3.158
 3685TIP3    H211001   1.541   1.213   3.031
 3686TIP3   OH211002   6.352   0.413   2.302
 3686TIP3    H111003   6.369   0.329   2.259
 3686TIP3    H211004   6.337   0.390   2.393
 3687TIP3   OH211005   2.081   6.146   1.328
 3687TIP3    H111006   2.134   6.132   1.249
 3687TIP3    H211007   2.018   6.075   1.327
 3688TIP3   OH211008   4.832   6.376   3.431
 3688TIP3    H111009   4.795   6.429   3.502
 3688TIP3    H211010   4.808   6.424   3.351
 3689TIP3   OH211011   6.504   6.834   2.857
 3689TIP3    H111012   6.556   6.861   2.932
 3689TIP3    H211013   6.433   6.898   2.853
 3690TIP3   OH211014   4.605   5.605   3.810
 3690TIP3    H111015   4.672   5.639   3.869
 3690TIP3    H211016   4.652   5.588   3.728
 3691TIP3   OH211017   2.101   1.367   1.207
 3691TIP3    H111018   2.054   1.398   1.130
 3691TIP3    H211019   2.075   1.276   1.217
 3692TIP3   OH211020   1.144   0.405   6.299
 3692TIP3    H111021   1.163   0.417   6.206
 3692TIP3    H211022   1.068   0.347   6.301
 3693TIP3   OH211023   5.500   7.444   5.375
 3693TIP3    H111024   5.450   7.488   5.306
 3693TIP3    H211025   5.588   7.434   5.338
 3694TIP3   OH211026   0.339   0.327   3.454
 3694TIP3    H111027   0.303   0.321   3.365
 3694TIP3    H211028   0.387   0.410   3.455
 3695TIP3   OH211029   3.505   4.717   5.546
 3695TIP3    H111030   3.535   4.647   5.604
 3695TIP3    H211031   3.413   4.698   5.531
 3696TIP3   OH211032   5.965   0.759   5.147
 3696TIP3    H111033   6.001   0.728   5.064
 3696TIP3    H211034   6.007   0.844   5.161
 3697TIP3   OH211035   0.879   5.818   0.765
 3697TIP3    H111036   0.792   5.784   0.786
 3697TIP3    H211037   0.929   5.807   0.846
 3698TIP3   OH211038   0.938   6.844   2.280
 3698TIP3    H111039   0.952   6.779   2.212
 3698TIP3    H211040   1.020   6.845   2.330
 3699TIP3   OH211041   6.320   3.207   3.805
 3699TIP3    H111042   6.308   3.212   3.900
 3699TIP3    H211043   6.380   3.279   3.785
 3700TIP3   OH211044   1.479   1.656   4.796
 3700TIP3    H111045   1.561   1.623   4.760
 3700TIP3    H211046   1.456   1.731   4.742
 3701TIP3   OH211047   5.688   3.720   5.817
 3701TIP3    H111048   5.770   3.758   5.787
 3701TIP3    H211049   5.708   3.679   5.901
 3702TIP3   OH211050   5.118   7.851   0.575
 3702TIP3    H111051   5.184   7.818   0.636
 3702TIP3    H211052   5.097   7.777   0.519
 3703TIP3   OH211053   0.544   1.444   3.915
 3703TIP3    H111054   0.628   1.490   3.905
 3703TIP3    H211055   0.516   1.464   4.005
 3704TIP3   OH211056   3.233   0.464   4.394
 3704TIP3    H111057   3.257   0.379   4.355
 3704TIP3    H211058   3.232   0.447   4.488
 3705TIP3   OH211059   3.919   4.998   4.083
 3705TIP3    H111060   3.858   4.925   4.099
 3705TIP3    H211061   3.953   5.021   4.169
 3706TIP3   OH211062   2.925   7.160   2.014
 3706TIP3    H111063   2.884   7.223   2.075
 3706TIP3    H211064   2.958   7.090   2.070
 3707TIP3   OH211065   7.126   1.990   5.733
 3707TIP3    H111066   7.166   1.995   5.820
 3707TIP3    H211067   7.169   2.058   5.682
 3708TIP3   OH211068   0.189   0.943   6.573
 3708TIP3    H111069   0.161   0.898   6.493
 3708TIP3    H211070   0.275   0.980   6.550
 3709TIP3   OH211071   1.243   6.170   0.280
 3709TIP3    H111072   1.149   6.174   0.296
 3709TIP3    H211073   1.282   6.170   0.368
 3710TIP3   OH211074   6.766   6.082   3.284
 3710TIP3    H111075   6.851   6.043   3.307
 3710TIP3    H211076   6.711   6.065   3.360
 3711TIP3   OH211077   1.167   2.728   2.846
 3711TIP3    H111078   1.161   2.765   2.758
 3711TIP3    H211079   1.098   2.772   2.895
 3712TIP3   OH211080   3.539   1.440   0.212
 3712TIP3    H111081   3.536   1.369   0.277
 3712TIP3    H211082   3.494   1.513   0.254
 3713TIP3   OH211083   3.494   2.445   6.021
 3713TIP3    H111084   3.400   2.425   6.016
 3713TIP3    H211085   3.525   2.436   5.931
 3714TIP3   OH211086   3.294   7.599   4.322
 3714TIP3    H111087   3.300   7.569   4.232
 3714TIP3    H211088   3.373   7.651   4.336
 3715TIP3   OH211089   6.957   0.624   0.290
 3715TIP3    H111090   6.866   0.600   0.272
 3715TIP3    H211091   6.980   0.685   0.220
 3716TIP3   OH211092   3.700   4.924   5.416
 3716TIP3    H111093   3.649   4.848   5.442
 3716TIP3    H211094   3.639   4.977   5.365
 3717TIP3   OH211095   7.901   7.432   3.030
 3717TIP3    H111096   7.880   7.354   2.979
 3717TIP3    H211097   7.993   7.420   3.055
 3718TIP3   OH211098   7.166   0.355   5.297
 3718TIP3    H111099   7.081   0.391   5.274
 3718TIP3    H211100   7.157   0.328   5.389
 3719TIP3   OH211101   3.984   3.318   3.709
 3719TIP3    H111102   3.903   3.293   3.753
 3719TIP3    H211103   4.053   3.274   3.758
 3720TIP3   OH211104   6.928   5.868   2.657
 3720TIP3    H111105   6.978   5.804   2.708
 3720TIP3    H211106   6.934   5.837   2.567
 3721TIP3   OH211107   7.457   7.814   5.182
 3721TIP3    H111108   7.497   7.846   5.101
 3721TIP3    H211109   7.363   7.825   5.169
 3722TIP3   OH211110   8.203   7.245   5.358
 3722TIP3    H111111   8.168   7.293   5.433
 3722TIP3    H211112   8.127   7.231   5.301
 3723TIP3   OH211113   0.290   4.544   1.445
 3723TIP3    H111114   0.230   4.617   1.462
 3723TIP3    H211115   0.377   4.584   1.445
 3724TIP3   OH211116   4.200   5.619   6.282
 3724TIP3    H111117   4.111   5.624   6.315
 3724TIP3    H211118   4.254   5.609   6.361
 3725TIP3   OH211119   6.892   4.889   3.944
 3725TIP3    H111120   6.949   4.917   3.872
 3725TIP3    H211121   6.817   4.849   3.900
 3726TIP3   OH211122   7.909   5.709   3.813
 3726TIP3    H111123   7.927   5.617   3.793
 3726TIP3    H211124   7.995   5.745   3.836
 3727TIP3   OH211125   6.429   4.655   4.733
 3727TIP3    H111126   6.385   4.635   4.816
 3727TIP3    H211127   6.367   4.712   4.686
 3728TIP3   OH211128   5.118   7.521   1.906
 3728TIP3    H111129   5.171   7.567   1.971
 3728TIP3    H211130   5.038   7.498   1.952
 3729TIP3   OH211131   2.624   5.143   0.181
 3729TIP3    H111132   2.716   5.122   0.194
 3729TIP3    H211133   2.578   5.060   0.194
 3730TIP3   OH211134   8.037   7.759   5.514
 3730TIP3    H111135   7.970   7.692   5.501
 3730TIP3    H211136   8.018   7.795   5.601
 3731TIP3   OH211137   4.943   0.876   2.018
 3731TIP3    H111138   4.856   0.915   2.029
 3731TIP3    H211139   4.995   0.914   2.089
 3732TIP3   OH211140   1.750   5.860   0.626
 3732TIP3    H111141   1.777   5.897   0.542
 3732TIP3    H211142   1.713   5.934   0.675
 3733TIP3   OH211143   6.930   0.365   2.465
 3733TIP3    H111144   6.864   0.424   2.501
 3733TIP3    H211145   6.878   0.292   2.429
 3734TIP3   OH211146   1.156   2.423   5.917
 3734TIP3    H111147   1.072   2.467   5.932
 3734TIP3    H211148   1.142   2.373   5.836
 3735TIP3   OH211149   0.668   1.603   1.657
 3735TIP3    H111150   0.596   1.565   1.606
 3735TIP3    H211151   0.736   1.536   1.654
 3736TIP3   OH211152   7.192   0.374   3.848
 3736TIP3    H111153   7.127   0.401   3.913
 3736TIP3    H211154   7.274   0.411   3.879
 3737TIP3   OH211155   4.939   2.002   5.799
 3737TIP3    H111156   4.983   1.918   5.796
 3737TIP3    H211157   4.875   1.993   5.870
 3738TIP3   OH211158   3.171   5.581   0.040
 3738TIP3    H111159   3.109   5.646   0.071
 3738TIP3    H211160   3.151   5.570  -0.053
 3739TIP3   OH211161   4.843   1.884   6.251
 3739TIP3    H111162   4.871   1.899   6.341
 3739TIP3    H211163   4.781   1.812   6.257
 3740TIP3   OH211164   1.995   1.022   2.489
 3740TIP3    H111165   2.028   1.013   2.578
 3740TIP3    H211166   2.031   1.106   2.459
 3741TIP3   OH211167   7.445   6.304   2.410
 3741TIP3    H111168   7.494   6.297   2.491
 3741TIP3    H211169   7.502   6.354   2.351
 3742TIP3   OH211170   0.772   0.718   0.470
 3742TIP3    H111171   0.682   0.697   0.446
 3742TIP3    H211172   0.805   0.638   0.511
 3743TIP3   OH211173   7.959   3.691   1.601
 3743TIP3    H111174   7.897   3.751   1.560
 3743TIP3    H211175   7.969   3.725   1.690
 3744TIP3   OH211176   3.760   5.339   3.190
 3744TIP3    H111177   3.722   5.387   3.116
 3744TIP3    H211178   3.751   5.247   3.165
 3745TIP3   OH211179   0.147   6.662   1.382
 3745TIP3    H111180   0.239   6.678   1.406
 3745TIP3    H211181   0.097   6.695   1.457
 3746TIP3   OH211182   7.841   3.157   5.197
 3746TIP3    H111183   7.770   3.178   5.137
 3746TIP3    H211184   7.833   3.064   5.213
 3747TIP3   OH211185   4.212   1.218   5.720
 3747TIP3    H111186   4.299   1.196   5.686
 3747TIP3    H211187   4.159   1.232   5.641
 3748TIP3   OH211188   6.509   0.348   6.257
 3748TIP3    H111189   6.480   0.264   6.222
 3748TIP3    H211190   6.589   0.328   6.306
 3749TIP3   OH211191   1.926   5.557   3.911
 3749TIP3    H111192   1.924   5.557   4.007
 3749TIP3    H211193   1.864   5.625   3.886
 3750TIP3   OH211194   7.223   5.150   4.638
 3750TIP3    H111195   7.165   5.202   4.693
 3750TIP3    H211196   7.230   5.066   4.684
 3751TIP3   OH211197   8.219   5.809   0.121
 3751TIP3    H111198   8.250   5.745   0.058
 3751TIP3    H211199   8.183   5.880   0.067
 3752TIP3   OH211200   4.082   2.027   5.671
 3752TIP3    H111201   4.092   2.122   5.673
 3752TIP3    H211202   3.991   2.014   5.644
 3753TIP3   OH211203   1.389   5.322   1.219
 3753TIP3    H111204   1.405   5.398   1.276
 3753TIP3    H211205   1.422   5.348   1.134
 3754TIP3   OH211206   4.099   7.152   0.626
 3754TIP3    H111207   4.137   7.233   0.659
 3754TIP3    H211208   4.172   7.090   0.625
 3755TIP3   OH211209   7.574   5.192   6.540
 3755TIP3    H111210   7.654   5.214   6.588
 3755TIP3    H211211   7.511   5.258   6.567
 3756TIP3   OH211212   4.386   5.031   2.916
 3756TIP3    H111213   4.480   5.045   2.923
 3756TIP3    H211214   4.356   5.018   3.006
 3757TIP3   OH211215   7.320   0.882   6.024
 3757TIP3    H111216   7.367   0.964   6.038
 3757TIP3    H211217   7.387   0.814   6.030
 3758TIP3   OH211218   2.313   5.618   1.418
 3758TIP3    H111219   2.378   5.674   1.460
 3758TIP3    H211220   2.356   5.532   1.412
 3759TIP3   OH211221   3.824   2.276   4.446
 3759TIP3    H111222   3.789   2.365   4.450
 3759TIP3    H211223   3.748   2.220   4.463
 3760TIP3   OH211224   5.515   1.739   4.301
 3760TIP3    H111225   5.549   1.651   4.314
 3760TIP3    H211226   5.558   1.791   4.369
 3761TIP3   OH211227   1.883   2.469   1.917
 3761TIP3    H111228   1.820   2.404   1.887
 3761TIP3    H211229   1.946   2.477   1.845
 3762TIP3   OH211230   5.320   7.459   5.120
 3762TIP3    H111231   5.245   7.455   5.180
 3762TIP3    H211232   5.282   7.488   5.037
 3763TIP3   OH211233   1.532   3.333   2.812
 3763TIP3    H111234   1.619   3.298   2.793
 3763TIP3    H211235   1.527   3.335   2.907
 3764TIP3   OH211236   7.290   1.727   3.804
 3764TIP3    H111237   7.349   1.675   3.860
 3764TIP3    H211238   7.295   1.815   3.841
 3765TIP3   OH211239   4.843   2.112   2.044
 3765TIP3    H111240   4.757   2.073   2.060
 3765TIP3    H211241   4.833   2.204   2.069
 3766TIP3   OH211242   7.926   7.834   0.796
 3766TIP3    H111243   7.868   7.839   0.721
 3766TIP3    H211244   7.934   7.741   0.815
 3767TIP3   OH211245   2.710   1.856   6.755
 3767TIP3    H111246   2.622   1.880   6.726
 3767TIP3    H211247   2.764   1.933   6.735
 3768TIP3   OH211248   5.881   7.393   6.304
 3768TIP3    H111249   5.852   7.484   6.309
 3768TIP3    H211250   5.864   7.357   6.392
 3769TIP3   OH211251   7.383   1.543   5.076
 3769TIP3    H111252   7.377   1.466   5.132
 3769TIP3    H211253   7.451   1.521   5.013
 3770TIP3   OH211254   7.552   3.175   5.206
 3770TIP3    H111255   7.525   3.254   5.160
 3770TIP3    H211256   7.529   3.191   5.298
 3771TIP3   OH211257   0.050   4.466   3.747
 3771TIP3    H111258   0.061   4.503   3.835
 3771TIP3    H211259   0.042   4.371   3.762
 3772TIP3   OH211260   4.081   7.640   5.050
 3772TIP3    H111261   4.062   7.701   4.979
 3772TIP3    H211262   4.162   7.597   5.024
 3773TIP3   OH211263   1.086   2.433   5.628
 3773TIP3    H111264   0.998   2.431   5.591
 3773TIP3    H211265   1.110   2.526   5.627
 3774TIP3   OH211266   6.522   6.078   1.006
 3774TIP3    H111267   6.551   6.054   1.094
 3774TIP3    H211268   6.483   5.997   0.972
 3775TIP3   OH211269   2.713   4.729   0.788
 3775TIP3    H111270   2.679   4.807   0.832
 3775TIP3    H211271   2.636   4.673   0.776
 3776TIP3   OH211272   4.101   2.323   5.699
 3776TIP3    H111273   4.081   2.365   5.782
 3776TIP3    H211274   4.187   2.356   5.675
 3777TIP3   OH211275   0.560   1.608   2.014
 3777TIP3    H111276   0.562   1.674   1.944
 3777TIP3    H211277   0.607   1.533   1.977
 3778TIP3   OH211278   3.463   7.216   0.414
 3778TIP3    H111279   3.481   7.243   0.504
 3778TIP3    H211280   3.412   7.136   0.423
 3779TIP3   OH211281   2.644   7.103   5.670
 3779TIP3    H111282   2.613   7.192   5.688
 3779TIP3    H211283   2.740   7.111   5.674
 3780TIP3   OH211284   6.287   4.267   6.789
 3780TIP3    H111285   6.270   4.173   6.780
 3780TIP3    H211286   6.312   4.295   6.701
 3781TIP3   OH211287   1.642   1.242   2.482
 3781TIP3    H111288   1.678   1.179   2.545
 3781TIP3    H211289   1.655   1.201   2.397
 3782TIP3   OH211290   2.891   6.622   5.071
 3782TIP3    H111291   2.913   6.647   4.982
 3782TIP3    H211292   2.895   6.527   5.071
 3783TIP3   OH211293   5.237   2.908   6.528
 3783TIP3    H111294   5.320   2.939   6.564
 3783TIP3    H211295   5.199   2.855   6.598
 3784TIP3   OH211296   1.916   4.859   2.995
 3784TIP3    H111297   1.909   4.931   2.932
 3784TIP3    H211298   1.937   4.782   2.943
 3785TIP3   OH211299   7.771   5.677   6.151
 3785TIP3    H111300   7.731   5.762   6.132
 3785TIP3    H211301   7.816   5.690   6.234
 3786TIP3   OH211302   3.194   2.276   2.679
 3786TIP3    H111303   3.286   2.273   2.653
 3786TIP3    H211304   3.196   2.268   2.774
 3787TIP3   OH211305   1.122   1.464   2.430
 3787TIP3    H111306   1.098   1.523   2.502
 3787TIP3    H211307   1.196   1.414   2.464
 3788TIP3   OH211308   4.882   2.390   2.079
 3788TIP3    H111309   4.879   2.432   2.165
 3788TIP3    H211310   4.960   2.427   2.037
 3789TIP3   OH211311   8.131   0.641   0.665
 3789TIP3    H111312   8.069   0.603   0.603
 3789TIP3    H211313   8.217   0.629   0.623
 3790TIP3   OH211314   3.490   6.372   5.274
 3790TIP3    H111315   3.436   6.312   5.325
 3790TIP3    H211316   3.575   6.329   5.268
 3791TIP3   OH211317   1.976   6.409   1.285
 3791TIP3    H111318   2.048   6.434   1.228
 3791TIP3    H211319   1.988   6.316   1.300
 3792TIP3   OH211320   4.875   2.680   6.354
 3792TIP3    H111321   4.937   2.625   6.401
 3792TIP3    H211322   4.842   2.625   6.283
 3793TIP3   OH211323   2.117   6.803   6.091
 3793TIP3    H111324   2.138   6.894   6.073
 3793TIP3    H211325   2.078   6.770   6.009
 3794TIP3   OH211326   5.297   4.261   2.939
 3794TIP3    H111327   5.367   4.206   2.974
 3794TIP3    H211328   5.217   4.213   2.958
 3795TIP3   OH211329   8.236   6.780   6.531
 3795TIP3    H111330   8.226   6.813   6.441
 3795TIP3    H211331   8.175   6.705   6.536
 3796TIP3   OH211332   5.314   4.392   3.195
 3796TIP3    H111333   5.307   4.388   3.099
 3796TIP3    H211334   5.294   4.303   3.224
 3797TIP3   OH211335   2.890   5.466   6.058
 3797TIP3    H111336   2.956   5.519   6.103
 3797TIP3    H211337   2.807   5.498   6.094
 3798TIP3   OH211338   0.909   2.420   1.343
 3798TIP3    H111339   0.987   2.467   1.371
 3798TIP3    H211340   0.850   2.424   1.418
 3799TIP3   OH211341   2.763   7.448   1.169
 3799TIP3    H111342   2.834   7.394   1.133
 3799TIP3    H211343   2.709   7.469   1.093
 3800TIP3   OH211344   6.822   4.610   4.141
 3800TIP3    H111345   6.896   4.607   4.080
 3800TIP3    H211346   6.745   4.620   4.085
 3801TIP3   OH211347   3.037   6.216   2.930
 3801TIP3    H111348   3.043   6.122   2.941
 3801TIP3    H211349   3.124   6.249   2.954
 3802TIP3   OH211350   5.071   5.132   6.603
 3802TIP3    H111351   5.151   5.128   6.551
 3802TIP3    H211352   5.101   5.144   6.693
 3803TIP3   OH211353   0.575   3.718   3.582
 3803TIP3    H111354   0.632   3.776   3.632
 3803TIP3    H211355   0.523   3.672   3.648
 3804TIP3   OH211356   7.871   5.290   1.921
 3804TIP3    H111357   7.948   5.266   1.870
 3804TIP3    H211358   7.798   5.246   1.877
 3805TIP3   OH211359   3.425   0.606   3.890
 3805TIP3    H111360   3.506   0.642   3.853
 3805TIP3    H211361   3.448   0.516   3.913
 3806TIP3   OH211362   8.072   4.406   2.552
 3806TIP3    H111363   8.132   4.430   2.481
 3806TIP3    H211364   8.128   4.359   2.615
 3807TIP3   OH211365   7.376   0.282   1.187
 3807TIP3    H111366   7.306   0.217   1.178
 3807TIP3    H211367   7.454   0.229   1.202
 3808TIP3   OH211368   3.706   2.233   2.620
 3808TIP3    H111369   3.748   2.235   2.534
 3808TIP3    H211370   3.780   2.228   2.682
 3809TIP3   OH211371   1.507   5.616   6.531
 3809TIP3    H111372   1.569   5.568   6.586
 3809TIP3    H211373   1.478   5.553   6.466
 3810TIP3   OH211374   7.498   5.346   1.704
 3810TIP3    H111375   7.502   5.266   1.758
 3810TIP3    H211376   7.465   5.316   1.620
 3811TIP3   OH211377   5.244   3.087   0.884
 3811TIP3    H111378   5.160   3.042   0.895
 3811TIP3    H211379   5.228   3.155   0.819
 3812TIP3   OH211380   2.995   7.041   5.180
 3812TIP3    H111381   3.012   7.100   5.106
 3812TIP3    H211382   2.920   7.081   5.225
 3813TIP3   OH211383   2.928   5.018   3.482
 3813TIP3    H111384   2.870   4.985   3.550
 3813TIP3    H211385   3.016   5.014   3.520
 3814TIP3   OH211386   7.404   1.914   1.760
 3814TIP3    H111387   7.443   1.986   1.710
 3814TIP3    H211388   7.315   1.906   1.726
 3815TIP3   OH211389   5.050   2.978   2.848
 3815TIP3    H111390   4.978   2.915   2.842
 3815TIP3    H211391   5.091   2.977   2.762
 3816TIP3   OH211392   4.082   0.894   4.850
 3816TIP3    H111393   4.139   0.877   4.775
 3816TIP3    H211394   4.131   0.863   4.926
 3817TIP3   OH211395   8.193   4.989   3.093
 3817TIP3    H111396   8.169   4.996   3.186
 3817TIP3    H211397   8.162   5.071   3.054
 3818TIP3   OH211398   7.247   3.206   6.573
 3818TIP3    H111399   7.163   3.229   6.534
 3818TIP3    H211400   7.227   3.193   6.666
 3819TIP3   OH211401   4.208   3.823   0.484
 3819TIP3    H111402   4.183   3.744   0.435
 3819TIP3    H211403   4.303   3.817   0.491
 3820TIP3   OH211404   0.508   1.692   1.256
 3820TIP3    H111405   0.461   1.627   1.204
 3820TIP3    H211406   0.595   1.654   1.269
 3821TIP3   OH211407   2.542   2.315   0.458
 3821TIP3    H111408   2.482   2.255   0.501
 3821TIP3    H211409   2.562   2.274   0.374
 3822TIP3   OH211410   2.003   4.179   6.025
 3822TIP3    H111411   1.964   4.179   5.937
 3822TIP3    H211412   1.930   4.198   6.084
 3823TIP3   OH211413   4.705   6.804   4.934
 3823TIP3    H111414   4.618   6.836   4.910
 3823TIP3    H211415   4.708   6.715   4.898
 3824TIP3   OH211416   3.517   5.992   5.048
 3824TIP3    H111417   3.541   6.042   4.970
 3824TIP3    H211418   3.593   6.002   5.107
 3825TIP3   OH211419   5.561   2.147   4.986
 3825TIP3    H111420   5.481   2.199   4.973
 3825TIP3    H211421   5.577   2.153   5.081
 3826TIP3   OH211422   2.688   4.888   0.251
 3826TIP3    H111423   2.638   4.807   0.245
 3826TIP3    H211424   2.726   4.900   0.164
 3827TIP3   OH211425   3.556   4.110   6.246
 3827TIP3    H111426   3.483   4.162   6.280
 3827TIP3    H211427   3.634   4.155   6.279
 3828TIP3   OH211428   8.023   4.143   0.221
 3828TIP3    H111429   7.983   4.127   0.135
 3828TIP3    H211430   8.013   4.237   0.235
 3829TIP3   OH211431   5.712   3.816   2.173
 3829TIP3    H111432   5.635   3.798   2.119
 3829TIP3    H211433   5.786   3.785   2.121
 3830TIP3   OH211434   1.086   5.747   3.824
 3830TIP3    H111435   1.084   5.652   3.821
 3830TIP3    H211436   1.043   5.775   3.743
 3831TIP3   OH211437   6.945   5.660   1.063
 3831TIP3    H111438   6.891   5.714   1.005
 3831TIP3    H211439   6.990   5.723   1.120
 3832TIP3   OH211440   6.021   6.352   3.221
 3832TIP3    H111441   6.034   6.441   3.187
 3832TIP3    H211442   6.070   6.350   3.303
 3833TIP3   OH211443   8.121   0.099   5.255
 3833TIP3    H111444   8.154   0.161   5.189
 3833TIP3    H211445   8.200   0.067   5.299
 3834TIP3   OH211446   4.698   5.205   0.554
 3834TIP3    H111447   4.704   5.253   0.637
 3834TIP3    H211448   4.637   5.256   0.501
 3835TIP3   OH211449   1.563   0.041   0.607
 3835TIP3    H111450   1.495   0.109   0.605
 3835TIP3    H211451   1.645   0.090   0.618
 3836TIP3   OH211452   6.254   1.710   4.817
 3836TIP3    H111453   6.328   1.650   4.816
 3836TIP3    H211454   6.283   1.784   4.871
 3837TIP3   OH211455   7.230   2.788   6.116
 3837TIP3    H111456   7.198   2.866   6.070
 3837TIP3    H211457   7.196   2.714   6.064
 3838TIP3   OH211458   2.927   2.406   6.672
 3838TIP3    H111459   2.947   2.375   6.760
 3838TIP3    H211460   2.999   2.464   6.650
 3839TIP3   OH211461   7.262   3.910   0.561
 3839TIP3    H111462   7.229   3.878   0.477
 3839TIP3    H211463   7.258   4.006   0.553
 3840TIP3   OH211464   5.346   0.206   1.937
 3840TIP3    H111465   5.402   0.282   1.956
 3840TIP3    H211466   5.304   0.228   1.854
 3841TIP3   OH211467   7.721   7.353   0.911
 3841TIP3    H111468   7.791   7.359   0.976
 3841TIP3    H211469   7.758   7.390   0.832
 3842TIP3   OH211470   1.467   1.503   0.222
 3842TIP3    H111471   1.519   1.509   0.302
 3842TIP3    H211472   1.494   1.579   0.170
 3843TIP3   OH211473   7.789   2.436   1.951
 3843TIP3    H111474   7.835   2.474   1.876
 3843TIP3    H211475   7.710   2.489   1.961
 3844TIP3   OH211476   4.694   4.850   5.401
 3844TIP3    H111477   4.776   4.895   5.379
 3844TIP3    H211478   4.672   4.881   5.488
 3845TIP3   OH211479   6.730   5.454   6.581
 3845TIP3    H111480   6.640   5.485   6.575
 3845TIP3    H211481   6.728   5.364   6.547
 3846TIP3   OH211482   5.451   5.015   6.202
 3846TIP3    H111483   5.493   4.973   6.277
 3846TIP3    H211484   5.504   5.093   6.186
 3847TIP3   OH211485   4.530   2.131   4.794
 3847TIP3    H111486   4.529   2.151   4.700
 3847TIP3    H211487   4.489   2.045   4.801
 3848TIP3   OH211488   3.550   6.365   6.023
 3848TIP3    H111489   3.575   6.418   5.947
 3848TIP3    H211490   3.456   6.350   6.011
 3849TIP3   OH211491   6.012   5.626   3.494
 3849TIP3    H111492   6.039   5.685   3.423
 3849TIP3    H211493   5.924   5.599   3.469
 3850TIP3   OH211494   6.217   3.201   2.938
 3850TIP3    H111495   6.311   3.195   2.953
 3850TIP3    H211496   6.187   3.110   2.936
 3851TIP3   OH211497   0.790   6.253   0.435
 3851TIP3    H111498   0.875   6.295   0.449
 3851TIP3    H211499   0.773   6.206   0.517
 3852TIP3   OH211500   5.325   7.225   3.146
 3852TIP3    H111501   5.322   7.205   3.239
 3852TIP3    H211502   5.352   7.317   3.142
 3853TIP3   OH211503   1.848   7.177   3.906
 3853TIP3    H111504   1.771   7.132   3.940
 3853TIP3    H211505   1.820   7.268   3.894
 3854TIP3   OH211506   7.994   0.770   3.860
 3854TIP3    H111507   8.011   0.726   3.943
 3854TIP3    H211508   7.952   0.703   3.805
 3855TIP3   OH211509   3.960   1.903   1.072
 3855TIP3    H111510   3.973   1.982   1.124
 3855TIP3    H211511   3.870   1.877   1.090
 3856TIP3   OH211512   2.138   5.744   0.774
 3856TIP3    H111513   2.222   5.784   0.796
 3856TIP3    H211514   2.160   5.653   0.752
 3857TIP3   OH211515   3.129   7.680   2.870
 3857TIP3    H111516   3.150   7.598   2.914
 3857TIP3    H211517   3.101   7.739   2.940
 3858TIP3   OH211518   0.746   2.713   5.991
 3858TIP3    H111519   0.740   2.792   6.044
 3858TIP3    H211520   0.723   2.742   5.903
 3859TIP3   OH211521   6.621   4.462   6.576
 3859TIP3    H111522   6.691   4.423   6.524
 3859TIP3    H211523   6.549   4.398   6.571
 3860TIP3   OH211524   8.012   2.157   5.128
 3860TIP3    H111525   8.064   2.134   5.051
 3860TIP3    H211526   8.033   2.249   5.144
 3861TIP3   OH211527   4.007   4.955   2.116
 3861TIP3    H111528   4.096   4.941   2.084
 3861TIP3    H211529   4.008   5.041   2.156
 3862TIP3   OH211530   1.817   5.521   6.371
 3862TIP3    H111531   1.828   5.547   6.462
 3862TIP3    H211532   1.849   5.431   6.368
 3863TIP3   OH211533   6.417   6.983   3.762
 3863TIP3    H111534   6.492   6.947   3.808
 3863TIP3    H211535   6.354   6.911   3.759
 3864TIP3   OH211536   6.811   2.904   5.038
 3864TIP3    H111537   6.742   2.860   5.088
 3864TIP3    H211538   6.876   2.930   5.104
 3865TIP3   OH211539   2.495   5.156   4.187
 3865TIP3    H111540   2.543   5.116   4.114
 3865TIP3    H211541   2.413   5.108   4.191
 3866TIP3   OH211542   5.776   7.651   2.878
 3866TIP3    H111543   5.807   7.560   2.877
 3866TIP3    H211544   5.823   7.693   2.806
 3867TIP3   OH211545   2.033   4.184   1.927
 3867TIP3    H111546   2.122   4.178   1.960
 3867TIP3    H211547   1.985   4.234   1.993
 3868TIP3   OH211548   3.074   3.190   0.336
 3868TIP3    H111549   3.015   3.249   0.288
 3868TIP3    H211550   3.152   3.185   0.281
 3869TIP3   OH211551   5.365   6.510   4.628
 3869TIP3    H111552   5.410   6.465   4.557
 3869TIP3    H211553   5.433   6.562   4.671
 3870TIP3   OH211554   3.962   7.274   3.972
 3870TIP3    H111555   3.923   7.219   4.040
 3870TIP3    H211556   4.033   7.320   4.017
 3871TIP3   OH211557   0.775   2.824   3.016
 3871TIP3    H111558   0.765   2.914   3.047
 3871TIP3    H211559   0.752   2.771   3.092
 3872TIP3   OH211560   5.474   4.967   4.059
 3872TIP3    H111561   5.488   5.000   4.148
 3872TIP3    H211562   5.498   5.041   4.003
 3873TIP3   OH211563   2.964   0.934   1.888
 3873TIP3    H111564   2.956   0.919   1.983
 3873TIP3    H211565   3.032   0.874   1.859
 3874TIP3   OH211566   7.295   4.338   2.771
 3874TIP3    H111567   7.309   4.351   2.865
 3874TIP3    H211568   7.212   4.381   2.753
 3875TIP3   OH211569   1.690   1.085   2.259
 3875TIP3    H111570   1.741   1.005   2.261
 3875TIP3    H211571   1.736   1.142   2.197
 3876TIP3   OH211572   1.273   3.723   5.264
 3876TIP3    H111573   1.209   3.695   5.199
 3876TIP3    H211574   1.256   3.817   5.276
 3877TIP3   OH211575   2.077   7.610   4.229
 3877TIP3    H111576   2.095   7.555   4.152
 3877TIP3    H211577   2.153   7.599   4.285
 3878TIP3   OH211578   8.259   5.896   6.650
 3878TIP3    H111579   8.172   5.920   6.682
 3878TIP3    H211580   8.308   5.871   6.728
 3879TIP3   OH211581   2.321   3.157   1.036
 3879TIP3    H111582   2.294   3.179   1.125
 3879TIP3    H211583   2.413   3.183   1.031
 3880TIP3   OH211584   5.339   3.920   2.077
 3880TIP3    H111585   5.264   3.875   2.039
 3880TIP3    H211586   5.415   3.879   2.036
 3881TIP3   OH211587   3.109   4.462   3.828
 3881TIP3    H111588   3.192   4.452   3.782
 3881TIP3    H211589   3.105   4.554   3.852
 3882TIP3   OH211590   1.892   2.341   6.639
 3882TIP3    H111591   1.945   2.418   6.660
 3882TIP3    H211592   1.875   2.299   6.723
 3883TIP3   OH211593   7.210  -0.001   6.062
 3883TIP3    H111594   7.237   0.078   6.109
 3883TIP3    H211595   7.155  -0.048   6.125
 3884TIP3   OH211596   7.970   5.794   2.906
 3884TIP3    H111597   7.968   5.705   2.871
 3884TIP3    H211598   8.063   5.812   2.920
 3885TIP3   OH211599   2.556   7.375   0.124
 3885TIP3    H111600   2.461   7.379   0.121
 3885TIP3    H211601   2.581   7.435   0.194
 3886TIP3   OH211602   1.408   5.834   0.848
 3886TIP3    H111603   1.370   5.893   0.912
 3886TIP3    H211604   1.500   5.827   0.872
 3887TIP3   OH211605   4.073   1.100   3.728
 3887TIP3    H111606   3.979   1.108   3.710
 3887TIP3    H211607   4.115   1.109   3.643
 3888TIP3   OH211608   3.384   5.736   6.104
 3888TIP3    H111609   3.386   5.737   6.200
 3888TIP3    H211610   3.407   5.826   6.079
 3889TIP3   OH211611   0.552   3.197   4.372
 3889TIP3    H111612   0.495   3.264   4.335
 3889TIP3    H211613   0.640   3.227   4.352
 3890TIP3   OH211614   5.183   1.136   6.325
 3890TIP3    H111615   5.248   1.177   6.268
 3890TIP3    H211616   5.229   1.122   6.408
 3891TIP3   OH211617   2.798   0.922   4.516
 3891TIP3    H111618   2.790   0.990   4.449
 3891TIP3    H211619   2.735   0.855   4.489
 3892TIP3   OH211620   5.538   5.266   1.574
 3892TIP3    H111621   5.464   5.296   1.628
 3892TIP3    H211622   5.497   5.219   1.501
 3893TIP3   OH211623   1.133   4.402   6.700
 3893TIP3    H111624   1.117   4.465   6.629
 3893TIP3    H211625   1.149   4.319   6.655
 3894TIP3   OH211626   2.423   1.682   4.470
 3894TIP3    H111627   2.462   1.738   4.537
 3894TIP3    H211628   2.460   1.714   4.388
 3895TIP3   OH211629   4.126   1.218   1.098
 3895TIP3    H111630   4.144   1.301   1.142
 3895TIP3    H211631   4.058   1.177   1.152
 3896TIP3   OH211632   2.521   3.603   1.481
 3896TIP3    H111633   2.452   3.537   1.478
 3896TIP3    H211634   2.480   3.680   1.520
 3897TIP3   OH211635   4.876   1.489   0.424
 3897TIP3    H111636   4.967   1.514   0.439
 3897TIP3    H211637   4.879   1.430   0.349
 3898TIP3   OH211638   4.857   5.558   1.111
 3898TIP3    H111639   4.800   5.611   1.056
 3898TIP3    H211640   4.927   5.529   1.053
 3899TIP3   OH211641   7.120   6.154   0.186
 3899TIP3    H111642   7.197   6.129   0.136
 3899TIP3    H211643   7.094   6.238   0.150
 3900TIP3   OH211644   3.874   4.686   0.557
 3900TIP3    H111645   3.900   4.602   0.520
 3900TIP3    H211646   3.929   4.751   0.513
 3901TIP3   OH211647   4.568   0.384   1.850
 3901TIP3    H111648   4.659   0.412   1.838
 3901TIP3    H211649   4.516   0.457   1.817
 3902TIP3   OH211650   4.787   2.648   0.216
 3902TIP3    H111651   4.765   2.697   0.137
 3902TIP3    H211652   4.802   2.559   0.186
 3903TIP3   OH211653   3.395   1.639   1.536
 3903TIP3    H111654   3.316   1.641   1.480
 3903TIP3    H211655   3.397   1.550   1.571
 3904TIP3   OH211656   1.760   7.662   2.764
 3904TIP3    H111657   1.811   7.582   2.755
 3904TIP3    H211658   1.710   7.669   2.683
 3905TIP3   OH211659   3.362   4.012   3.105
 3905TIP3    H111660   3.271   3.995   3.079
 3905TIP3    H211661   3.356   4.084   3.167
 3906TIP3   OH211662   3.637   0.074   0.008
 3906TIP3    H111663   3.640  -0.020   0.024
 3906TIP3    H211664   3.684   0.112   0.082
 3907TIP3   OH211665   0.662   1.103   4.892
 3907TIP3    H111666   0.580   1.083   4.846
 3907TIP3    H211667   0.656   1.056   4.974
 3908TIP3   OH211668   5.883   0.868   5.885
 3908TIP3    H111669   5.954   0.826   5.933
 3908TIP3    H211670   5.813   0.878   5.951
 3909TIP3   OH211671   5.682   7.025   4.448
 3909TIP3    H111672   5.776   7.029   4.430
 3909TIP3    H211673   5.658   7.115   4.471
 3910TIP3   OH211674   3.270   5.270   4.768
 3910TIP3    H111675   3.346   5.306   4.815
 3910TIP3    H211676   3.260   5.181   4.802
 3911TIP3   OH211677   7.905   2.166   3.975
 3911TIP3    H111678   7.934   2.076   3.990
 3911TIP3    H211679   7.827   2.176   4.029
 3912TIP3   OH211680   3.577   4.576   3.556
 3912TIP3    H111681   3.607   4.592   3.466
 3912TIP3    H211682   3.584   4.661   3.599
 3913TIP3   OH211683   2.137   4.716   1.848
 3913TIP3    H111684   2.226   4.706   1.881
 3913TIP3    H211685   2.147   4.766   1.767
 3914TIP3   OH211686   0.753   0.214   3.487
 3914TIP3    H111687   0.706   0.277   3.433
 3914TIP3    H211688   0.687   0.181   3.548
 3915TIP3   OH211689   4.051   1.749   2.638
 3915TIP3    H111690   4.028   1.665   2.599
 3915TIP3    H211691   3.968   1.796   2.646
 3916TIP3   OH211692   8.027   3.177   0.937
 3916TIP3    H111693   8.083   3.201   1.011
 3916TIP3    H211694   7.944   3.151   0.977
 3917TIP3   OH211695   2.747   1.222   0.507
 3917TIP3    H111696   2.773   1.302   0.554
 3917TIP3    H211697   2.656   1.239   0.482
 3918TIP3   OH211698   4.738   0.854   4.671
 3918TIP3    H111699   4.757   0.761   4.683
 3918TIP3    H211700   4.721   0.886   4.759
 3919TIP3   OH211701   7.216   7.019   2.311
 3919TIP3    H111702   7.162   7.095   2.333
 3919TIP3    H211703   7.301   7.038   2.351
 3920TIP3   OH211704   3.860   2.002   5.491
 3920TIP3    H111705   3.916   2.052   5.432
 3920TIP3    H211706   3.773   2.040   5.479
 3921TIP3   OH211707   6.954   7.740   0.399
 3921TIP3    H111708   6.996   7.784   0.472
 3921TIP3    H211709   6.865   7.776   0.397
 3922TIP3   OH211710   7.875   3.980   5.648
 3922TIP3    H111711   7.960   3.996   5.689
 3922TIP3    H211712   7.858   3.887   5.663
 3923TIP3   OH211713   3.561   3.164   6.135
 3923TIP3    H111714   3.502   3.091   6.151
 3923TIP3    H211715   3.627   3.130   6.074
 3924TIP3   OH211716   4.766   0.350   3.280
 3924TIP3    H111717   4.788   0.401   3.359
 3924TIP3    H211718   4.757   0.415   3.211
 3925TIP3   OH211719   6.553   3.960   2.888
 3925TIP3    H111720   6.645   3.970   2.913
 3925TIP3    H211721   6.550   3.990   2.797
 3926TIP3   OH211722   0.305   2.566   1.587
 3926TIP3    H111723   0.347   2.504   1.647
 3926TIP3    H211724   0.376   2.622   1.556
 3927TIP3   OH211725   2.112   1.280   0.834
 3927TIP3    H111726   2.156   1.332   0.767
 3927TIP3    H211727   2.049   1.341   0.873
 3928TIP3   OH211728   7.344   1.514   5.835
 3928TIP3    H111729   7.285   1.560   5.896
 3928TIP3    H211730   7.285   1.464   5.779
 3929TIP3   OH211731   6.108   1.258   2.508
 3929TIP3    H111732   6.184   1.315   2.505
 3929TIP3    H211733   6.127   1.196   2.579
 3930TIP3   OH211734   1.268   3.979   1.934
 3930TIP3    H111735   1.330   3.937   1.993
 3930TIP3    H211736   1.216   4.037   1.991
 3931TIP3   OH211737   1.491   1.922   2.706
 3931TIP3    H111738   1.578   1.889   2.686
 3931TIP3    H211739   1.437   1.896   2.631
 3932TIP3   OH211740   2.917   2.123   3.956
 3932TIP3    H111741   2.833   2.106   3.912
 3932TIP3    H211742   2.959   2.188   3.900
 3933TIP3   OH211743   6.595   1.590   6.212
 3933TIP3    H111744   6.645   1.596   6.131
 3933TIP3    H211745   6.621   1.506   6.250
 3934TIP3   OH211746   4.564   4.862   4.791
 3934TIP3    H111747   4.491   4.884   4.733
 3934TIP3    H211748   4.523   4.823   4.868
 3935TIP3   OH211749   4.026   1.208   0.816
 3935TIP3    H111750   4.059   1.196   0.905
 3935TIP3    H211751   4.035   1.302   0.799
 3936TIP3   OH211752   4.352   3.994   6.678
 3936TIP3    H111753   4.364   3.950   6.762
 3936TIP3    H211754   4.354   4.088   6.699
 3937TIP3   OH211755   7.855   5.532   0.856
 3937TIP3    H111756   7.851   5.513   0.762
 3937TIP3    H211757   7.927   5.477   0.888
 3938TIP3   OH211758   1.437   6.689   2.081
 3938TIP3    H111759   1.414   6.641   2.002
 3938TIP3    H211760   1.424   6.781   2.059
 3939TIP3   OH211761   5.645   0.389   5.310
 3939TIP3    H111762   5.689   0.349   5.235
 3939TIP3    H211763   5.671   0.334   5.384
 3940TIP3   OH211764   0.740   3.491   0.530
 3940TIP3    H111765   0.719   3.561   0.468
 3940TIP3    H211766   0.733   3.532   0.616
 3941TIP3   OH211767   6.144   0.761   1.563
 3941TIP3    H111768   6.094   0.680   1.558
 3941TIP3    H211769   6.231   0.738   1.531
 3942TIP3   OH211770   7.228   6.471   4.901
 3942TIP3    H111771   7.251   6.480   4.994
 3942TIP3    H211772   7.222   6.377   4.887
 3943TIP3   OH211773   1.683   0.436   6.142
 3943TIP3    H111774   1.667   0.368   6.077
 3943TIP3    H211775   1.650   0.516   6.102
 3944TIP3   OH211776   5.986   1.607   4.920
 3944TIP3    H111777   6.064   1.637   4.874
 3944TIP3    H211778   5.914   1.656   4.881
 3945TIP3   OH211779   8.216   5.496   1.343
 3945TIP3    H111780   8.258   5.574   1.307
 3945TIP3    H211781   8.287   5.448   1.385
 3946TIP3   OH211782   3.343   0.277   0.911
 3946TIP3    H111783   3.419   0.325   0.943
 3946TIP3    H211784   3.380   0.219   0.843
 3947TIP3   OH211785   6.221   2.778   1.322
 3947TIP3    H111786   6.296   2.767   1.262
 3947TIP3    H211787   6.147   2.741   1.274
 3948TIP3   OH211788   3.555   5.475   6.685
 3948TIP3    H111789   3.464   5.478   6.655
 3948TIP3    H211790   3.573   5.563   6.718
 3949TIP3   OH211791   5.855   0.979   3.717
 3949TIP3    H111792   5.761   0.997   3.724
 3949TIP3    H211793   5.861   0.884   3.721
 3950TIP3   OH211794   0.944   0.360   0.027
 3950TIP3    H111795   1.035   0.345   0.052
 3950TIP3    H211796   0.900   0.276   0.042
 3951TIP3   OH211797   7.131   5.148   5.438
 3951TIP3    H111798   7.051   5.141   5.490
 3951TIP3    H211799   7.149   5.059   5.408
 3952TIP3   OH211800   7.347   4.331   2.370
 3952TIP3    H111801   7.358   4.383   2.449
 3952TIP3    H211802   7.277   4.375   2.321
 3953TIP3   OH211803   2.793   0.939   5.023
 3953TIP3    H111804   2.880   0.975   5.008
 3953TIP3    H211805   2.792   0.914   5.115
 3954TIP3   OH211806   3.234   6.878   1.836
 3954TIP3    H111807   3.326   6.906   1.840
 3954TIP3    H211808   3.205   6.903   1.748
 3955TIP3   OH211809   7.591   2.792   5.417
 3955TIP3    H111810   7.497   2.789   5.398
 3955TIP3    H211811   7.632   2.794   5.330
 3956TIP3   OH211812   0.584   1.425   5.012
 3956TIP3    H111813   0.576   1.519   4.998
 3956TIP3    H211814   0.638   1.394   4.939
 3957TIP3   OH211815   3.076   1.634   1.637
 3957TIP3    H111816   3.031   1.684   1.704
 3957TIP3    H211817   3.143   1.585   1.685
 3958TIP3   OH211818   2.001   7.385   4.490
 3958TIP3    H111819   1.973   7.407   4.579
 3958TIP3    H211820   2.072   7.446   4.472
 3959TIP3   OH211821   7.226   4.655   4.946
 3959TIP3    H111822   7.278   4.625   5.021
 3959TIP3    H211823   7.249   4.594   4.876
 3960TIP3   OH211824   5.653   2.756   3.738
 3960TIP3    H111825   5.704   2.817   3.792
 3960TIP3    H211826   5.565   2.759   3.776
 3961TIP3   OH211827   4.390   6.389   0.750
 3961TIP3    H111828   4.360   6.441   0.675
 3961TIP3    H211829   4.330   6.314   0.752
 3962TIP3   OH211830   4.004   4.425   3.794
 3962TIP3    H111831   3.993   4.330   3.801
 3962TIP3    H211832   4.039   4.439   3.706
 3963TIP3   OH211833   5.640   1.365   0.445
 3963TIP3    H111834   5.686   1.286   0.416
 3963TIP3    H211835   5.667   1.432   0.381
 3964TIP3   OH211836   6.953   7.087   0.504
 3964TIP3    H111837   6.996   7.142   0.439
 3964TIP3    H211838   7.008   7.008   0.510
 3965TIP3   OH211839   5.006   2.701   1.075
 3965TIP3    H111840   4.939   2.750   1.027
 3965TIP3    H211841   5.079   2.762   1.083
 3966TIP3   OH211842   4.624   4.077   2.918
 3966TIP3    H111843   4.567   4.003   2.942
 3966TIP3    H211844   4.604   4.092   2.825
 3967TIP3   OH211845   5.637   7.298   1.670
 3967TIP3    H111846   5.698   7.230   1.643
 3967TIP3    H211847   5.570   7.252   1.720
 3968TIP3   OH211848   3.178   3.565   4.629
 3968TIP3    H111849   3.235   3.625   4.581
 3968TIP3    H211850   3.231   3.536   4.703
 3969TIP3   OH211851   2.960   4.162   6.292
 3969TIP3    H111852   2.970   4.170   6.197
 3969TIP3    H211853   2.898   4.090   6.303
 3970TIP3   OH211854   7.915   5.051   4.361
 3970TIP3    H111855   7.938   5.144   4.362
 3970TIP3    H211856   7.878   5.035   4.448
 3971TIP3   OH211857   1.878   6.131   2.531
 3971TIP3    H111858   1.974   6.135   2.524
 3971TIP3    H211859   1.852   6.063   2.468
 3972TIP3   OH211860   4.644   7.085   6.568
 3972TIP3    H111861   4.675   7.026   6.499
 3972TIP3    H211862   4.622   7.028   6.641
 3973TIP3   OH211863   7.996   7.465   2.041
 3973TIP3    H111864   8.022   7.376   2.066
 3973TIP3    H211865   8.040   7.521   2.105
 3974TIP3   OH211866   4.915   2.818   3.561
 3974TIP3    H111867   4.881   2.781   3.643
 3974TIP3    H211868   5.000   2.854   3.585
 3975TIP3   OH211869   0.186   3.159   4.107
 3975TIP3    H111870   0.216   3.133   4.194
 3975TIP3    H211871   0.264   3.157   4.052
 3976TIP3   OH211872   3.125   2.888   6.080
 3976TIP3    H111873   3.220   2.893   6.066
 3976TIP3    H211874   3.116   2.838   6.161
 3977TIP3   OH211875   3.182   6.791   3.462
 3977TIP3    H111876   3.160   6.763   3.373
 3977TIP3    H211877   3.131   6.871   3.475
 3978TIP3   OH211878   7.715   7.774   5.892
 3978TIP3    H111879   7.663   7.739   5.819
 3978TIP3    H211880   7.655   7.774   5.966
 3979TIP3   OH211881   5.897   7.680   6.175
 3979TIP3    H111882   5.893   7.738   6.099
 3979TIP3    H211883   5.981   7.634   6.166
 3980TIP3   OH211884   7.038   2.449   4.721
 3980TIP3    H111885   7.058   2.361   4.752
 3980TIP3    H211886   6.983   2.436   4.644
 3981TIP3   OH211887   6.196   0.904   0.169
 3981TIP3    H111888   6.206   0.827   0.112
 3981TIP3    H211889   6.110   0.939   0.147
 3982TIP3   OH211890   3.488   1.258   3.194
 3982TIP3    H111891   3.504   1.327   3.129
 3982TIP3    H211892   3.424   1.297   3.254
 3983TIP3   OH211893   0.133   2.444   0.662
 3983TIP3    H111894   0.210   2.388   0.649
 3983TIP3    H211895   0.065   2.403   0.609
 3984TIP3   OH211896   8.138   3.330   5.537
 3984TIP3    H111897   8.233   3.333   5.525
 3984TIP3    H211898   8.103   3.311   5.450
 3985TIP3   OH211899   3.549   5.281   5.091
 3985TIP3    H111900   3.578   5.254   5.004
 3985TIP3    H211901   3.461   5.316   5.077
 3986TIP3   OH211902   7.555   3.472   5.195
 3986TIP3    H111903   7.624   3.428   5.245
 3986TIP3    H211904   7.600   3.512   5.121
 3987TIP3   OH211905   4.213   5.763   0.249
 3987TIP3    H111906   4.129   5.761   0.294
 3987TIP3    H211907   4.198   5.720   0.165
 3988TIP3   OH211908   1.700   3.737   6.141
 3988TIP3    H111909   1.657   3.712   6.223
 3988TIP3    H211910   1.630   3.774   6.087
 3989TIP3   OH211911   3.842   1.995   3.055
 3989TIP3    H111912   3.916   1.936   3.068
 3989TIP3    H211913   3.834   2.042   3.138
 3990TIP3   OH211914   7.694   0.572   0.593
 3990TIP3    H111915   7.666   0.534   0.676
 3990TIP3    H211916   7.628   0.543   0.530
 3991TIP3   OH211917   6.837   3.020   2.351
 3991TIP3    H111918   6.829   3.107   2.314
 3991TIP3    H211919   6.780   3.022   2.429
 3992TIP3   OH211920   5.670   7.611   0.959
 3992TIP3    H111921   5.668   7.520   0.927
 3992TIP3    H211922   5.634   7.662   0.887
 3993TIP3   OH211923   6.149   2.963   6.249
 3993TIP3    H111924   6.148   2.977   6.155
 3993TIP3    H211925   6.161   3.050   6.286
 3994TIP3   OH211926   0.873   3.405   4.689
 3994TIP3    H111927   0.884   3.492   4.652
 3994TIP3    H211928   0.780   3.387   4.682
 3995TIP3   OH211929   0.820   3.014   0.764
 3995TIP3    H111930   0.835   2.992   0.856
 3995TIP3    H211931   0.908   3.014   0.725
 3996TIP3   OH211932   6.359   1.774   1.212
 3996TIP3    H111933   6.350   1.687   1.251
 3996TIP3    H211934   6.269   1.803   1.197
 3997TIP3   OH211935   6.863   1.361   2.588
 3997TIP3    H111936   6.909   1.406   2.659
 3997TIP3    H211937   6.919   1.286   2.567
 3998TIP3   OH211938   8.293   3.756   2.011
 3998TIP3    H111939   8.230   3.715   2.071
 3998TIP3    H211940   8.277   3.850   2.020
 3999TIP3   OH211941   3.416   0.226   2.713
 3999TIP3    H111942   3.427   0.282   2.790
 3999TIP3    H211943   3.372   0.283   2.650
 4000TIP3   OH211944   2.712   0.909   1.258
 4000TIP3    H111945   2.623   0.942   1.248
 4000TIP3    H211946   2.701   0.817   1.283
 4001TIP3   OH211947   3.525   7.755   5.486
 4001TIP3    H111948   3.499   7.699   5.559
 4001TIP3    H211949   3.458   7.739   5.419
 4002TIP3   OH211950   6.026   0.269   2.159
 4002TIP3    H111951   5.960   0.338   2.160
 4002TIP3    H211952   6.000   0.211   2.231
 4003TIP3   OH211953   2.382   4.128   2.700
 4003TIP3    H111954   2.421   4.078   2.772
 4003TIP3    H211955   2.357   4.062   2.636
 4004TIP3   OH211956   7.584   4.023   5.445
 4004TIP3    H111957   7.655   4.038   5.508
 4004TIP3    H211958   7.519   4.090   5.467
 4005TIP3   OH211959   1.301   2.416   0.906
 4005TIP3    H111960   1.291   2.405   0.811
 4005TIP3    H211961   1.392   2.395   0.924
 4006TIP3   OH211962   6.400   4.242   1.953
 4006TIP3    H111963   6.337   4.176   1.982
 4006TIP3    H211964   6.346   4.318   1.930
 4007TIP3   OH211965   1.728   7.315   2.016
 4007TIP3    H111966   1.673   7.255   1.965
 4007TIP3    H211967   1.707   7.402   1.981
 4008TIP3   OH211968   4.821   6.892   5.787
 4008TIP3    H111969   4.786   6.958   5.728
 4008TIP3    H211970   4.840   6.816   5.731
 4009TIP3   OH211971   1.530   0.637   3.305
 4009TIP3    H111972   1.580   0.666   3.382
 4009TIP3    H211973   1.447   0.684   3.312
 4010TIP3   OH211974   3.135   1.860   6.182
 4010TIP3    H111975   3.200   1.884   6.115
 4010TIP3    H211976   3.072   1.932   6.181
 4011TIP3   OH211977   2.917   1.439   5.293
 4011TIP3    H111978   2.987   1.418   5.232
 4011TIP3    H211979   2.840   1.453   5.238
 4012TIP3   OH211980   3.898   3.235   2.543
 4012TIP3    H111981   3.831   3.245   2.476
 4012TIP3    H211982   3.980   3.228   2.494
 4013TIP3   OH211983   0.938   6.064   3.141
 4013TIP3    H111984   0.996   6.007   3.191
 4013TIP3    H211985   0.987   6.083   3.061
 4014TIP3   OH211986   6.565   3.931   4.010
 4014TIP3    H111987   6.563   4.025   3.993
 4014TIP3    H211988   6.600   3.924   4.099
 4015TIP3   OH211989   1.703   0.761   6.228
 4015TIP3    H111990   1.635   0.727   6.169
 4015TIP3    H211991   1.775   0.699   6.219
 4016TIP3   OH211992   1.009   5.111   0.344
 4016TIP3    H111993   1.031   5.020   0.365
 4016TIP3    H211994   1.031   5.120   0.251
 4017TIP3   OH211995   6.853   7.471   1.709
 4017TIP3    H111996   6.805   7.552   1.691
 4017TIP3    H211997   6.879   7.439   1.622
 4018TIP3   OH211998   6.805   7.095   4.838
 4018TIP3    H111999   6.832   7.147   4.914
 4018TIP3    H212000   6.878   7.035   4.822
 4019TIP3   OH212001   2.246   7.492   5.799
 4019TIP3    H112002   2.154   7.487   5.771
 4019TIP3    H212003   2.243   7.470   5.892
 4020TIP3   OH212004   5.192   2.373   0.623
 4020TIP3    H112005   5.206   2.285   0.589
 4020TIP3    H212006   5.275   2.419   0.608
 4021TIP3   OH212007   1.372   1.791   2.479
 4021TIP3    H112008   1.278   1.807   2.490
 4021TIP3    H212009   1.377   1.707   2.434
 4022TIP3   OH212010   8.106   1.044   4.215
 4022TIP3    H112011   8.152   1.009   4.138
 4022TIP3    H212012   8.013   1.038   4.192
 4023TIP3   OH212013   7.591   6.290   2.655
 4023TIP3    H112014   7.571   6.226   2.723
 4023TIP3    H212015   7.627   6.366   2.702
 4024TIP3   OH212016   4.615   0.144   2.538
 4024TIP3    H112017   4.564   0.142   2.457
 4024TIP3    H212018   4.690   0.087   2.521
 4025TIP3   OH212019   7.181   5.652   0.810
 4025TIP3    H112020   7.242   5.631   0.880
 4025TIP3    H212021   7.235   5.690   0.741
 4026TIP3   OH212022   6.318   6.002   0.785
 4026TIP3    H112023   6.237   6.052   0.789
 4026TIP3    H212024   6.378   6.058   0.736
 4027TIP3   OH212025   3.278   5.106   6.272
 4027TIP3    H112026   3.319   5.164   6.335
 4027TIP3    H212027   3.341   5.034   6.261
 4028TIP3   OH212028   3.483   5.941   4.085
 4028TIP3    H112029   3.478   5.850   4.115
 4028TIP3    H212030   3.411   5.950   4.023
 4029TIP3   OH212031   5.357   6.688   0.581
 4029TIP3    H112032   5.370   6.770   0.532
 4029TIP3    H212033   5.444   6.648   0.582
 4030TIP3   OH212034   7.968   4.391   3.176
 4030TIP3    H112035   7.907   4.447   3.128
 4030TIP3    H212036   8.039   4.449   3.202
 4031TIP3   OH212037   5.840   1.389   3.168
 4031TIP3    H112038   5.920   1.390   3.221
 4031TIP3    H212039   5.849   1.462   3.108
 4032TIP3   OH212040   0.497   3.538   6.031
 4032TIP3    H112041   0.435   3.509   5.963
 4032TIP3    H212042   0.547   3.459   6.053
 4033TIP3   OH212043   0.768   4.365   5.265
 4033TIP3    H112044   0.834   4.311   5.307
 4033TIP3    H212045   0.698   4.373   5.329
 4034TIP3   OH212046   5.668   1.524   4.073
 4034TIP3    H112047   5.742   1.580   4.096
 4034TIP3    H212048   5.623   1.509   4.156
 4035TIP3   OH212049   6.311   0.562   1.810
 4035TIP3    H112050   6.394   0.559   1.762
 4035TIP3    H212051   6.319   0.640   1.865
 4036TIP3   OH212052   0.328   3.741   3.290
 4036TIP3    H112053   0.390   3.811   3.310
 4036TIP3    H212054   0.368   3.663   3.329
 4037TIP3   OH212055   1.844   4.905   5.188
 4037TIP3    H112056   1.933   4.940   5.178
 4037TIP3    H212057   1.812   4.895   5.098
 4038TIP3   OH212058   1.807   0.119   6.308
 4038TIP3    H112059   1.801   0.186   6.377
 4038TIP3    H212060   1.900   0.096   6.305
 4039TIP3   OH212061   5.750   5.456   2.153
 4039TIP3    H112062   5.768   5.539   2.110
 4039TIP3    H212063   5.800   5.391   2.103
 4040TIP3   OH212064   4.630   2.447   6.293
 4040TIP3    H112065   4.707   2.453   6.236
 4040TIP3    H212066   4.563   2.404   6.239
 4041TIP3   OH212067   4.435   6.696   1.594
 4041TIP3    H112068   4.411   6.630   1.530
 4041TIP3    H212069   4.520   6.729   1.564
 4042TIP3   OH212070   3.796   6.699   3.203
 4042TIP3    H112071   3.868   6.715   3.142
 4042TIP3    H212072   3.753   6.784   3.212
 4043TIP3   OH212073   6.344   3.765   4.143
 4043TIP3    H112074   6.304   3.701   4.084
 4043TIP3    H212075   6.418   3.801   4.093
 4044TIP3   OH212076   3.522   4.476   4.908
 4044TIP3    H112077   3.570   4.440   4.983
 4044TIP3    H212078   3.453   4.413   4.891
 4045TIP3   OH212079   2.325   4.430   4.274
 4045TIP3    H112080   2.339   4.412   4.181
 4045TIP3    H212081   2.241   4.388   4.294
 4046TIP3   OH212082   6.753   7.270   0.360
 4046TIP3    H112083   6.818   7.330   0.399
 4046TIP3    H212084   6.806   7.205   0.314
 4047TIP3   OH212085   0.995   3.903   3.906
 4047TIP3    H112086   0.993   3.999   3.901
 4047TIP3    H212087   1.050   3.876   3.833
 4048TIP3   OH212088   3.509   0.870   1.952
 4048TIP3    H112089   3.601   0.879   1.975
 4048TIP3    H212090   3.507   0.805   1.883
 4049TIP3   OH212091   6.783   0.270   4.672
 4049TIP3    H112092   6.737   0.252   4.590
 4049TIP3    H212093   6.714   0.283   4.737
 4050TIP3   OH212094   2.767   4.313   4.173
 4050TIP3    H112095   2.755   4.255   4.098
 4050TIP3    H212096   2.736   4.399   4.143
 4051TIP3   OH212097   6.390   4.193   3.289
 4051TIP3    H112098   6.447   4.244   3.347
 4051TIP3    H212099   6.350   4.128   3.346
 4052TIP3   OH212100   2.553   3.800   3.559
 4052TIP3    H112101   2.573   3.760   3.475
 4052TIP3    H212102   2.505   3.733   3.608
 4053TIP3   OH212103   5.600   4.890   0.806
 4053TIP3    H112104   5.544   4.875   0.730
 4053TIP3    H212105   5.632   4.804   0.830
 4054TIP3   OH212106   7.689   0.847   2.383
 4054TIP3    H112107   7.606   0.883   2.413
 4054TIP3    H212108   7.678   0.837   2.289
 4055TIP3   OH212109   3.082   5.529   0.571
 4055TIP3    H112110   3.045   5.607   0.613
 4055TIP3    H212111   3.029   5.516   0.493
 4056TIP3   OH212112   7.544   0.088   5.816
 4056TIP3    H112113   7.584   0.030   5.751
 4056TIP3    H212114   7.563   0.177   5.784
 4057TIP3   OH212115   3.999   0.594   0.377
 4057TIP3    H112116   3.929   0.631   0.324
 4057TIP3    H212117   4.008   0.655   0.451
 4058TIP3   OH212118   4.833   6.469   4.572
 4058TIP3    H112119   4.807   6.542   4.628
 4058TIP3    H212120   4.928   6.470   4.573
 4059TIP3   OH212121   3.527   1.517   2.483
 4059TIP3    H112122   3.524   1.421   2.489
 4059TIP3    H212123   3.495   1.536   2.395
 4060TIP3   OH212124   2.504   2.197   5.202
 4060TIP3    H112125   2.591   2.158   5.195
 4060TIP3    H212126   2.519   2.281   5.245
 4061TIP3   OH212127   3.198   2.119   6.652
 4061TIP3    H112128   3.125   2.068   6.686
 4061TIP3    H212129   3.274   2.062   6.665
 4062TIP3   OH212130   3.819   6.077   0.179
 4062TIP3    H112131   3.758   6.003   0.183
 4062TIP3    H212132   3.837   6.098   0.270
 4063TIP3   OH212133   3.826   6.913   1.453
 4063TIP3    H112134   3.866   6.985   1.501
 4063TIP3    H212135   3.735   6.941   1.440
 4064TIP3   OH212136   4.993   3.088   5.671
 4064TIP3    H112137   5.031   3.075   5.584
 4064TIP3    H212138   5.065   3.072   5.732
 4065TIP3   OH212139   6.058   2.693   3.317
 4065TIP3    H112140   5.999   2.750   3.267
 4065TIP3    H212141   6.012   2.609   3.322
 4066TIP3   OH212142   1.934   0.510   3.151
 4066TIP3    H112143   1.973   0.535   3.067
 4066TIP3    H212144   1.962   0.578   3.211
 4067TIP3   OH212145   5.513   0.565   3.646
 4067TIP3    H112146   5.504   0.614   3.564
 4067TIP3    H212147   5.433   0.514   3.652
 4068TIP3   OH212148   3.515   1.822   5.097
 4068TIP3    H112149   3.525   1.872   5.016
 4068TIP3    H212150   3.541   1.733   5.073
 4069TIP3   OH212151   3.159   5.416   3.984
 4069TIP3    H112152   3.244   5.390   4.019
 4069TIP3    H212153   3.164   5.512   3.979
 4070TIP3   OH212154   6.191   2.048   4.565
 4070TIP3    H112155   6.262   1.984   4.571
 4070TIP3    H212156   6.154   2.034   4.478
 4071TIP3   OH212157   8.111   0.889   0.809
 4071TIP3    H112158   8.112   0.937   0.727
 4071TIP3    H212159   8.108   0.797   0.783
 4072TIP3   OH212160   1.323   7.140   5.169
 4072TIP3    H112161   1.388   7.209   5.179
 4072TIP3    H212162   1.281   7.134   5.255
 4073TIP3   OH212163   6.008   2.662   4.287
 4073TIP3    H112164   6.054   2.621   4.215
 4073TIP3    H212165   5.917   2.669   4.257
 4074TIP3   OH212166   5.973   6.634   0.923
 4074TIP3    H112167   5.937   6.558   0.878
 4074TIP3    H212168   6.037   6.671   0.862
 4075TIP3   OH212169   6.200   3.230   4.942
 4075TIP3    H112170   6.161   3.143   4.953
 4075TIP3    H212171   6.293   3.212   4.931
 4076TIP3   OH212172   6.403   0.187   4.307
 4076TIP3    H112173   6.382   0.205   4.215
 4076TIP3    H212174   6.339   0.238   4.356
 4077TIP3   OH212175   1.602   5.857   5.119
 4077TIP3    H112176   1.657   5.872   5.196
 4077TIP3    H212177   1.664   5.832   5.050
 4078TIP3   OH212178   4.759   4.232   5.310
 4078TIP3    H112179   4.848   4.241   5.276
 4078TIP3    H212180   4.764   4.269   5.398
 4079TIP3   OH212181   0.259   5.896   5.375
 4079TIP3    H112182   0.339   5.892   5.322
 4079TIP3    H212183   0.226   5.806   5.375
 4080TIP3   OH212184   8.146   5.341   6.647
 4080TIP3    H112185   8.170   5.264   6.698
 4080TIP3    H212186   8.064   5.317   6.604
 4081TIP3   OH212187   4.126   5.151   6.520
 4081TIP3    H112188   4.132   5.106   6.435
 4081TIP3    H212189   4.061   5.101   6.569
 4082TIP3   OH212190   0.874   6.197   1.514
 4082TIP3    H112191   0.809   6.134   1.483
 4082TIP3    H212192   0.936   6.144   1.564
 4083TIP3   OH212193   7.320   1.194   5.945
 4083TIP3    H112194   7.323   1.118   5.887
 4083TIP3    H212195   7.230   1.225   5.939
 4084TIP3   OH212196   0.819   4.587   5.499
 4084TIP3    H112197   0.767   4.529   5.553
 4084TIP3    H212198   0.762   4.609   5.425
 4085TIP3   OH212199   4.021   0.223   1.120
 4085TIP3    H112200   3.998   0.314   1.136
 4085TIP3    H212201   4.108   0.226   1.080
 4086TIP3   OH212202   1.553   3.350   5.398
 4086TIP3    H112203   1.559   3.255   5.413
 4086TIP3    H212204   1.500   3.358   5.319
 4087TIP3   OH212205   5.868   0.948   0.304
 4087TIP3    H112206   5.950   0.997   0.306
 4087TIP3    H212207   5.835   0.953   0.394
 4088TIP3   OH212208   4.354   3.796   2.629
 4088TIP3    H112209   4.318   3.708   2.616
 4088TIP3    H212210   4.399   3.815   2.546
 4089TIP3   OH212211   3.628   2.498   5.747
 4089TIP3    H112212   3.692   2.428   5.734
 4089TIP3    H212213   3.673   2.577   5.719
 4090TIP3   OH212214   5.206   2.871   5.109
 4090TIP3    H112215   5.241   2.787   5.081
 4090TIP3    H212216   5.150   2.850   5.184
 4091TIP3   OH212217   7.166   4.093   0.930
 4091TIP3    H112218   7.100   4.081   0.862
 4091TIP3    H212219   7.134   4.042   1.004
 4092TIP3   OH212220   6.071   1.758   4.588
 4092TIP3    H112221   6.032   1.844   4.604
 4092TIP3    H212222   6.088   1.722   4.675
 4093TIP3   OH212223   2.051   0.463   3.730
 4093TIP3    H112224   2.044   0.369   3.744
 4093TIP3    H212225   2.000   0.479   3.651
 4094TIP3   OH212226   1.556   1.695   4.281
 4094TIP3    H112227   1.528   1.624   4.338
 4094TIP3    H212228   1.509   1.680   4.199
 4095TIP3   OH212229   2.729   2.023   5.171
 4095TIP3    H112230   2.776   1.951   5.128
 4095TIP3    H212231   2.796   2.090   5.186
 4096TIP3   OH212232   0.331   7.335   2.152
 4096TIP3    H112233   0.303   7.251   2.188
 4096TIP3    H212234   0.309   7.330   2.059
 4097TIP3   OH212235   5.370   5.259   0.485
 4097TIP3    H112236   5.441   5.277   0.548
 4097TIP3    H212237   5.290   5.263   0.538
 4098TIP3   OH212238   5.196   4.820   2.281
 4098TIP3    H112239   5.289   4.843   2.272
 4098TIP3    H212240   5.177   4.830   2.374
 4099TIP3   OH212241   5.470   4.502   5.408
 4099TIP3    H112242   5.393   4.540   5.450
 4099TIP3    H212243   5.484   4.419   5.454
 4100TIP3   OH212244   4.880   7.239   2.983
 4100TIP3    H112245   4.819   7.177   2.945
 4100TIP3    H212246   4.965   7.213   2.948
 4101TIP3   OH212247   6.746   3.840   1.031
 4101TIP3    H112248   6.693   3.795   0.965
 4101TIP3    H212249   6.750   3.780   1.105
 4102TIP3   OH212250   8.309   4.654   1.497
 4102TIP3    H112251   8.331   4.659   1.590
 4102TIP3    H212252   8.216   4.631   1.495
 4103TIP3   OH212253   5.085   3.921   6.446
 4103TIP3    H112254   5.135   3.841   6.431
 4103TIP3    H212255   5.137   3.990   6.406
 4104TIP3   OH212256   7.089   4.093   5.328
 4104TIP3    H112257   7.107   4.177   5.369
 4104TIP3    H212258   7.142   4.030   5.376
 4105TIP3   OH212259   2.926   1.464   4.934
 4105TIP3    H112260   3.013   1.441   4.967
 4105TIP3    H212261   2.871   1.469   5.012
 4106TIP3   OH212262   8.103   6.021   4.630
 4106TIP3    H112263   8.161   5.973   4.689
 4106TIP3    H212264   8.125   6.113   4.643
 4107TIP3   OH212265   1.559   2.533   4.820
 4107TIP3    H112266   1.523   2.460   4.770
 4107TIP3    H212267   1.524   2.611   4.776
 4108TIP3   OH212268   4.142   6.607   3.201
 4108TIP3    H112269   4.192   6.597   3.120
 4108TIP3    H212270   4.165   6.530   3.253
 4109TIP3   OH212271   2.848   1.186   6.475
 4109TIP3    H112272   2.760   1.218   6.496
 4109TIP3    H212273   2.893   1.262   6.439
 4110TIP3   OH212274   3.339   6.909   5.396
 4110TIP3    H112275   3.389   6.907   5.315
 4110TIP3    H212276   3.287   6.828   5.395
 4111TIP3   OH212277   4.907   3.968   5.439
 4111TIP3    H112278   4.837   4.028   5.467
 4111TIP3    H212279   4.935   3.924   5.520
 4112TIP3   OH212280   6.273   1.457   3.522
 4112TIP3    H112281   6.332   1.509   3.577
 4112TIP3    H212282   6.193   1.448   3.574
 4113TIP3   OH212283   1.027   4.387   4.035
 4113TIP3    H112284   1.064   4.332   3.966
 4113TIP3    H212285   0.985   4.326   4.095
 4114TIP3   OH212286   8.077   3.552   4.977
 4114TIP3    H112287   8.001   3.553   5.035
 4114TIP3    H212288   8.138   3.614   5.017
 4115TIP3   OH212289   6.114   1.858   1.711
 4115TIP3    H112290   6.184   1.847   1.775
 4115TIP3    H212291   6.048   1.910   1.757
 4116TIP3   OH212292   7.165   0.128   2.957
 4116TIP3    H112293   7.221   0.146   3.032
 4116TIP3    H212294   7.206   0.053   2.914
 4117TIP3   OH212295   2.271   6.174   4.523
 4117TIP3    H112296   2.349   6.152   4.472
 4117TIP3    H212297   2.250   6.264   4.497
 4118TIP3   OH212298   1.055   3.955   0.140
 4118TIP3    H112299   1.128   4.017   0.148
 4118TIP3    H212300   1.035   3.930   0.230
 4119TIP3   OH212301   2.914   3.404   5.185
 4119TIP3    H112302   2.875   3.488   5.163
 4119TIP3    H212303   2.855   3.366   5.251
 4120TIP3   OH212304   5.799   2.719   4.070
 4120TIP3    H112305   5.822   2.670   3.991
 4120TIP3    H212306   5.746   2.792   4.039
 4121TIP3   OH212307   3.808   3.797   0.402
 4121TIP3    H112308   3.765   3.877   0.371
 4121TIP3    H212309   3.888   3.791   0.350
 4122TIP3   OH212310   4.312   7.149   4.596
 4122TIP3    H112311   4.382   7.200   4.554
 4122TIP3    H212312   4.331   7.058   4.573
 4123TIP3   OH212313   1.419   5.501   4.900
 4123TIP3    H112314   1.434   5.431   4.837
 4123TIP3    H212315   1.502   5.510   4.946
 4124TIP3   OH212316   3.960   1.138   3.214
 4124TIP3    H112317   3.953   1.120   3.120
 4124TIP3    H212318   4.038   1.091   3.242
 4125TIP3   OH212319   8.180   3.713   6.133
 4125TIP3    H112320   8.088   3.691   6.146
 4125TIP3    H212321   8.214   3.643   6.079
 4126TIP3   OH212322   8.228   6.692   0.977
 4126TIP3    H112323   8.217   6.649   0.892
 4126TIP3    H212324   8.138   6.713   1.005
 4127TIP3   OH212325   6.310   3.235   4.067
 4127TIP3    H112326   6.219   3.220   4.091
 4127TIP3    H212327   6.359   3.166   4.112
 4128TIP3   OH212328   2.925   4.899   2.764
 4128TIP3    H112329   2.947   4.987   2.795
 4128TIP3    H212330   2.987   4.881   2.693
 4129TIP3   OH212331   4.278   1.091   4.697
 4129TIP3    H112332   4.268   1.023   4.631
 4129TIP3    H212333   4.334   1.052   4.765
 4130TIP3   OH212334   1.159   0.315   2.496
 4130TIP3    H112335   1.122   0.239   2.452
 4130TIP3    H212336   1.250   0.291   2.515
 4131TIP3   OH212337   4.238   1.887   1.167
 4131TIP3    H112338   4.242   1.901   1.262
 4131TIP3    H212339   4.146   1.899   1.144
 4132TIP3   OH212340   6.170   6.624   0.629
 4132TIP3    H112341   6.158   6.704   0.578
 4132TIP3    H212342   6.255   6.636   0.673
 4133TIP3   OH212343   6.003   4.058   3.287
 4133TIP3    H112344   5.944   4.077   3.359
 4133TIP3    H212345   6.068   3.999   3.324
 4134TIP3   OH212346   4.055   6.704   0.790
 4134TIP3    H112347   3.973   6.658   0.771
 4134TIP3    H212348   4.105   6.699   0.709
 4135TIP3   OH212349   4.353   1.099   4.344
 4135TIP3    H112350   4.361   1.194   4.337
 4135TIP3    H212351   4.329   1.070   4.257
 4136TIP3   OH212352   3.089   2.351   3.862
 4136TIP3    H112353   3.128   2.416   3.920
 4136TIP3    H212354   3.141   2.356   3.782
 4137TIP3   OH212355   2.969   0.965   1.218
 4137TIP3    H112356   2.978   0.874   1.243
 4137TIP3    H212357   2.877   0.986   1.234
 4138TIP3   OH212358   2.191   6.373   6.443
 4138TIP3    H112359   2.126   6.434   6.477
 4138TIP3    H212360   2.141   6.314   6.385
 4139TIP3   OH212361   0.843   2.669   2.786
 4139TIP3    H112362   0.825   2.588   2.832
 4139TIP3    H212363   0.832   2.737   2.852
 4140TIP3   OH212364   4.337   5.593   2.314
 4140TIP3    H112365   4.370   5.643   2.389
 4140TIP3    H212366   4.346   5.652   2.239
 4141TIP3   OH212367   1.776   2.927   4.834
 4141TIP3    H112368   1.821   2.903   4.753
 4141TIP3    H212369   1.689   2.888   4.825
 4142TIP3   OH212370   0.021   2.186   5.035
 4142TIP3    H112371   0.035   2.250   5.105
 4142TIP3    H212372   0.001   2.239   4.958
 4143TIP3   OH212373   2.069   5.095   4.410
 4143TIP3    H112374   2.085   5.048   4.329
 4143TIP3    H212375   2.023   5.174   4.383
 4144TIP3   OH212376   4.927   0.756   4.928
 4144TIP3    H112377   4.836   0.783   4.939
 4144TIP3    H212378   4.950   0.714   5.011
 4145TIP3   OH212379   2.920   2.073   2.888
 4145TIP3    H112380   3.014   2.055   2.892
 4145TIP3    H212381   2.881   1.989   2.863
 4146TIP3   OH212382   3.996   2.793   2.610
 4146TIP3    H112383   4.075   2.775   2.662
 4146TIP3    H212384   3.963   2.876   2.645
 4147TIP3   OH212385   1.943   4.411   6.354
 4147TIP3    H112386   1.935   4.498   6.392
 4147TIP3    H212387   2.032   4.383   6.376
 4148TIP3   OH212388   6.079   0.503   1.963
 4148TIP3    H112389   6.150   0.529   1.904
 4148TIP3    H212390   6.099   0.547   2.046
 4149TIP3   OH212391   4.039   2.910   3.607
 4149TIP3    H112392   4.089   2.966   3.666
 4149TIP3    H212393   3.957   2.956   3.593
 4150TIP3   OH212394   6.661   4.710   2.015
 4150TIP3    H112395   6.745   4.686   1.975
 4150TIP3    H212396   6.684   4.741   2.103
 4151TIP3   OH212397   7.791   5.407   5.027
 4151TIP3    H112398   7.808   5.375   4.938
 4151TIP3    H212399   7.863   5.468   5.044
 4152TIP3   OH212400   4.101   1.579   0.049
 4152TIP3    H112401   4.049   1.573  -0.031
 4152TIP3    H212402   4.065   1.654   0.096
 4153TIP3   OH212403   0.413   4.799   5.460
 4153TIP3    H112404   0.423   4.861   5.533
 4153TIP3    H212405   0.348   4.839   5.403
 4154TIP3   OH212406   7.154   1.582   2.914
 4154TIP3    H112407   7.086   1.516   2.930
 4154TIP3    H212408   7.106   1.657   2.878
 4155TIP3   OH212409   0.375   4.298   1.925
 4155TIP3    H112410   0.449   4.358   1.915
 4155TIP3    H212411   0.414   4.215   1.953
 4156TIP3   OH212412   5.752   4.576   5.491
 4156TIP3    H112413   5.680   4.615   5.540
 4156TIP3    H212414   5.815   4.646   5.480
 4157TIP3   OH212415   1.334   2.063   0.272
 4157TIP3    H112416   1.289   2.124   0.214
 4157TIP3    H212417   1.269   1.996   0.293
 4158TIP3   OH212418   1.631   2.833   6.526
 4158TIP3    H112419   1.570   2.830   6.453
 4158TIP3    H212420   1.656   2.926   6.534
 4159TIP3   OH212421   4.346   6.037   5.560
 4159TIP3    H112422   4.430   6.041   5.605
 4159TIP3    H212423   4.282   6.063   5.626
 4160TIP3   OH212424   6.793   2.202   0.396
 4160TIP3    H112425   6.842   2.266   0.448
 4160TIP3    H212426   6.763   2.137   0.459
 4161TIP3   OH212427   6.651   2.436   2.620
 4161TIP3    H112428   6.689   2.471   2.540
 4161TIP3    H212429   6.701   2.478   2.690
 4162TIP3   OH212430   0.962   7.572   3.715
 4162TIP3    H112431   1.017   7.597   3.641
 4162TIP3    H212432   0.974   7.478   3.724
 4163TIP3   OH212433   6.711   6.408   4.187
 4163TIP3    H112434   6.778   6.466   4.223
 4163TIP3    H212435   6.662   6.377   4.263
 4164TIP3   OH212436   1.975   4.933   6.042
 4164TIP3    H112437   1.988   4.958   6.134
 4164TIP3    H212438   2.044   4.981   5.995
 4165TIP3   OH212439   1.845   2.913   3.391
 4165TIP3    H112440   1.854   2.820   3.415
 4165TIP3    H212441   1.856   2.914   3.296
 4166TIP3   OH212442   6.598   2.161   1.430
 4166TIP3    H112443   6.605   2.079   1.479
 4166TIP3    H212444   6.541   2.140   1.356
 4167TIP3   OH212445   3.872   6.676   1.325
 4167TIP3    H112446   3.842   6.759   1.362
 4167TIP3    H212447   3.950   6.698   1.275
 4168TIP3   OH212448   0.684   5.318   3.816
 4168TIP3    H112449   0.704   5.360   3.900
 4168TIP3    H212450   0.647   5.233   3.839
 4169TIP3   OH212451   4.344   3.881   5.967
 4169TIP3    H112452   4.350   3.860   6.060
 4169TIP3    H212453   4.427   3.922   5.945
 4170TIP3   OH212454   3.337   5.494   0.689
 4170TIP3    H112455   3.264   5.547   0.657
 4170TIP3    H212456   3.361   5.439   0.614
 4171TIP3   OH212457   6.713   5.197   6.494
 4171TIP3    H112458   6.666   5.127   6.538
 4171TIP3    H212459   6.770   5.153   6.432
 4172TIP3   OH212460   4.287   2.016   0.455
 4172TIP3    H112461   4.192   2.028   0.459
 4172TIP3    H212462   4.314   2.008   0.546
 4173TIP3   OH212463   0.781   6.165   4.822
 4173TIP3    H112464   0.793   6.071   4.804
 4173TIP3    H212465   0.851   6.186   4.884
 4174TIP3   OH212466   4.960   1.277   6.378
 4174TIP3    H112467   4.923   1.243   6.459
 4174TIP3    H212468   5.035   1.221   6.360
 4175TIP3   OH212469   1.516   6.669   6.293
 4175TIP3    H112470   1.424   6.652   6.311
 4175TIP3    H212471   1.546   6.593   6.244
 4176TIP3   OH212472   1.176   1.301   5.081
 4176TIP3    H112473   1.161   1.389   5.114
 4176TIP3    H212474   1.100   1.251   5.110
 4177TIP3   OH212475   6.923   1.852   5.215
 4177TIP3    H112476   6.935   1.770   5.167
 4177TIP3    H212477   6.845   1.837   5.269
 4178TIP3   OH212478   3.860   6.500   3.763
 4178TIP3    H112479   3.844   6.562   3.692
 4178TIP3    H212480   3.795   6.431   3.749
 4179TIP3   OH212481   0.793   4.286   3.800
 4179TIP3    H112482   0.888   4.275   3.808
 4179TIP3    H212483   0.759   4.261   3.886
 4180TIP3   OH212484   4.786   6.449   4.224
 4180TIP3    H112485   4.837   6.474   4.302
 4180TIP3    H212486   4.851   6.413   4.164
 4181TIP3   OH212487   1.531   3.634   1.762
 4181TIP3    H112488   1.557   3.542   1.770
 4181TIP3    H212489   1.614   3.682   1.761
 4182TIP3   OH212490   2.723   5.110   4.869
 4182TIP3    H112491   2.699   5.158   4.948
 4182TIP3    H212492   2.659   5.140   4.803
 4183TIP3   OH212493   0.990   5.490   3.789
 4183TIP3    H112494   0.966   5.425   3.855
 4183TIP3    H212495   1.008   5.438   3.711
 4184TIP3   OH212496   0.249   0.844   1.199
 4184TIP3    H112497   0.322   0.784   1.182
 4184TIP3    H212498   0.183   0.822   1.133
 4185TIP3   OH212499   0.212   2.404   1.381
 4185TIP3    H112500   0.135   2.450   1.346
 4185TIP3    H212501   0.251   2.466   1.442
 4186TIP3   OH212502   7.115   5.741   1.757
 4186TIP3    H112503   7.192   5.698   1.721
 4186TIP3    H212504   7.142   5.769   1.845
 4187TIP3   OH212505   0.444   2.420   2.080
 4187TIP3    H112506   0.354   2.440   2.106
 4187TIP3    H212507   0.462   2.334   2.119
 4188TIP3   OH212508   7.621   0.141   4.851
 4188TIP3    H112509   7.605   0.222   4.900
 4188TIP3    H212510   7.693   0.099   4.898
 4189TIP3   OH212511   5.921   6.064   3.655
 4189TIP3    H112512   5.957   6.078   3.742
 4189TIP3    H212513   5.996   6.074   3.596
 4190TIP3   OH212514   0.730   7.508   3.852
 4190TIP3    H112515   0.788   7.539   3.783
 4190TIP3    H212516   0.645   7.547   3.831
 4191TIP3   OH212517   1.075   2.453   1.695
 4191TIP3    H112518   1.111   2.376   1.651
 4191TIP3    H212519   1.146   2.517   1.692
 4192TIP3   OH212520   1.975   5.813   4.702
 4192TIP3    H112521   1.971   5.740   4.763
 4192TIP3    H212522   1.908   5.874   4.733
 4193TIP3   OH212523   7.184   4.344   3.140
 4193TIP3    H112524   7.253   4.292   3.182
 4193TIP3    H212525   7.128   4.372   3.212
 4194TIP3   OH212526   1.705   6.501   1.668
 4194TIP3    H112527   1.794   6.495   1.632
 4194TIP3    H212528   1.674   6.588   1.641
 4195TIP3   OH212529   1.863   7.069   2.176
 4195TIP3    H112530   1.796   7.126   2.138
 4195TIP3    H212531   1.860   7.086   2.270
 4196TIP3   OH212532   6.043   4.517   2.255
 4196TIP3    H112533   6.044   4.516   2.159
 4196TIP3    H212534   5.975   4.581   2.277
 4197TIP3   OH212535   6.315   4.510   4.178
 4197TIP3    H112536   6.409   4.495   4.191
 4197TIP3    H212537   6.304   4.511   4.083
 4198TIP3   OH212538   2.317   1.311   2.626
 4198TIP3    H112539   2.242   1.327   2.683
 4198TIP3    H212540   2.373   1.388   2.638
 4199TIP3   OH212541   6.068   4.703   3.294
 4199TIP3    H112542   6.075   4.679   3.202
 4199TIP3    H212543   6.094   4.624   3.342
 4200TIP3   OH212544   4.549   1.932   0.312
 4200TIP3    H112545   4.562   1.991   0.386
 4200TIP3    H212546   4.582   1.847   0.342
 4201TIP3   OH212547   7.951   6.787   1.040
 4201TIP3    H112548   7.953   6.875   1.002
 4201TIP3    H212549   7.919   6.731   0.970
 4202TIP3   OH212550   4.673   4.210   3.705
 4202TIP3    H112551   4.720   4.167   3.776
 4202TIP3    H212552   4.597   4.155   3.689
 4203TIP3   OH212553   1.735   2.605   5.428
 4203TIP3    H112554   1.725   2.531   5.368
 4203TIP3    H212555   1.794   2.573   5.496
 4204TIP3   OH212556   3.918   1.934   1.499
 4204TIP3    H112557   3.919   1.842   1.526
 4204TIP3    H212558   3.943   1.982   1.578
 4205TIP3   OH212559   0.769   5.701   3.382
 4205TIP3    H112560   0.861   5.678   3.367
 4205TIP3    H212561   0.721   5.619   3.368
 4206TIP3   OH212562   7.900   3.365   6.570
 4206TIP3    H112563   7.923   3.454   6.543
 4206TIP3    H212564   7.811   3.372   6.603
 4207TIP3   OH212565   2.249   0.593   2.493
 4207TIP3    H112566   2.157   0.610   2.515
 4207TIP3    H212567   2.244   0.522   2.428
 4208TIP3   OH212568   0.303   0.736   6.717
 4208TIP3    H112569   0.300   0.686   6.635
 4208TIP3    H212570   0.240   0.807   6.703
 4209TIP3   OH212571   3.493   3.017   1.788
 4209TIP3    H112572   3.460   3.091   1.736
 4209TIP3    H212573   3.422   2.998   1.849
 4210TIP3   OH212574   3.701   4.213   3.055
 4210TIP3    H112575   3.754   4.143   3.094
 4210TIP3    H212576   3.725   4.213   2.963
 4211TIP3   OH212577   4.358   5.641   2.886
 4211TIP3    H112578   4.312   5.672   2.964
 4211TIP3    H212579   4.372   5.720   2.834
 4212TIP3   OH212580   0.487   3.940   4.225
 4212TIP3    H112581   0.397   3.912   4.210
 4212TIP3    H212582   0.515   3.981   4.142
 4213TIP3   OH212583   3.063   2.847   0.733
 4213TIP3    H112584   3.084   2.938   0.711
 4213TIP3    H212585   3.052   2.804   0.648
 4214TIP3   OH212586   4.298   3.137   5.838
 4214TIP3    H112587   4.310   3.116   5.931
 4214TIP3    H212588   4.357   3.077   5.792
 4215TIP3   OH212589   0.003   5.423   5.037
 4215TIP3    H112590   0.046   5.339   5.050
 4215TIP3    H212591   0.069   5.488   5.060
 4216TIP3   OH212592   0.727   6.108   2.947
 4216TIP3    H112593   0.780   6.108   3.027
 4216TIP3    H212594   0.728   6.017   2.918
 4217TIP3   OH212595   6.890   6.665   0.862
 4217TIP3    H112596   6.946   6.614   0.922
 4217TIP3    H212597   6.884   6.611   0.783
 4218TIP3   OH212598   5.752   7.535   1.225
 4218TIP3    H112599   5.703   7.573   1.152
 4218TIP3    H212600   5.786   7.453   1.191
 4219TIP3   OH212601   1.104   5.060   5.587
 4219TIP3    H112602   1.042   5.060   5.513
 4219TIP3    H212603   1.120   4.967   5.605
 4220TIP3   OH212604   3.447   3.257   0.667
 4220TIP3    H112605   3.412   3.268   0.578
 4220TIP3    H212606   3.369   3.258   0.723
 4221TIP3   OH212607   4.473   5.784   6.700
 4221TIP3    H112608   4.518   5.866   6.679
 4221TIP3    H212609   4.479   5.778   6.795
 4222TIP3   OH212610   7.985   0.749   5.798
 4222TIP3    H112611   7.944   0.792   5.723
 4222TIP3    H212612   7.916   0.746   5.864
 4223TIP3   OH212613   1.819   3.607   0.624
 4223TIP3    H112614   1.800   3.601   0.718
 4223TIP3    H212615   1.912   3.588   0.617
 4224TIP3   OH212616   0.699   5.668   5.147
 4224TIP3    H112617   0.642   5.732   5.187
 4224TIP3    H212618   0.784   5.680   5.190
 4225TIP3   OH212619   8.120   6.430   1.896
 4225TIP3    H112620   8.094   6.515   1.862
 4225TIP3    H212621   8.142   6.378   1.818
 4226TIP3   OH212622   5.433   4.458   4.468
 4226TIP3    H112623   5.448   4.543   4.426
 4226TIP3    H212624   5.381   4.478   4.546
 4227TIP3   OH212625   3.170   1.268   2.929
 4227TIP3    H112626   3.120   1.309   3.000
 4227TIP3    H212627   3.254   1.247   2.968
 4228TIP3   OH212628   0.588   2.993   4.574
 4228TIP3    H112629   0.584   2.927   4.505
 4228TIP3    H212630   0.589   3.077   4.527
 4229TIP3   OH212631   2.710   0.650   0.375
 4229TIP3    H112632   2.776   0.719   0.368
 4229TIP3    H212633   2.753   0.581   0.426
 4230TIP3   OH212634   4.974   4.734   4.421
 4230TIP3    H112635   4.897   4.699   4.466
 4230TIP3    H212636   4.944   4.751   4.331
 4231TIP3   OH212637   7.019   1.822   3.973
 4231TIP3    H112638   7.101   1.800   3.930
 4231TIP3    H212639   6.953   1.820   3.904
 4232TIP3   OH212640   0.059   3.275   0.234
 4232TIP3    H112641  -0.001   3.347   0.256
 4232TIP3    H212642   0.029   3.245   0.148
 4233TIP3   OH212643   0.408   5.621   4.993
 4233TIP3    H112644   0.316   5.631   5.020
 4233TIP3    H212645   0.448   5.572   5.064
 4234TIP3   OH212646   4.878   1.652   1.035
 4234TIP3    H112647   4.835   1.625   0.954
 4234TIP3    H212648   4.889   1.571   1.085
 4235TIP3   OH212649   0.792   1.081   2.596
 4235TIP3    H112650   0.871   1.134   2.608
 4235TIP3    H212651   0.770   1.090   2.503
 4236TIP3   OH212652   1.979   4.257   5.135
 4236TIP3    H112653   1.981   4.310   5.215
 4236TIP3    H212654   2.063   4.211   5.135
 4237TIP3   OH212655   4.945   5.021   5.993
 4237TIP3    H112656   4.960   5.072   5.913
 4237TIP3    H212657   5.033   5.003   6.026
 4238TIP3   OH212658   1.574   3.704   0.136
 4238TIP3    H112659   1.491   3.741   0.106
 4238TIP3    H212660   1.558   3.676   0.226
 4239TIP3   OH212661   1.853   1.399   3.510
 4239TIP3    H112662   1.924   1.399   3.446
 4239TIP3    H212663   1.887   1.348   3.584
 4240TIP3   OH212664   5.998   2.637   4.575
 4240TIP3    H112665   5.976   2.545   4.586
 4240TIP3    H212666   5.977   2.656   4.484
 4241TIP3   OH212667   0.620   5.590   1.991
 4241TIP3    H112668   0.591   5.675   2.026
 4241TIP3    H212669   0.705   5.576   2.032
 4242TIP3   OH212670   6.573   4.712   1.015
 4242TIP3    H112671   6.666   4.724   1.035
 4242TIP3    H212672   6.571   4.666   0.931
 4243TIP3   OH212673   1.596   3.315   0.143
 4243TIP3    H112674   1.691   3.325   0.139
 4243TIP3    H212675   1.570   3.295   0.053
 4244TIP3   OH212676   1.207   5.446   5.080
 4244TIP3    H112677   1.136   5.478   5.025
 4244TIP3    H212678   1.283   5.444   5.022
 4245TIP3   OH212679   5.731   6.435   6.701
 4245TIP3    H112680   5.766   6.358   6.657
 4245TIP3    H212681   5.673   6.400   6.769
 4246TIP3   OH212682   3.162   5.011   0.200
 4246TIP3    H112683   3.185   4.952   0.271
 4246TIP3    H212684   3.199   4.970   0.121
 4247TIP3   OH212685   0.342   5.449   1.849
 4247TIP3    H112686   0.396   5.519   1.812
 4247TIP3    H212687   0.262   5.492   1.877
 4248TIP3   OH212688   7.370   4.972   1.374
 4248TIP3    H112689   7.465   4.975   1.378
 4248TIP3    H212690   7.350   4.909   1.305
 4249TIP3   OH212691   4.545   1.526   5.576
 4249TIP3    H112692   4.606   1.579   5.524
 4249TIP3    H212693   4.460   1.568   5.562
 4250TIP3   OH212694   1.458   2.942   2.808
 4250TIP3    H112695   1.394   2.958   2.877
 4250TIP3    H212696   1.540   2.923   2.855
 4251TIP3   OH212697   5.384   3.264   1.509
 4251TIP3    H112698   5.432   3.275   1.591
 4251TIP3    H212699   5.437   3.202   1.459
 4252TIP3   OH212700   7.411   2.664   1.566
 4252TIP3    H112701   7.370   2.678   1.481
 4252TIP3    H212702   7.371   2.729   1.624
 4253TIP3   OH212703   4.891   4.567   2.256
 4253TIP3    H112704   4.818   4.515   2.290
 4253TIP3    H212705   4.959   4.502   2.237
 4254TIP3   OH212706   5.870   2.356   4.771
 4254TIP3    H112707   5.781   2.378   4.742
 4254TIP3    H212708   5.897   2.431   4.824
 4255TIP3   OH212709   5.208   2.142   0.490
 4255TIP3    H112710   5.265   2.148   0.413
 4255TIP3    H212711   5.122   2.120   0.454
 4256TIP3   OH212712   7.133   0.316   6.390
 4256TIP3    H112713   7.134   0.304   6.295
 4256TIP3    H212714   7.153   0.408   6.403
 4257TIP3   OH212715   4.695   4.388   5.510
 4257TIP3    H112716   4.611   4.428   5.533
 4257TIP3    H212717   4.755   4.462   5.500
 4258TIP3   OH212718   7.423   4.994   6.449
 4258TIP3    H112719   7.494   5.048   6.482
 4258TIP3    H212720   7.352   5.005   6.513
 4259TIP3   OH212721   4.517   5.854   4.572
 4259TIP3    H112722   4.511   5.865   4.667
 4259TIP3    H212723   4.542   5.762   4.561
 4260TIP3   OH212724   2.821   6.044   1.662
 4260TIP3    H112725   2.766   6.074   1.590
 4260TIP3    H212726   2.769   6.062   1.741
 4261TIP3   OH212727   0.175   1.482   2.784
 4261TIP3    H112728   0.124   1.436   2.718
 4261TIP3    H212729   0.257   1.505   2.740
 4262TIP3   OH212730   6.704   4.290   2.772
 4262TIP3    H112731   6.787   4.272   2.729
 4262TIP3    H212732   6.642   4.229   2.732
 4263TIP3   OH212733   7.031   2.524   3.947
 4263TIP3    H112734   7.055   2.443   3.901
 4263TIP3    H212735   6.936   2.527   3.942
 4264TIP3   OH212736   5.429   0.193   0.707
 4264TIP3    H112737   5.337   0.221   0.712
 4264TIP3    H212738   5.463   0.236   0.628
 4265TIP3   OH212739   5.156   0.236   0.816
 4265TIP3    H112740   5.114   0.322   0.818
 4265TIP3    H212741   5.110   0.188   0.748
 4266TIP3   OH212742   4.909   7.484   1.105
 4266TIP3    H112743   4.834   7.428   1.085
 4266TIP3    H212744   4.937   7.457   1.192
 4267TIP3   OH212745   7.398   5.754   1.584
 4267TIP3    H112746   7.387   5.832   1.530
 4267TIP3    H212747   7.359   5.683   1.532
 4268TIP3   OH212748   4.221   1.432   3.931
 4268TIP3    H112749   4.300   1.457   3.883
 4268TIP3    H212750   4.158   1.501   3.912
 4269TIP3   OH212751   3.025   4.430   4.867
 4269TIP3    H112752   3.008   4.517   4.902
 4269TIP3    H212753   3.032   4.444   4.772
 4270TIP3   OH212754   1.214   6.512   2.365
 4270TIP3    H112755   1.202   6.491   2.457
 4270TIP3    H212756   1.296   6.470   2.340
 4271TIP3   OH212757   2.819   0.377   2.693
 4271TIP3    H112758   2.751   0.438   2.665
 4271TIP3    H212759   2.889   0.433   2.726
 4272TIP3   OH212760   0.896   5.216   2.271
 4272TIP3    H112761   0.919   5.203   2.179
 4272TIP3    H212762   0.806   5.248   2.270
 4273TIP3   OH212763   6.510   5.492   6.093
 4273TIP3    H112764   6.493   5.425   6.026
 4273TIP3    H212765   6.548   5.443   6.166
 4274TIP3   OH212766   2.221   4.018   1.301
 4274TIP3    H112767   2.247   4.005   1.392
 4274TIP3    H212768   2.246   4.109   1.282
 4275TIP3   OH212769   5.532   2.967   4.781
 4275TIP3    H112770   5.527   3.052   4.824
 4275TIP3    H212771   5.507   2.984   4.690
 4276TIP3   OH212772   0.680   1.626   5.756
 4276TIP3    H112773   0.671   1.592   5.845
 4276TIP3    H212774   0.742   1.567   5.714
 4277TIP3   OH212775   8.163   6.885   6.289
 4277TIP3    H112776   8.079   6.912   6.253
 4277TIP3    H212777   8.226   6.945   6.249
 4278TIP3   OH212778   6.646   1.487   3.400
 4278TIP3    H112779   6.709   1.497   3.470
 4278TIP3    H212780   6.599   1.570   3.398
 4279TIP3   OH212781   2.774   7.525   3.892
 4279TIP3    H112782   2.766   7.616   3.860
 4279TIP3    H212783   2.687   7.487   3.878
 4280TIP3   OH212784   8.140   3.833   2.835
 4280TIP3    H112785   8.093   3.916   2.842
 4280TIP3    H212786   8.225   3.849   2.875
 4281TIP3   OH212787   5.595   3.778   1.302
 4281TIP3    H112788   5.667   3.830   1.267
 4281TIP3    H212789   5.589   3.804   1.394
 4282TIP3   OH212790   8.026   7.773   4.858
 4282TIP3    H112791   8.069   7.690   4.878
 4282TIP3    H212792   7.933   7.757   4.876
 4283TIP3   OH212793   5.531   1.092   6.450
 4283TIP3    H112794   5.464   1.118   6.514
 4283TIP3    H212795   5.483   1.086   6.367
 4284TIP3   OH212796   6.574   1.053   3.228
 4284TIP3    H112797   6.527   1.093   3.301
 4284TIP3    H212798   6.511   1.050   3.157
 4285TIP3   OH212799   3.382   2.268   5.577
 4285TIP3    H112800   3.338   2.184   5.572
 4285TIP3    H212801   3.475   2.246   5.571
 4286TIP3   OH212802   6.543   0.864   3.489
 4286TIP3    H112803   6.621   0.888   3.439
 4286TIP3    H212804   6.577   0.839   3.575
 4287TIP3   OH212805   5.627   6.318   0.834
 4287TIP3    H112806   5.537   6.337   0.860
 4287TIP3    H212807   5.664   6.271   0.909
 4288TIP3   OH212808   0.654   5.491   4.900
 4288TIP3    H112809   0.685   5.559   4.841
 4288TIP3    H212810   0.602   5.538   4.965
 4289TIP3   OH212811   1.150   1.950   1.379
 4289TIP3    H112812   1.115   2.033   1.412
 4289TIP3    H212813   1.116   1.943   1.290
 4290TIP3   OH212814   7.068   5.966   0.501
 4290TIP3    H112815   7.014   6.043   0.520
 4290TIP3    H212816   7.038   5.899   0.563
 4291TIP3   OH212817   2.971   4.317   1.276
 4291TIP3    H112818   3.020   4.331   1.358
 4291TIP3    H212819   3.038   4.296   1.211
 4292TIP3   OH212820   1.163   0.043   6.394
 4292TIP3    H112821   1.217  -0.025   6.435
 4292TIP3    H212822   1.207   0.125   6.414
 4293TIP3   OH212823   7.510   0.988   1.661
 4293TIP3    H112824   7.424   1.028   1.677
 4293TIP3    H212825   7.558   1.053   1.611
 4294TIP3   OH212826   6.226   4.420   4.510
 4294TIP3    H112827   6.216   4.456   4.598
 4294TIP3    H212828   6.208   4.493   4.451
 4295TIP3   OH212829   7.972   3.037   3.618
 4295TIP3    H112830   8.008   2.951   3.637
 4295TIP3    H212831   7.879   3.021   3.603
 4296TIP3   OH212832   7.757   7.673   2.813
 4296TIP3    H112833   7.798   7.756   2.839
 4296TIP3    H212834   7.805   7.647   2.735
 4297TIP3   OH212835   4.464   3.515   1.726
 4297TIP3    H112836   4.400   3.576   1.762
 4297TIP3    H212837   4.542   3.569   1.710
 4298TIP3   OH212838   1.748   0.669   3.486
 4298TIP3    H112839   1.771   0.730   3.556
 4298TIP3    H212840   1.810   0.598   3.494
 4299TIP3   OH212841   8.126   3.184   4.761
 4299TIP3    H112842   8.168   3.238   4.694
 4299TIP3    H212843   8.193   3.122   4.787
 4300TIP3   OH212844   0.134   0.858   3.264
 4300TIP3    H112845   0.126   0.763   3.261
 4300TIP3    H212846   0.195   0.874   3.337
 4301TIP3   OH212847   4.847   1.889   2.898
 4301TIP3    H112848   4.919   1.842   2.857
 4301TIP3    H212849   4.780   1.897   2.830
 4302TIP3   OH212850   3.250   4.294   2.931
 4302TIP3    H112851   3.221   4.208   2.901
 4302TIP3    H212852   3.170   4.346   2.936
 4303TIP3   OH212853   7.373   3.426   6.306
 4303TIP3    H112854   7.381   3.429   6.401
 4303TIP3    H212855   7.287   3.466   6.288
 4304TIP3   OH212856   5.481   0.445   6.007
 4304TIP3    H112857   5.491   0.430   6.101
 4304TIP3    H212858   5.412   0.385   5.979
 4305TIP3   OH212859   1.395   5.231   4.818
 4305TIP3    H112860   1.470   5.187   4.859
 4305TIP3    H212861   1.348   5.160   4.774
 4306TIP3   OH212862   1.402   1.979   6.729
 4306TIP3    H112863   1.457   2.037   6.782
 4306TIP3    H212864   1.408   2.014   6.640
 4307TIP3   OH212865   3.383   4.961   2.219
 4307TIP3    H112866   3.328   4.883   2.225
 4307TIP3    H212867   3.369   4.993   2.129
 4308TIP3   OH212868   1.162   2.550   6.165
 4308TIP3    H112869   1.237   2.531   6.220
 4308TIP3    H212870   1.179   2.503   6.084
 4309TIP3   OH212871   7.205   6.158   4.360
 4309TIP3    H112872   7.243   6.246   4.354
 4309TIP3    H212873   7.280   6.099   4.364
 4310TIP3   OH212874   4.367   4.324   4.959
 4310TIP3    H112875   4.276   4.305   4.934
 4310TIP3    H212876   4.359   4.366   5.045
 4311TIP3   OH212877   7.589   5.200   0.471
 4311TIP3    H112878   7.524   5.269   0.484
 4311TIP3    H212879   7.623   5.182   0.559
 4312TIP3   OH212880   5.419   2.342   6.436
 4312TIP3    H112881   5.403   2.430   6.470
 4312TIP3    H212882   5.488   2.307   6.492
 4313TIP3   OH212883   0.733   7.070   6.011
 4313TIP3    H112884   0.801   7.044   6.073
 4313TIP3    H212885   0.712   7.160   6.034
 4314TIP3   OH212886   0.498   2.113   5.305
 4314TIP3    H112887   0.433   2.181   5.321
 4314TIP3    H212888   0.492   2.095   5.211
 4315TIP3   OH212889   5.403   3.661   5.041
 4315TIP3    H112890   5.462   3.735   5.056
 4315TIP3    H212891   5.457   3.596   4.997
 4316TIP3   OH212892   5.169   6.222   5.060
 4316TIP3    H112893   5.076   6.217   5.037
 4316TIP3    H212894   5.187   6.141   5.108
 4317TIP3   OH212895   6.966   1.047   4.025
 4317TIP3    H112896   6.933   0.968   3.982
 4317TIP3    H212897   7.059   1.029   4.040
 4318TIP3   OH212898   1.447   7.067   3.658
 4318TIP3    H112899   1.531   7.030   3.630
 4318TIP3    H212900   1.437   7.147   3.606
 4319TIP3   OH212901   8.090   0.370   1.781
 4319TIP3    H112902   8.130   0.445   1.737
 4319TIP3    H212903   8.131   0.369   1.868
 4320TIP3   OH212904   5.680   4.481   3.985
 4320TIP3    H112905   5.716   4.468   3.898
 4320TIP3    H212906   5.735   4.549   4.024
 4321TIP3   OH212907   7.812   7.739   5.222
 4321TIP3    H112908   7.764   7.711   5.300
 4321TIP3    H212909   7.873   7.668   5.204
 4322TIP3   OH212910   2.381   0.991   3.584
 4322TIP3    H112911   2.379   1.032   3.497
 4322TIP3    H212912   2.291   0.996   3.615
 4323TIP3   OH212913   2.598   4.150   2.058
 4323TIP3    H112914   2.616   4.062   2.025
 4323TIP3    H212915   2.681   4.197   2.047
 4324TIP3   OH212916   4.139   0.733   5.856
 4324TIP3    H112917   4.151   0.797   5.926
 4324TIP3    H212918   4.051   0.697   5.870
 4325TIP3   OH212919   0.221   0.829   5.658
 4325TIP3    H112920   0.266   0.876   5.588
 4325TIP3    H212921   0.272   0.750   5.671
 4326TIP3   OH212922   0.208   4.510   6.134
 4326TIP3    H112923   0.295   4.484   6.166
 4326TIP3    H212924   0.154   4.432   6.146
 4327TIP3   OH212925   7.999   5.220   2.307
 4327TIP3    H112926   8.061   5.284   2.272
 4327TIP3    H212927   7.920   5.234   2.255
 4328TIP3   OH212928   2.601   5.167   6.593
 4328TIP3    H112929   2.593   5.248   6.643
 4328TIP3    H212930   2.695   5.154   6.583
 4329TIP3   OH212931   2.203   4.596   3.386
 4329TIP3    H112932   2.290   4.564   3.362
 4329TIP3    H212933   2.221   4.672   3.441
 4330TIP3   OH212934   4.433   5.033   4.345
 4330TIP3    H112935   4.403   5.121   4.371
 4330TIP3    H212936   4.528   5.042   4.336
 4331TIP3   OH212937   5.898   5.475   0.405
 4331TIP3    H112938   5.894   5.411   0.476
 4331TIP3    H212939   5.985   5.515   0.414
 4332TIP3   OH212940   0.432   1.101   3.561
 4332TIP3    H112941   0.373   1.166   3.525
 4332TIP3    H212942   0.444   1.125   3.653
 4333TIP3   OH212943   2.692   5.448   4.730
 4333TIP3    H112944   2.637   5.398   4.669
 4333TIP3    H212945   2.701   5.534   4.688
 4334TIP3   OH212946   5.609   0.803   5.155
 4334TIP3    H112947   5.634   0.895   5.166
 4334TIP3    H212948   5.670   0.755   5.212
 4335TIP3   OH212949   5.260   6.892   6.430
 4335TIP3    H112950   5.195   6.942   6.480
 4335TIP3    H212951   5.249   6.802   6.460
 4336TIP3   OH212952   1.755   2.927   3.944
 4336TIP3    H112953   1.666   2.936   3.911
 4336TIP3    H212954   1.786   2.844   3.909
 4337TIP3   OH212955   6.480   3.668   1.991
 4337TIP3    H112956   6.431   3.743   1.958
 4337TIP3    H212957   6.481   3.605   1.919
 4338TIP3   OH212958   8.075   5.847   3.561
 4338TIP3    H112959   8.106   5.816   3.646
 4338TIP3    H212960   8.124   5.928   3.546
 4339TIP3   OH212961   3.782   2.347   1.052
 4339TIP3    H112962   3.739   2.318   1.133
 4339TIP3    H212963   3.717   2.333   0.984
 4340TIP3   OH212964   7.443   3.938   0.897
 4340TIP3    H112965   7.394   3.963   0.975
 4340TIP3    H212966   7.448   4.017   0.844
 4341TIP3   OH212967   4.893   2.642   4.802
 4341TIP3    H112968   4.893   2.717   4.742
 4341TIP3    H212969   4.864   2.569   4.748
 4342TIP3   OH212970   1.090   7.044   2.970
 4342TIP3    H112971   1.149   6.989   3.021
 4342TIP3    H212972   1.148   7.096   2.914
 4343TIP3   OH212973   3.143   7.207   2.601
 4343TIP3    H112974   3.103   7.177   2.520
 4343TIP3    H212975   3.236   7.186   2.591
 4344TIP3   OH212976   5.232   2.753   4.596
 4344TIP3    H112977   5.220   2.731   4.689
 4344TIP3    H212978   5.201   2.676   4.549
 4345TIP3   OH212979   0.220   2.271   1.916
 4345TIP3    H112980   0.182   2.249   1.830
 4345TIP3    H212981   0.307   2.305   1.895
 4346TIP3   OH212982   6.478   6.881   1.984
 4346TIP3    H112983   6.412   6.813   1.998
 4346TIP3    H212984   6.449   6.954   2.039
 4347TIP3   OH212985   1.349   2.137   5.770
 4347TIP3    H112986   1.261   2.118   5.804
 4347TIP3    H212987   1.333   2.169   5.681
 4348TIP3   OH212988   6.640   4.761   1.658
 4348TIP3    H112989   6.571   4.792   1.600
 4348TIP3    H212990   6.632   4.665   1.656
 4349TIP3   OH212991   4.289   2.943   6.316
 4349TIP3    H112992   4.311   3.015   6.258
 4349TIP3    H212993   4.370   2.890   6.320
 4350TIP3   OH212994   4.480   0.066   2.313
 4350TIP3    H112995   4.543   0.030   2.252
 4350TIP3    H212996   4.417   0.112   2.258
 4351TIP3   OH212997   5.611   2.411   4.692
 4351TIP3    H112998   5.563   2.462   4.758
 4351TIP3    H212999   5.550   2.344   4.663
 4352TIP3   OH213000   7.217   4.692   6.492
 4352TIP3    H113001   7.298   4.730   6.527
 4352TIP3    H213002   7.148   4.725   6.550
 4353TIP3   OH213003   6.222   7.086   6.306
 4353TIP3    H113004   6.288   7.155   6.313
 4353TIP3    H213005   6.158   7.107   6.374
 4354TIP3   OH213006   7.717   3.795   6.029
 4354TIP3    H113007   7.651   3.726   6.035
 4354TIP3    H213008   7.668   3.876   6.043
 4355TIP3   OH213009   2.269   4.050   0.800
 4355TIP3    H113010   2.362   4.054   0.822
 4355TIP3    H213011   2.233   4.132   0.833
 4356TIP3   OH213012   0.160   7.713   3.137
 4356TIP3    H113013   0.215   7.768   3.192
 4356TIP3    H213014   0.112   7.657   3.199
 4357TIP3   OH213015   2.435   6.414   1.864
 4357TIP3    H113016   2.475   6.490   1.823
 4357TIP3    H213017   2.349   6.407   1.824
 4358TIP3   OH213018   4.459   6.835   2.618
 4358TIP3    H113019   4.403   6.895   2.667
 4358TIP3    H213020   4.471   6.760   2.677
 4359TIP3   OH213021   0.879   2.481   5.963
 4359TIP3    H113022   0.840   2.567   5.979
 4359TIP3    H213023   0.830   2.446   5.890
 4360TIP3   OH213024   6.524   6.506   0.528
 4360TIP3    H113025   6.528   6.586   0.477
 4360TIP3    H213026   6.450   6.457   0.491
 4361TIP3   OH213027   4.121   1.228   6.000
 4361TIP3    H113028   4.150   1.313   6.032
 4361TIP3    H213029   4.153   1.225   5.910
 4362TIP3   OH213030   1.314   6.346   5.459
 4362TIP3    H113031   1.305   6.286   5.533
 4362TIP3    H213032   1.374   6.302   5.399
 4363TIP3   OH213033   2.688   3.846   1.702
 4363TIP3    H113034   2.778   3.871   1.682
 4363TIP3    H213035   2.675   3.875   1.793
 4364TIP3   OH213036   5.893   6.921   2.175
 4364TIP3    H113037   5.895   6.833   2.138
 4364TIP3    H213038   5.808   6.956   2.149
 4365TIP3   OH213039   6.790   2.870   6.699
 4365TIP3    H113040   6.834   2.863   6.783
 4365TIP3    H213041   6.859   2.854   6.634
 4366TIP3   OH213042   3.682   7.558   3.037
 4366TIP3    H113043   3.683   7.635   2.980
 4366TIP3    H213044   3.673   7.594   3.125
 4367TIP3   OH213045   6.343   6.699   1.647
 4367TIP3    H113046   6.376   6.694   1.557
 4367TIP3    H213047   6.330   6.793   1.662
 4368TIP3   OH213048   3.821   2.578   3.489
 4368TIP3    H113049   3.772   2.656   3.515
 4368TIP3    H213050   3.877   2.559   3.564
 4369TIP3   OH213051   1.582   0.198   4.931
 4369TIP3    H113052   1.671   0.233   4.918
 4369TIP3    H213053   1.550   0.244   5.009
 4370TIP3   OH213054   1.058   1.254   3.581
 4370TIP3    H113055   1.145   1.221   3.558
 4370TIP3    H213056   1.022   1.188   3.640
 4371TIP3   OH213057   0.021   1.447   5.982
 4371TIP3    H113058   0.111   1.471   5.959
 4371TIP3    H213059   0.029   1.402   6.066
 4372TIP3   OH213060   2.987   7.134   4.210
 4372TIP3    H113061   3.042   7.203   4.171
 4372TIP3    H213062   3.012   7.055   4.162
 4373TIP3   OH213063   7.437   5.731   4.302
 4373TIP3    H113064   7.471   5.690   4.222
 4373TIP3    H213065   7.503   5.713   4.368
 4374TIP3   OH213066   3.873   2.205   3.232
 4374TIP3    H113067   3.856   2.210   3.326
 4374TIP3    H213068   3.787   2.210   3.191
 4375TIP3   OH213069   1.007   7.593   6.337
 4375TIP3    H113070   0.984   7.622   6.248
 4375TIP3    H213071   1.045   7.671   6.378
 4376TIP3   OH213072   1.462   4.960   4.634
 4376TIP3    H113073   1.420   4.934   4.552
 4376TIP3    H213074   1.533   4.897   4.646
 4377TIP3   OH213075   4.674   5.685   1.872
 4377TIP3    H113076   4.657   5.601   1.914
 4377TIP3    H213077   4.705   5.662   1.784
 4378TIP3   OH213078   7.587   5.789   2.626
 4378TIP3    H113079   7.625   5.707   2.595
 4378TIP3    H213080   7.645   5.857   2.591
 4379TIP3   OH213081   5.255   5.779   0.977
 4379TIP3    H113082   5.314   5.784   0.902
 4379TIP3    H213083   5.273   5.693   1.017
 4380TIP3   OH213084   7.504   6.319   1.064
 4380TIP3    H113085   7.564   6.290   1.132
 4380TIP3    H213086   7.419   6.326   1.108
 4381TIP3   OH213087   1.729   5.469   3.060
 4381TIP3    H113088   1.818   5.443   3.084
 4381TIP3    H213089   1.739   5.550   3.011
 4382TIP3   OH213090   7.897   0.042   1.442
 4382TIP3    H113091   7.906   0.032   1.347
 4382TIP3    H213092   7.897  -0.048   1.475
 4383TIP3   OH213093   2.180   7.383   3.454
 4383TIP3    H113094   2.194   7.471   3.488
 4383TIP3    H213095   2.268   7.350   3.435
 4384TIP3   OH213096   8.093   1.794   4.220
 4384TIP3    H113097   8.039   1.775   4.296
 4384TIP3    H213098   8.035   1.841   4.160
 4385TIP3   OH213099   0.160   4.345   0.879
 4385TIP3    H113100   0.106   4.274   0.915
 4385TIP3    H213101   0.169   4.323   0.786
 4386TIP3   OH213102   1.644   7.545   6.655
 4386TIP3    H113103   1.564   7.591   6.630
 4386TIP3    H213104   1.644   7.466   6.600
 4387TIP3   OH213105   4.340   5.596   3.877
 4387TIP3    H113106   4.359   5.595   3.971
 4387TIP3    H213107   4.426   5.600   3.835
 4388TIP3   OH213108   4.515   2.376   4.881
 4388TIP3    H113109   4.500   2.285   4.857
 4388TIP3    H213110   4.594   2.401   4.832
 4389TIP3   OH213111   6.864   1.180   5.106
 4389TIP3    H113112   6.788   1.180   5.164
 4389TIP3    H213113   6.876   1.272   5.082
 4390TIP3   OH213114   0.006   7.670   0.610
 4390TIP3    H113115   0.047   7.718   0.682
 4390TIP3    H213116   0.065   7.684   0.535
 4391TIP3   OH213117   6.497   2.286   5.817
 4391TIP3    H113118   6.544   2.314   5.738
 4391TIP3    H213119   6.565   2.283   5.885
 4392TIP3   OH213120   3.530   1.779   1.965
 4392TIP3    H113121   3.449   1.729   1.978
 4392TIP3    H213122   3.504   1.870   1.977
 4393TIP3   OH213123   5.078   1.958   3.238
 4393TIP3    H113124   5.130   2.007   3.173
 4393TIP3    H213125   5.140   1.898   3.278
 4394TIP3   OH213126   7.413   2.141   0.571
 4394TIP3    H113127   7.493   2.190   0.589
 4394TIP3    H213128   7.399   2.088   0.650
 4395TIP3   OH213129   3.182   7.479   0.120
 4395TIP3    H113130   3.146   7.568   0.117
 4395TIP3    H213131   3.110   7.424   0.090
 4396TIP3   OH213132   5.783   7.368   4.898
 4396TIP3    H113133   5.860   7.312   4.889
 4396TIP3    H213134   5.811   7.436   4.960
 4397TIP3   OH213135   5.914   3.441   0.114
 4397TIP3    H113136   5.882   3.364   0.068
 4397TIP3    H213137   6.008   3.441   0.099
 4398TIP3   OH213138   6.615   6.319   4.805
 4398TIP3    H113139   6.571   6.247   4.850
 4398TIP3    H213140   6.703   6.321   4.842
 4399TIP3   OH213141   0.770   3.855   4.063
 4399TIP3    H113142   0.732   3.936   4.028
 4399TIP3    H213143   0.861   3.857   4.034
 4400TIP3   OH213144   5.209   1.163   1.124
 4400TIP3    H113145   5.231   1.197   1.038
 4400TIP3    H213146   5.294   1.143   1.164
 4401TIP3   OH213147   3.475   4.391   5.439
 4401TIP3    H113148   3.453   4.467   5.385
 4401TIP3    H213149   3.523   4.428   5.513
 4402TIP3   OH213150   8.157   0.076   3.125
 4402TIP3    H113151   8.233   0.063   3.068
 4402TIP3    H213152   8.189   0.132   3.195
 4403TIP3   OH213153   3.606   6.645   6.217
 4403TIP3    H113154   3.679   6.648   6.154
 4403TIP3    H213155   3.565   6.560   6.201
 4404TIP3   OH213156   3.608   5.659   3.243
 4404TIP3    H113157   3.552   5.596   3.197
 4404TIP3    H213158   3.662   5.606   3.302
 4405TIP3   OH213159   4.887   2.369   0.606
 4405TIP3    H113160   4.861   2.336   0.693
 4405TIP3    H213161   4.977   2.340   0.595
 4406TIP3   OH213162   2.745   6.829   2.678
 4406TIP3    H113163   2.749   6.774   2.757
 4406TIP3    H213164   2.717   6.769   2.609
 4407TIP3   OH213165   3.803   2.056   5.122
 4407TIP3    H113166   3.866   1.985   5.123
 4407TIP3    H213167   3.729   2.022   5.073
 4408TIP3   OH213168   4.882   5.380   5.459
 4408TIP3    H113169   4.801   5.334   5.480
 4408TIP3    H213170   4.937   5.313   5.417
 4409TIP3   OH213171   1.163   0.802   1.030
 4409TIP3    H113172   1.105   0.868   0.994
 4409TIP3    H213173   1.168   0.735   0.962
 4410TIP3   OH213174   3.756   3.362   5.310
 4410TIP3    H113175   3.827   3.418   5.343
 4410TIP3    H213176   3.785   3.273   5.328
 4411TIP3   OH213177   4.446   3.088   5.120
 4411TIP3    H113178   4.498   3.116   5.045
 4411TIP3    H213179   4.369   3.045   5.082
 4412TIP3   OH213180   4.644   3.963   0.985
 4412TIP3    H113181   4.595   3.908   1.047
 4412TIP3    H213182   4.697   3.901   0.935
 4413TIP3   OH213183   6.357   7.242   5.420
 4413TIP3    H113184   6.296   7.316   5.412
 4413TIP3    H213185   6.396   7.253   5.507
 4414TIP3   OH213186   7.805   3.577   0.961
 4414TIP3    H113187   7.768   3.643   0.903
 4414TIP3    H213188   7.778   3.603   1.049
 4415TIP3   OH213189   4.182   5.859   2.654
 4415TIP3    H113190   4.112   5.809   2.614
 4415TIP3    H213191   4.255   5.853   2.592
 4416TIP3   OH213192   1.645   4.082   3.492
 4416TIP3    H113193   1.739   4.077   3.513
 4416TIP3    H213194   1.604   4.108   3.574
 4417TIP3   OH213195   6.393   0.694   5.309
 4417TIP3    H113196   6.359   0.741   5.386
 4417TIP3    H213197   6.468   0.645   5.343
 4418TIP3   OH213198   7.355   5.599   0.218
 4418TIP3    H113199   7.429   5.618   0.275
 4418TIP3    H213200   7.393   5.547   0.147
 4419TIP3   OH213201   5.449   0.466   5.138
 4419TIP3    H113202   5.512   0.439   5.071
 4419TIP3    H213203   5.496   0.458   5.220
 4420TIP3   OH213204   8.063   5.169   4.833
 4420TIP3    H113205   7.997   5.105   4.859
 4420TIP3    H213206   8.109   5.128   4.761
 4421TIP3   OH213207   4.718   3.522   3.423
 4421TIP3    H113208   4.754   3.611   3.430
 4421TIP3    H213209   4.673   3.508   3.505
 4422TIP3   OH213210   3.874   1.777   3.376
 4422TIP3    H113211   3.850   1.841   3.443
 4422TIP3    H213212   3.944   1.725   3.416
 4423TIP3   OH213213   0.208   6.037   5.666
 4423TIP3    H113214   0.282   6.002   5.615
 4423TIP3    H213215   0.143   5.967   5.665
 4424TIP3   OH213216   7.183   6.495   3.875
 4424TIP3    H113217   7.229   6.567   3.832
 4424TIP3    H213218   7.104   6.535   3.910
 4425TIP3   OH213219   0.580   1.836   1.783
 4425TIP3    H113220   0.617   1.766   1.729
 4425TIP3    H213221   0.582   1.913   1.726
 4426TIP3   OH213222   1.043   6.608   0.551
 4426TIP3    H113223   0.973   6.659   0.511
 4426TIP3    H213224   1.047   6.639   0.641
 4427TIP3   OH213225   4.500   1.734   0.817
 4427TIP3    H113226   4.408   1.707   0.811
 4427TIP3    H213227   4.502   1.795   0.890
 4428TIP3   OH213228   4.619   7.607   1.995
 4428TIP3    H113229   4.598   7.537   1.933
 4428TIP3    H213230   4.563   7.680   1.969
 4429TIP3   OH213231   2.754   5.849   0.996
 4429TIP3    H113232   2.660   5.862   0.992
 4429TIP3    H213233   2.772   5.783   0.928
 4430TIP3   OH213234   7.876   0.441   1.164
 4430TIP3    H113235   7.871   0.381   1.090
 4430TIP3    H213236   7.800   0.498   1.154
 4431TIP3   OH213237   1.300   1.775   1.166
 4431TIP3    H113238   1.301   1.813   1.078
 4431TIP3    H213239   1.209   1.783   1.194
 4432TIP3   OH213240   2.385   5.567   5.458
 4432TIP3    H113241   2.421   5.545   5.543
 4432TIP3    H213242   2.340   5.488   5.429
 4433TIP3   OH213243   0.770   3.156   5.944
 4433TIP3    H113244   0.847   3.118   5.987
 4433TIP3    H213245   0.805   3.221   5.884
 4434TIP3   OH213246   5.442   3.008   5.209
 4434TIP3    H113247   5.364   2.957   5.188
 4434TIP3    H213248   5.509   2.977   5.148
 4435TIP3   OH213249   0.888   5.989   0.154
 4435TIP3    H113250   0.814   5.941   0.191
 4435TIP3    H213251   0.952   5.992   0.224
 4436TIP3   OH213252   6.339   2.708   0.079
 4436TIP3    H113253   6.341   2.710  -0.017
 4436TIP3    H213254   6.274   2.774   0.103
 4437TIP3   OH213255   7.031   1.066   4.544
 4437TIP3    H113256   7.102   1.002   4.551
 4437TIP3    H213257   7.060   1.127   4.476
 4438TIP3   OH213258   6.103   3.238   4.489
 4438TIP3    H113259   6.170   3.171   4.499
 4438TIP3    H213260   6.023   3.196   4.520
 4439TIP3   OH213261   3.499   7.207   3.094
 4439TIP3    H113262   3.574   7.150   3.110
 4439TIP3    H213263   3.497   7.266   3.170
 4440TIP3   OH213264   0.159   7.454   5.681
 4440TIP3    H113265   0.073   7.485   5.708
 4440TIP3    H213266   0.148   7.429   5.589
 4441TIP3   OH213267   6.670   3.871   4.554
 4441TIP3    H113268   6.688   3.791   4.506
 4441TIP3    H213269   6.748   3.886   4.608
 4442TIP3   OH213270   2.166   5.182   3.018
 4442TIP3    H113271   2.186   5.138   2.936
 4442TIP3    H213272   2.251   5.203   3.056
 4443TIP3   OH213273   3.570   7.739   3.558
 4443TIP3    H113274   3.618   7.672   3.607
 4443TIP3    H213275   3.592   7.821   3.603
 4444TIP3   OH213276   2.408   1.581   2.413
 4444TIP3    H113277   2.325   1.611   2.449
 4444TIP3    H213278   2.464   1.568   2.490
 4445TIP3   OH213279   4.699   6.043   5.650
 4445TIP3    H113280   4.728   5.987   5.578
 4445TIP3    H213281   4.773   6.102   5.665
 4446TIP3   OH213282   1.992   0.689   5.142
 4446TIP3    H113283   2.021   0.756   5.204
 4446TIP3    H213284   2.070   0.634   5.129
 4447TIP3   OH213285   6.816   0.444   0.454
 4447TIP3    H113286   6.761   0.404   0.387
 4447TIP3    H213287   6.903   0.450   0.414
 4448TIP3   OH213288   1.952   1.258   0.238
 4448TIP3    H113289   1.935   1.297   0.323
 4448TIP3    H213290   1.978   1.168   0.257
 4449TIP3   OH213291   2.843   4.614   0.570
 4449TIP3    H113292   2.788   4.662   0.632
 4449TIP3    H213293   2.858   4.529   0.613
 4450TIP3   OH213294   3.117   3.360   2.207
 4450TIP3    H113295   3.200   3.370   2.160
 4450TIP3    H213296   3.133   3.289   2.270
 4451TIP3   OH213297   0.315   4.432   5.408
 4451TIP3    H113298   0.328   4.343   5.376
 4451TIP3    H213299   0.291   4.420   5.500
 4452TIP3   OH213300   2.379   3.416   0.644
 4452TIP3    H113301   2.421   3.439   0.728
 4452TIP3    H213302   2.427   3.467   0.579
 4453TIP3   OH213303   0.337   7.701   2.470
 4453TIP3    H113304   0.426   7.727   2.445
 4453TIP3    H213305   0.348   7.612   2.504
 4454TIP3   OH213306   0.498   1.913   3.769
 4454TIP3    H113307   0.513   1.832   3.819
 4454TIP3    H213308   0.433   1.888   3.703
 4455TIP3   OH213309   5.567   7.679   4.858
 4455TIP3    H113310   5.514   7.743   4.811
 4455TIP3    H213311   5.506   7.641   4.922
 4456TIP3   OH213312   4.572   7.073   2.305
 4456TIP3    H113313   4.584   7.039   2.216
 4456TIP3    H213314   4.481   7.102   2.308
 4457TIP3   OH213315   6.799   7.677   0.114
 4457TIP3    H113316   6.874   7.644   0.162
 4457TIP3    H213317   6.764   7.600   0.069
 4458TIP3   OH213318   5.018   2.958   4.011
 4458TIP3    H113319   4.948   2.960   4.076
 4458TIP3    H213320   4.994   3.025   3.947
 4459TIP3   OH213321   6.711   6.336   5.724
 4459TIP3    H113322   6.677   6.390   5.795
 4459TIP3    H213323   6.674   6.375   5.645
 4460TIP3   OH213324   7.135   0.315   5.595
 4460TIP3    H113325   7.053   0.297   5.642
 4460TIP3    H213326   7.175   0.229   5.583
 4461TIP3   OH213327   6.300   2.312   2.626
 4461TIP3    H113328   6.278   2.288   2.716
 4461TIP3    H213329   6.220   2.351   2.591
 4462TIP3   OH213330   1.925   1.498   4.498
 4462TIP3    H113331   1.951   1.584   4.465
 4462TIP3    H213332   1.955   1.497   4.589
 4463TIP3   OH213333   3.010   1.754   2.875
 4463TIP3    H113334   3.084   1.768   2.817
 4463TIP3    H213335   2.933   1.769   2.821
 4464TIP3   OH213336   7.159   3.109   1.615
 4464TIP3    H113337   7.146   3.163   1.693
 4464TIP3    H213338   7.074   3.113   1.570
 4465TIP3   OH213339   5.780   0.836   4.019
 4465TIP3    H113340   5.747   0.925   4.008
 4465TIP3    H213341   5.737   0.785   3.950
 4466TIP3   OH213342   6.165   7.051   6.734
 4466TIP3    H113343   6.206   7.136   6.751
 4466TIP3    H213344   6.135   7.056   6.644
 4467TIP3   OH213345   8.112   7.245   4.926
 4467TIP3    H113346   8.139   7.169   4.978
 4467TIP3    H213347   8.145   7.226   4.838
 4468TIP3   OH213348   4.855   2.446   1.309
 4468TIP3    H113349   4.799   2.522   1.323
 4468TIP3    H213350   4.891   2.427   1.396
 4469TIP3   OH213351   5.101   3.384   2.250
 4469TIP3    H113352   5.105   3.470   2.208
 4469TIP3    H213353   5.105   3.321   2.179
 4470TIP3   OH213354   0.746   1.177   4.014
 4470TIP3    H113355   0.679   1.222   4.064
 4470TIP3    H213356   0.714   1.087   4.006
 4471TIP3   OH213357   5.009   1.326   1.808
 4471TIP3    H113358   4.921   1.302   1.838
 4471TIP3    H213359   5.067   1.295   1.877
 4472TIP3   OH213360   3.816   1.435   1.776
 4472TIP3    H113361   3.890   1.380   1.750
 4472TIP3    H213362   3.772   1.457   1.694
 4473TIP3   OH213363   6.941   1.480   0.399
 4473TIP3    H113364   6.971   1.396   0.434
 4473TIP3    H213365   6.875   1.456   0.334
 4474TIP3   OH213366   5.162   5.827   2.905
 4474TIP3    H113367   5.123   5.866   2.827
 4474TIP3    H213368   5.137   5.735   2.902
 4475TIP3   OH213369   0.828   6.635   1.072
 4475TIP3    H113370   0.736   6.658   1.058
 4475TIP3    H213371   0.826   6.544   1.100
 4476TIP3   OH213372   1.622   6.356   5.523
 4476TIP3    H113373   1.583   6.430   5.475
 4476TIP3    H213374   1.638   6.291   5.455
 4477TIP3   OH213375   4.557   2.884   0.715
 4477TIP3    H113376   4.649   2.908   0.722
 4477TIP3    H213377   4.551   2.838   0.631
 4478TIP3   OH213378   2.092   3.016   3.061
 4478TIP3    H113379   2.055   3.086   3.114
 4478TIP3    H213380   2.185   3.016   3.083
 4479TIP3   OH213381   0.291   6.470   6.557
 4479TIP3    H113382   0.267   6.433   6.642
 4479TIP3    H213383   0.375   6.429   6.536
 4480TIP3   OH213384   4.918   2.100   1.759
 4480TIP3    H113385   4.825   2.123   1.754
 4480TIP3    H213386   4.931   2.073   1.850
 4481TIP3   OH213387   6.834   3.549   1.465
 4481TIP3    H113388   6.738   3.547   1.464
 4481TIP3    H213389   6.860   3.484   1.399
 4482TIP3   OH213390   1.584   1.246   3.503
 4482TIP3    H113391   1.559   1.158   3.532
 4482TIP3    H213392   1.673   1.258   3.536
 4483TIP3   OH213393   2.329   0.614   3.969
 4483TIP3    H113394   2.290   0.701   3.986
 4483TIP3    H213395   2.254   0.554   3.975
 4484TIP3   OH213396   0.620   7.678   2.242
 4484TIP3    H113397   0.623   7.583   2.253
 4484TIP3    H213398   0.710   7.706   2.256
 4485TIP3   OH213399   4.540   4.372   1.640
 4485TIP3    H113400   4.579   4.330   1.563
 4485TIP3    H213401   4.614   4.414   1.684
 4486TIP3   OH213402   0.803   5.863   4.058
 4486TIP3    H113403   0.776   5.919   3.985
 4486TIP3    H213404   0.765   5.778   4.038
 4487TIP3   OH213405   2.283   0.225   5.901
 4487TIP3    H113406   2.224   0.154   5.929
 4487TIP3    H213407   2.229   0.304   5.905
 4488TIP3   OH213408   2.738   1.837   0.232
 4488TIP3    H113409   2.713   1.781   0.159
 4488TIP3    H213410   2.797   1.902   0.194
 4489TIP3   OH213411   2.458   1.997   0.909
 4489TIP3    H113412   2.446   2.045   0.826
 4489TIP3    H213413   2.528   1.934   0.890
 4490TIP3   OH213414   5.255   0.453   2.666
 4490TIP3    H113415   5.302   0.460   2.749
 4490TIP3    H213416   5.274   0.364   2.635
 4491TIP3   OH213417   0.864   0.025   0.109
 4491TIP3    H113418   0.846   0.036   0.016
 4491TIP3    H213419   0.880  -0.068   0.120
 4492TIP3   OH213420   3.084   0.497   0.718
 4492TIP3    H113421   3.090   0.577   0.666
 4492TIP3    H213422   3.018   0.445   0.672
 4493TIP3   OH213423   8.204   4.730   6.402
 4493TIP3    H113424   8.260   4.808   6.400
 4493TIP3    H213425   8.265   4.657   6.393
 4494TIP3   OH213426   3.500   5.133   3.424
 4494TIP3    H113427   3.565   5.080   3.470
 4494TIP3    H213428   3.543   5.158   3.342
 4495TIP3   OH213429   2.915   6.492   1.241
 4495TIP3    H113430   2.852   6.449   1.183
 4495TIP3    H213431   2.921   6.433   1.317
 4496TIP3   OH213432   3.114   2.336   4.849
 4496TIP3    H113433   3.141   2.354   4.759
 4496TIP3    H213434   3.018   2.342   4.847
 4497TIP3   OH213435   5.651   5.321   1.831
 4497TIP3    H113436   5.651   5.295   1.739
 4497TIP3    H213437   5.644   5.416   1.829
 4498TIP3   OH213438   4.118   3.282   3.442
 4498TIP3    H113439   4.109   3.189   3.421
 4498TIP3    H213440   4.086   3.290   3.532
 4499TIP3   OH213441   1.160   4.197   4.830
 4499TIP3    H113442   1.252   4.204   4.806
 4499TIP3    H213443   1.122   4.281   4.802
 4500TIP3   OH213444   5.449   7.459   3.373
 4500TIP3    H113445   5.405   7.438   3.290
 4500TIP3    H213446   5.541   7.470   3.350
 4501TIP3   OH213447   5.009   1.029   2.232
 4501TIP3    H113448   5.005   1.111   2.281
 4501TIP3    H213449   4.965   0.965   2.289
 4502TIP3   OH213450   4.549   4.469   1.186
 4502TIP3    H113451   4.543   4.530   1.112
 4502TIP3    H213452   4.609   4.400   1.156
 4503TIP3   OH213453   6.663   4.575   5.961
 4503TIP3    H113454   6.591   4.579   6.023
 4503TIP3    H213455   6.701   4.663   5.961
 4504TIP3   OH213456   1.299   3.835   4.572
 4504TIP3    H113457   1.390   3.851   4.546
 4504TIP3    H213458   1.248   3.898   4.520
 4505TIP3   OH213459   3.358   5.904   5.471
 4505TIP3    H113460   3.278   5.950   5.494
 4505TIP3    H213461   3.328   5.825   5.426
 4506TIP3   OH213462   3.340   6.898   4.196
 4506TIP3    H113463   3.361   6.990   4.183
 4506TIP3    H213464   3.398   6.851   4.136
 4507TIP3   OH213465   4.145   0.191   4.252
 4507TIP3    H113466   4.200   0.219   4.179
 4507TIP3    H213467   4.064   0.241   4.242
 4508TIP3   OH213468   1.326   0.228   5.753
 4508TIP3    H113469   1.285   0.232   5.839
 4508TIP3    H213470   1.274   0.287   5.698
 4509TIP3   OH213471   6.486   6.215   1.336
 4509TIP3    H113472   6.424   6.207   1.409
 4509TIP3    H213473   6.470   6.303   1.301
 4510TIP3   OH213474   3.846   0.593   2.894
 4510TIP3    H113475   3.841   0.503   2.860
 4510TIP3    H213476   3.930   0.597   2.939
 4511TIP3   OH213477   4.203   3.507   5.487
 4511TIP3    H113478   4.192   3.506   5.582
 4511TIP3    H213479   4.148   3.580   5.459
 4512TIP3   OH213480   2.117   0.861   0.236
 4512TIP3    H113481   2.038   0.908   0.263
 4512TIP3    H213482   2.168   0.854   0.317
 4513TIP3   OH213483   0.807   1.597   6.251
 4513TIP3    H113484   0.860   1.675   6.236
 4513TIP3    H213485   0.762   1.583   6.168
 4514TIP3   OH213486   7.305   6.629   5.125
 4514TIP3    H113487   7.291   6.721   5.105
 4514TIP3    H213488   7.266   6.617   5.212
 4515TIP3   OH213489   3.774   3.734   5.144
 4515TIP3    H113490   3.833   3.809   5.135
 4515TIP3    H213491   3.692   3.762   5.102
 4516TIP3   OH213492   2.990   7.720   1.034
 4516TIP3    H113493   3.005   7.658   0.963
 4516TIP3    H213494   2.929   7.784   0.999
 4517TIP3   OH213495   6.902   2.990   5.336
 4517TIP3    H113496   6.985   2.953   5.366
 4517TIP3    H213497   6.837   2.954   5.395
 4518TIP3   OH213498   1.405   4.866   1.904
 4518TIP3    H113499   1.347   4.793   1.928
 4518TIP3    H213500   1.473   4.825   1.849
 4519TIP3   OH213501   5.209   4.488   4.174
 4519TIP3    H113502   5.265   4.418   4.208
 4519TIP3    H213503   5.270   4.550   4.135
 4520TIP3   OH213504   6.092   2.423   5.681
 4520TIP3    H113505   6.025   2.417   5.750
 4520TIP3    H213506   6.128   2.335   5.675
 4521TIP3   OH213507   3.962   7.141   0.352
 4521TIP3    H113508   4.012   7.215   0.319
 4521TIP3    H213509   3.973   7.073   0.285
 4522TIP3   OH213510   3.609   4.370   2.584
 4522TIP3    H113511   3.625   4.462   2.605
 4522TIP3    H213512   3.692   4.340   2.546
 4523TIP3   OH213513   4.958   6.005   4.334
 4523TIP3    H113514   5.015   5.990   4.409
 4523TIP3    H213515   4.871   5.977   4.365
 4524TIP3   OH213516   4.681   6.363   1.882
 4524TIP3    H113517   4.727   6.306   1.822
 4524TIP3    H213518   4.736   6.366   1.960
 4525TIP3   OH213519   8.148   5.312   5.316
 4525TIP3    H113520   8.125   5.319   5.223
 4525TIP3    H213521   8.190   5.395   5.336
 4526TIP3   OH213522   6.503   0.267   3.101
 4526TIP3    H113523   6.501   0.360   3.081
 4526TIP3    H213524   6.596   0.244   3.099
 4527TIP3   OH213525   3.613   1.107   5.198
 4527TIP3    H113526   3.672   1.112   5.123
 4527TIP3    H213527   3.646   1.033   5.249
 4528TIP3   OH213528   0.903   3.704   5.181
 4528TIP3    H113529   0.961   3.635   5.151
 4528TIP3    H213530   0.942   3.736   5.262
 4529TIP3   OH213531   3.626   3.772   3.509
 4529TIP3    H113532   3.604   3.857   3.471
 4529TIP3    H213533   3.596   3.778   3.600
 4530TIP3   OH213534   6.975   1.648   5.044
 4530TIP3    H113535   6.995   1.555   5.044
 4530TIP3    H213536   7.059   1.690   5.023
 4531TIP3   OH213537   2.800   4.786   1.423
 4531TIP3    H113538   2.802   4.710   1.364
 4531TIP3    H213539   2.866   4.767   1.489
 4532TIP3   OH213540   4.667   1.511   2.418
 4532TIP3    H113541   4.763   1.513   2.419
 4532TIP3    H213542   4.642   1.566   2.344
 4533TIP3   OH213543   6.575   3.831   1.511
 4533TIP3    H113544   6.548   3.803   1.423
 4533TIP3    H213545   6.560   3.925   1.511
 4534TIP3   OH213546   5.117   2.493   2.345
 4534TIP3    H113547   5.146   2.501   2.254
 4534TIP3    H213548   5.044   2.554   2.353
 4535TIP3   OH213549   5.589   7.651   4.535
 4535TIP3    H113550   5.506   7.696   4.518
 4535TIP3    H213551   5.562   7.562   4.561
 4536TIP3   OH213552   4.652   2.383   5.279
 4536TIP3    H113553   4.701   2.416   5.205
 4536TIP3    H213554   4.562   2.413   5.265
 4537TIP3   OH213555   3.830   1.352   3.034
 4537TIP3    H113556   3.878   1.380   3.112
 4537TIP3    H213557   3.863   1.264   3.016
 4538TIP3   OH213558   8.100   5.920   1.701
 4538TIP3    H113559   8.061   5.848   1.751
 4538TIP3    H213560   8.159   5.877   1.639
 4539TIP3   OH213561   6.507   7.049   3.038
 4539TIP3    H113562   6.509   7.026   3.131
 4539TIP3    H213563   6.504   7.144   3.037
 4540TIP3   OH213564   3.769   4.292   4.814
 4540TIP3    H113565   3.836   4.284   4.882
 4540TIP3    H213566   3.710   4.361   4.846
 4541TIP3   OH213567   3.597   1.914   5.332
 4541TIP3    H113568   3.589   1.885   5.241
 4541TIP3    H213569   3.577   2.007   5.329
 4542TIP3   OH213570   6.429   2.782   5.162
 4542TIP3    H113571   6.369   2.724   5.209
 4542TIP3    H213572   6.414   2.868   5.203
 4543TIP3   OH213573   6.979   2.953   4.837
 4543TIP3    H113574   6.902   2.934   4.891
 4543TIP3    H213575   7.053   2.948   4.897
 4544TIP3   OH213576   6.110   3.293   6.663
 4544TIP3    H113577   6.135   3.200   6.657
 4544TIP3    H213578   6.132   3.317   6.753
 4545TIP3   OH213579   2.264   2.284   5.073
 4545TIP3    H113580   2.351   2.260   5.102
 4545TIP3    H213581   2.243   2.364   5.122
 4546TIP3   OH213582   6.616   0.861   5.270
 4546TIP3    H113583   6.543   0.808   5.304
 4546TIP3    H213584   6.649   0.811   5.195
 4547TIP3   OH213585   5.990   5.277   1.570
 4547TIP3    H113586   5.924   5.308   1.507
 4547TIP3    H213587   5.986   5.340   1.641
 4548TIP3   OH213588   5.571   6.567   0.193
 4548TIP3    H113589   5.486   6.561   0.149
 4548TIP3    H213590   5.562   6.509   0.269
 4549TIP3   OH213591   7.149   7.410   2.257
 4549TIP3    H113592   7.203   7.335   2.229
 4549TIP3    H213593   7.182   7.432   2.344
 4550TIP3   OH213594   0.654   2.702   3.251
 4550TIP3    H113595   0.587   2.769   3.263
 4550TIP3    H213596   0.664   2.662   3.338
 4551TIP3   OH213597   8.261   6.058   3.564
 4551TIP3    H113598   8.314   6.071   3.643
 4551TIP3    H213599   8.285   6.131   3.507
 4552TIP3   OH213600   4.039   1.431   4.263
 4552TIP3    H113601   4.067   1.499   4.202
 4552TIP3    H213602   4.120   1.396   4.300
 4553TIP3   OH213603   6.042   1.973   4.337
 4553TIP3    H113604   6.068   1.962   4.245
 4553TIP3    H213605   5.971   2.038   4.334
 4554TIP3   OH213606   6.104   4.609   5.943
 4554TIP3    H113607   6.147   4.618   5.858
 4554TIP3    H213608   6.010   4.607   5.922
 4555TIP3   OH213609   1.439   7.024   0.115
 4555TIP3    H113610   1.403   7.097   0.064
 4555TIP3    H213611   1.389   7.025   0.197
 4556TIP3   OH213612   8.243   6.932   2.122
 4556TIP3    H113613   8.189   6.860   2.090
 4556TIP3    H213614   8.265   6.907   2.212
 4557TIP3   OH213615   4.020   6.189   6.565
 4557TIP3    H113616   4.108   6.165   6.593
 4557TIP3    H213617   4.013   6.283   6.583
 4558TIP3   OH213618   2.290   3.196   3.601
 4558TIP3    H113619   2.285   3.131   3.671
 4558TIP3    H213620   2.272   3.279   3.644
 4559TIP3   OH213621   8.008   6.444   4.081
 4559TIP3    H113622   8.093   6.477   4.110
 4559TIP3    H213623   8.020   6.424   3.988
 4560TIP3   OH213624   5.495   2.026   2.619
 4560TIP3    H113625   5.427   1.965   2.646
 4560TIP3    H213626   5.462   2.064   2.537
 4561TIP3   OH213627   1.032   1.234   6.226
 4561TIP3    H113628   1.038   1.250   6.320
 4561TIP3    H213629   1.057   1.317   6.185
 4562TIP3   OH213630   0.686   3.762   0.477
 4562TIP3    H113631   0.716   3.830   0.538
 4562TIP3    H213632   0.720   3.790   0.392
 4563TIP3   OH213633   7.382   6.375   4.495
 4563TIP3    H113634   7.443   6.438   4.456
 4563TIP3    H213635   7.320   6.429   4.544
 4564TIP3   OH213636   5.072   4.639   2.725
 4564TIP3    H113637   4.989   4.593   2.730
 4564TIP3    H213638   5.138   4.570   2.719
 4565TIP3   OH213639   4.971   4.511   4.777
 4565TIP3    H113640   5.018   4.576   4.725
 4565TIP3    H213641   4.955   4.555   4.861
 4566TIP3   OH213642   0.423   5.615   1.476
 4566TIP3    H113643   0.374   5.695   1.496
 4566TIP3    H213644   0.477   5.599   1.553
 4567TIP3   OH213645   4.051   7.319   5.466
 4567TIP3    H113646   4.028   7.352   5.553
 4567TIP3    H213647   4.008   7.379   5.405
 4568TIP3   OH213648   1.687   5.611   1.795
 4568TIP3    H113649   1.639   5.529   1.780
 4568TIP3    H213650   1.755   5.588   1.858
 4569TIP3   OH213651   5.270   3.792   4.713
 4569TIP3    H113652   5.205   3.860   4.694
 4569TIP3    H213653   5.221   3.726   4.762
 4570TIP3   OH213654   3.888   1.703   1.644
 4570TIP3    H113655   3.801   1.726   1.678
 4570TIP3    H213656   3.939   1.684   1.723
 4571TIP3   OH213657   2.710   2.217   0.995
 4571TIP3    H113658   2.709   2.122   0.991
 4571TIP3    H213659   2.791   2.239   1.041
 4572TIP3   OH213660   0.753   0.559   6.088
 4572TIP3    H113661   0.812   0.497   6.046
 4572TIP3    H213662   0.666   0.533   6.059
 4573TIP3   OH213663   2.796   5.911   3.719
 4573TIP3    H113664   2.831   5.822   3.710
 4573TIP3    H213665   2.873   5.967   3.713
 4574TIP3   OH213666   5.482   4.713   2.771
 4574TIP3    H113667   5.450   4.628   2.740
 4574TIP3    H213668   5.431   4.729   2.851
 4575TIP3   OH213669   4.665   2.007   2.505
 4575TIP3    H113670   4.730   2.047   2.563
 4575TIP3    H213671   4.673   1.913   2.521
 4576TIP3   OH213672   4.744   6.286   3.738
 4576TIP3    H113673   4.757   6.206   3.688
 4576TIP3    H213674   4.721   6.352   3.673
 4577TIP3   OH213675   2.193   0.788   4.536
 4577TIP3    H113676   2.212   0.874   4.498
 4577TIP3    H213677   2.255   0.780   4.609
 4578TIP3   OH213678   2.689   0.091   0.858
 4578TIP3    H113679   2.683   0.135   0.942
 4578TIP3    H213680   2.601   0.057   0.841
 4579TIP3   OH213681   5.593   0.385   0.154
 4579TIP3    H113682   5.634   0.322   0.213
 4579TIP3    H213683   5.607   0.349   0.067
 4580TIP3   OH213684   4.564   4.897   6.361
 4580TIP3    H113685   4.646   4.922   6.318
 4580TIP3    H213686   4.583   4.903   6.455
 4581TIP3   OH213687   6.693   1.518   2.818
 4581TIP3    H113688   6.745   1.439   2.830
 4581TIP3    H213689   6.622   1.510   2.882
 4582TIP3   OH213690   7.922   2.215   1.756
 4582TIP3    H113691   7.917   2.309   1.744
 4582TIP3    H213692   8.015   2.194   1.751
 4583TIP3   OH213693   5.739   1.560   6.766
 4583TIP3    H113694   5.680   1.632   6.787
 4583TIP3    H213695   5.734   1.550   6.671
 4584TIP3   OH213696   0.371   1.780   0.795
 4584TIP3    H113697   0.316   1.792   0.872
 4584TIP3    H213698   0.315   1.734   0.732
 4585TIP3   OH213699   7.343   6.010   0.536
 4585TIP3    H113700   7.365   5.924   0.572
 4585TIP3    H213701   7.270   5.993   0.476
 4586TIP3   OH213702   3.842   7.764   6.475
 4586TIP3    H113703   3.870   7.758   6.383
 4586TIP3    H213704   3.907   7.819   6.517
 4587TIP3   OH213705   3.024   7.620   0.793
 4587TIP3    H113706   3.010   7.701   0.745
 4587TIP3    H213707   3.058   7.559   0.727
 4588TIP3   OH213708   0.233   4.290   5.656
 4588TIP3    H113709   0.297   4.288   5.727
 4588TIP3    H213710   0.251   4.212   5.604
 4589TIP3   OH213711   6.148   5.208   1.048
 4589TIP3    H113712   6.244   5.209   1.053
 4589TIP3    H213713   6.128   5.241   0.960
 4590TIP3   OH213714   6.079   4.658   0.282
 4590TIP3    H113715   6.044   4.733   0.233
 4590TIP3    H213716   6.161   4.637   0.238
 4591TIP3   OH213717   5.860   2.148   1.907
 4591TIP3    H113718   5.832   2.095   1.981
 4591TIP3    H213719   5.779   2.179   1.867
 4592TIP3   OH213720   8.202   4.358   1.796
 4592TIP3    H113721   8.217   4.303   1.873
 4592TIP3    H213722   8.138   4.423   1.825
 4593TIP3   OH213723   7.666   4.642   4.935
 4593TIP3    H113724   7.756   4.673   4.937
 4593TIP3    H213725   7.663   4.574   5.002
 4594TIP3   OH213726   2.734   2.320   2.020
 4594TIP3    H113727   2.702   2.230   2.020
 4594TIP3    H213728   2.827   2.312   2.002
 4595TIP3   OH213729   0.970   6.675   4.462
 4595TIP3    H113730   1.002   6.750   4.411
 4595TIP3    H213731   0.988   6.599   4.406
 4596TIP3   OH213732   2.250   4.308   0.599
 4596TIP3    H113733   2.253   4.319   0.694
 4596TIP3    H213734   2.160   4.331   0.576
 4597TIP3   OH213735   5.894   3.965   5.046
 4597TIP3    H113736   5.924   4.054   5.031
 4597TIP3    H213737   5.918   3.947   5.137
 4598TIP3   OH213738   6.732   4.074   6.654
 4598TIP3    H113739   6.758   3.982   6.646
 4598TIP3    H213740   6.719   4.103   6.563
 4599TIP3   OH213741   2.335   6.391   5.523
 4599TIP3    H113742   2.380   6.474   5.510
 4599TIP3    H213743   2.301   6.395   5.613
 4600TIP3   OH213744   0.300   1.852   1.743
 4600TIP3    H113745   0.268   1.783   1.684
 4600TIP3    H213746   0.395   1.843   1.742
 4601TIP3   OH213747   3.389   0.977   1.438
 4601TIP3    H113748   3.323   0.990   1.506
 4601TIP3    H213749   3.363   1.036   1.367
 4602TIP3   OH213750   4.509   7.697   1.149
 4602TIP3    H113751   4.569   7.690   1.075
 4602TIP3    H213752   4.435   7.749   1.116
 4603TIP3   OH213753   2.776   0.838   0.986
 4603TIP3    H113754   2.767   0.879   1.072
 4603TIP3    H213755   2.865   0.857   0.959
 4604TIP3   OH213756   6.412   2.985   0.470
 4604TIP3    H113757   6.354   2.978   0.545
 4604TIP3    H213758   6.492   3.024   0.505
 4605TIP3   OH213759   1.909   0.846   5.581
 4605TIP3    H113760   1.841   0.786   5.612
 4605TIP3    H213761   1.895   0.851   5.486
 4606TIP3   OH213762   6.662   5.432   0.667
 4606TIP3    H113763   6.583   5.461   0.621
 4606TIP3    H213764   6.726   5.414   0.597
 4607TIP3   OH213765   0.926   6.282   2.348
 4607TIP3    H113766   1.016   6.289   2.317
 4607TIP3    H213767   0.931   6.297   2.442
 4608TIP3   OH213768   5.882   3.724   1.990
 4608TIP3    H113769   5.901   3.634   2.016
 4608TIP3    H213770   5.901   3.726   1.896
 4609TIP3   OH213771   0.577   3.369   0.228
 4609TIP3    H113772   0.623   3.452   0.236
 4609TIP3    H213773   0.630   3.306   0.276
 4610TIP3   OH213774   3.755   2.694   2.470
 4610TIP3    H113775   3.830   2.726   2.520
 4610TIP3    H213776   3.694   2.661   2.537
 4611TIP3   OH213777   4.774   5.925   4.775
 4611TIP3    H113778   4.840   5.857   4.760
 4611TIP3    H213779   4.789   5.988   4.704
 4612TIP3   OH213780   2.041   1.985   2.617
 4612TIP3    H113781   2.054   2.061   2.560
 4612TIP3    H213782   1.987   1.925   2.566
 4613TIP3   OH213783   5.855   5.703   2.061
 4613TIP3    H113784   5.821   5.691   1.972
 4613TIP3    H213785   5.920   5.772   2.052
 4614TIP3   OH213786   0.909   3.690   2.615
 4614TIP3    H113787   0.961   3.697   2.536
 4614TIP3    H213788   0.938   3.608   2.656
 4615TIP3   OH213789   7.191   6.121   5.153
 4615TIP3    H113790   7.211   6.151   5.064
 4615TIP3    H213791   7.167   6.029   5.142
 4616TIP3   OH213792   2.393   4.019   1.747
 4616TIP3    H113793   2.453   4.081   1.705
 4616TIP3    H213794   2.383   4.052   1.837
 4617TIP3   OH213795   1.644   2.036   5.294
 4617TIP3    H113796   1.597   1.967   5.246
 4617TIP3    H213797   1.622   2.021   5.386
 4618TIP3   OH213798   7.610   6.104   5.757
 4618TIP3    H113799   7.564   6.021   5.742
 4618TIP3    H213800   7.631   6.136   5.670
 4619TIP3   OH213801   2.364   2.209   3.436
 4619TIP3    H113802   2.429   2.145   3.466
 4619TIP3    H213803   2.415   2.276   3.391
 4620TIP3   OH213804   5.599   3.695   0.362
 4620TIP3    H113805   5.559   3.684   0.448
 4620TIP3    H213806   5.636   3.784   0.364
 4621TIP3   OH213807   6.239   2.775   4.406
 4621TIP3    H113808   6.151   2.739   4.404
 4621TIP3    H213809   6.290   2.711   4.455
 4622TIP3   OH213810   8.103   5.552   0.448
 4622TIP3    H113811   8.064   5.588   0.528
 4622TIP3    H213812   8.066   5.605   0.378
 4623TIP3   OH213813   1.372   2.410   4.353
 4623TIP3    H113814   1.333   2.332   4.391
 4623TIP3    H213815   1.351   2.404   4.259
 4624TIP3   OH213816   6.403   5.728   0.728
 4624TIP3    H113817   6.425   5.707   0.637
 4624TIP3    H213818   6.368   5.817   0.724
 4625TIP3   OH213819   7.159   0.493   1.210
 4625TIP3    H113820   7.209   0.573   1.190
 4625TIP3    H213821   7.226   0.429   1.232
 4626TIP3   OH213822   2.533   5.670   1.587
 4626TIP3    H113823   2.584   5.630   1.658
 4626TIP3    H213824   2.597   5.688   1.518
 4627TIP3   OH213825   0.485   6.747   3.899
 4627TIP3    H113826   0.556   6.811   3.901
 4627TIP3    H213827   0.526   6.667   3.868
 4628TIP3   OH213828   0.058   7.522   3.959
 4628TIP3    H113829   0.016   7.517   3.874
 4628TIP3    H213830   0.070   7.615   3.975
 4629TIP3   OH213831   8.172   0.880   6.428
 4629TIP3    H113832   8.147   0.906   6.517
 4629TIP3    H213833   8.092   0.843   6.391
 4630TIP3   OH213834   7.785   7.088   4.044
 4630TIP3    H113835   7.774   7.183   4.038
 4630TIP3    H213836   7.804   7.071   4.136
 4631TIP3   OH213837   0.164   7.140   5.420
 4631TIP3    H113838   0.150   7.074   5.488
 4631TIP3    H213839   0.078   7.179   5.406
 4632TIP3   OH213840   4.828   4.167   3.067
 4632TIP3    H113841   4.771   4.232   3.109
 4632TIP3    H213842   4.770   4.117   3.010
 4633TIP3   OH213843   0.533   4.756   1.670
 4633TIP3    H113844   0.606   4.813   1.692
 4633TIP3    H213845   0.455   4.800   1.704
 4634TIP3   OH213846   1.542   4.262   3.230
 4634TIP3    H113847   1.532   4.355   3.248
 4634TIP3    H213848   1.565   4.224   3.315
 4635TIP3   OH213849   4.329   3.206   5.347
 4635TIP3    H113850   4.355   3.173   5.261
 4635TIP3    H213851   4.290   3.291   5.329
 4636TIP3   OH213852   6.719   7.587   2.294
 4636TIP3    H113853   6.756   7.505   2.262
 4636TIP3    H213854   6.625   7.573   2.293
 4637TIP3   OH213855   7.984   2.513   2.489
 4637TIP3    H113856   7.939   2.570   2.426
 4637TIP3    H213857   8.000   2.432   2.441
 4638TIP3   OH213858   0.690   4.054   4.903
 4638TIP3    H113859   0.773   4.087   4.868
 4638TIP3    H213860   0.664   3.984   4.844
 4639TIP3   OH213861   7.630   4.534   1.979
 4639TIP3    H113862   7.681   4.614   1.968
 4639TIP3    H213863   7.641   4.511   2.072
 4640TIP3   OH213864   0.879   6.696   6.185
 4640TIP3    H113865   0.877   6.753   6.261
 4640TIP3    H213866   0.797   6.646   6.189
 4641TIP3   OH213867   0.169   2.499   5.115
 4641TIP3    H113868   0.105   2.566   5.091
 4641TIP3    H213869   0.216   2.481   5.034
 4642TIP3   OH213870   7.493   6.464   3.093
 4642TIP3    H113871   7.472   6.387   3.146
 4642TIP3    H213872   7.541   6.522   3.152
 4643TIP3   OH213873   0.504   4.768   0.308
 4643TIP3    H113874   0.517   4.727   0.223
 4643TIP3    H213875   0.464   4.853   0.288
 4644TIP3   OH213876   0.832   1.376   6.453
 4644TIP3    H113877   0.922   1.345   6.457
 4644TIP3    H213878   0.832   1.442   6.383
 4645TIP3   OH213879   0.285   0.487   3.094
 4645TIP3    H113880   0.248   0.529   3.172
 4645TIP3    H213881   0.349   0.550   3.062
 4646TIP3   OH213882   3.837   3.062   0.491
 4646TIP3    H113883   3.877   2.990   0.540
 4646TIP3    H213884   3.892   3.071   0.413
 4647TIP3   OH213885   3.727   2.626   2.208
 4647TIP3    H113886   3.673   2.548   2.194
 4647TIP3    H213887   3.727   2.639   2.303
 4648TIP3   OH213888   0.666   3.813   6.547
 4648TIP3    H113889   0.602   3.834   6.479
 4648TIP3    H213890   0.713   3.736   6.513
 4649TIP3   OH213891   0.927   3.944   6.758
 4649TIP3    H113892   0.862   4.008   6.729
 4649TIP3    H213893   0.926   3.950   6.853
 4650TIP3   OH213894   7.271   4.736   1.635
 4650TIP3    H113895   7.316   4.665   1.589
 4650TIP3    H213896   7.297   4.725   1.726
 4651TIP3   OH213897   3.097   1.371   0.487
 4651TIP3    H113898   3.040   1.407   0.419
 4651TIP3    H213899   3.102   1.441   0.553
 4652TIP3   OH213900   8.121   5.786   2.596
 4652TIP3    H113901   8.148   5.875   2.619
 4652TIP3    H213902   8.096   5.792   2.504
 4653TIP3   OH213903   2.383   2.615   1.021
 4653TIP3    H113904   2.420   2.604   1.108
 4653TIP3    H213905   2.439   2.562   0.964
 4654TIP3   OH213906   6.427   1.676   2.334
 4654TIP3    H113907   6.431   1.723   2.418
 4654TIP3    H213908   6.455   1.587   2.356
 4655TIP3   OH213909   6.623   3.018   0.643
 4655TIP3    H113910   6.587   3.096   0.685
 4655TIP3    H213911   6.649   2.962   0.716
 4656TIP3   OH213912   1.213   2.605   4.756
 4656TIP3    H113913   1.245   2.524   4.716
 4656TIP3    H213914   1.136   2.629   4.704
 4657TIP3   OH213915   5.151   3.028   4.598
 4657TIP3    H113916   5.194   2.943   4.601
 4657TIP3    H213917   5.088   3.026   4.669
 4658TIP3   OH213918   6.005   6.657   6.583
 4658TIP3    H113919   5.980   6.749   6.592
 4658TIP3    H213920   5.923   6.610   6.569
 4659TIP3   OH213921   5.439   5.921   2.498
 4659TIP3    H113922   5.504   5.957   2.437
 4659TIP3    H213923   5.466   5.829   2.510
 4660TIP3   OH213924   6.895   5.109   5.603
 4660TIP3    H113925   6.820   5.106   5.544
 4660TIP3    H213926   6.857   5.098   5.690
 4661TIP3   OH213927   5.866   0.203   4.768
 4661TIP3    H113928   5.923   0.174   4.839
 4661TIP3    H213929   5.788   0.148   4.777
 4662TIP3   OH213930   3.607   4.539   4.459
 4662TIP3    H113931   3.701   4.527   4.450
 4662TIP3    H213932   3.568   4.478   4.397
 4663TIP3   OH213933   1.467   3.813   1.486
 4663TIP3    H113934   1.560   3.804   1.507
 4663TIP3    H213935   1.421   3.775   1.561
 4664TIP3   OH213936   7.778   1.864   5.113
 4664TIP3    H113937   7.691   1.898   5.091
 4664TIP3    H213938   7.805   1.915   5.189
 4665TIP3   OH213939   5.218   5.476   4.117
 4665TIP3    H113940   5.219   5.426   4.036
 4665TIP3    H213941   5.265   5.420   4.180
 4666TIP3   OH213942   4.310   6.108   4.776
 4666TIP3    H113943   4.361   6.026   4.777
 4666TIP3    H213944   4.325   6.144   4.688
 4667TIP3   OH213945   0.290   0.239   6.522
 4667TIP3    H113946   0.211   0.267   6.568
 4667TIP3    H213947   0.361   0.279   6.571
 4668TIP3   OH213948   8.189   1.064   2.437
 4668TIP3    H113949   8.122   1.017   2.388
 4668TIP3    H213950   8.272   1.031   2.402
 4669TIP3   OH213951   6.676   5.194   5.394
 4669TIP3    H113952   6.619   5.269   5.411
 4669TIP3    H213953   6.761   5.234   5.372
 4670TIP3   OH213954   3.921   1.442   0.495
 4670TIP3    H113955   3.968   1.452   0.578
 4670TIP3    H213956   3.987   1.458   0.428
 4671TIP3   OH213957   7.864   3.178   4.687
 4671TIP3    H113958   7.947   3.158   4.731
 4671TIP3    H213959   7.803   3.112   4.720
 4672TIP3   OH213960   7.742   3.763   3.675
 4672TIP3    H113961   7.724   3.822   3.748
 4672TIP3    H213962   7.666   3.772   3.618
 4673TIP3   OH213963   1.352   5.058   0.427
 4673TIP3    H113964   1.371   5.054   0.520
 4673TIP3    H213965   1.328   5.149   0.411
 4674TIP3   OH213966   5.782   1.578   1.091
 4674TIP3    H113967   5.835   1.501   1.110
 4674TIP3    H213968   5.774   1.623   1.175
 4675TIP3   OH213969   3.051   6.017   3.736
 4675TIP3    H113970   3.114   6.020   3.663
 4675TIP3    H213971   3.105   6.001   3.813
 4676TIP3   OH213972   1.662   1.570   1.081
 4676TIP3    H113973   1.652   1.476   1.096
 4676TIP3    H213974   1.601   1.610   1.142
 4677TIP3   OH213975   5.296   4.455   2.732
 4677TIP3    H113976   5.357   4.424   2.665
 4677TIP3    H213977   5.287   4.381   2.792
 4678TIP3   OH213978   0.214   1.984   4.659
 4678TIP3    H113979   0.138   2.041   4.644
 4678TIP3    H213980   0.194   1.905   4.609
 4679TIP3   OH213981   3.476   3.348   3.212
 4679TIP3    H113982   3.413   3.358   3.140
 4679TIP3    H213983   3.482   3.436   3.250
 4680TIP3   OH213984   5.441   7.578   3.883
 4680TIP3    H113985   5.346   7.569   3.874
 4680TIP3    H213986   5.476   7.549   3.799
 4681TIP3   OH213987   3.753   7.156   2.255
 4681TIP3    H113988   3.775   7.127   2.343
 4681TIP3    H213989   3.673   7.108   2.233
 4682TIP3   OH213990   3.325   4.401   3.660
 4682TIP3    H113991   3.417   4.374   3.659
 4682TIP3    H213992   3.321   4.474   3.599
 4683TIP3   OH213993   0.896   0.072   6.068
 4683TIP3    H113994   0.867   0.018   6.140
 4683TIP3    H213995   0.938   0.011   6.007
 4684TIP3   OH213996   7.781   7.741   4.955
 4684TIP3    H113997   7.686   7.732   4.944
 4684TIP3    H213998   7.795   7.734   5.050
 4685TIP3   OH213999   3.270   6.314   2.335
 4685TIP3    H114000   3.281   6.271   2.250
 4685TIP3    H214001   3.194   6.371   2.323
 4686TIP3   OH214002   2.262   7.202   4.412
 4686TIP3    H114003   2.196   7.249   4.360
 4686TIP3    H214004   2.337   7.193   4.353
 4687TIP3   OH214005   7.863   6.096   4.536
 4687TIP3    H114006   7.882   6.098   4.442
 4687TIP3    H214007   7.943   6.063   4.576
 4688TIP3   OH214008   5.515   6.528   2.519
 4688TIP3    H114009   5.463   6.544   2.598
 4688TIP3    H214010   5.541   6.436   2.526
 4689TIP3   OH214011   1.401   2.108   1.786
 4689TIP3    H114012   1.483   2.071   1.754
 4689TIP3    H214013   1.402   2.090   1.880
 4690TIP3   OH214014   3.837   6.951   4.361
 4690TIP3    H114015   3.788   6.876   4.396
 4690TIP3    H214016   3.786   6.979   4.285
 4691TIP3   OH214017   3.240   2.165   3.153
 4691TIP3    H114018   3.258   2.238   3.213
 4691TIP3    H214019   3.163   2.122   3.190
 4692TIP3   OH214020   3.285   5.469   5.968
 4692TIP3    H114021   3.234   5.405   5.918
 4692TIP3    H214022   3.363   5.420   5.995
 4693TIP3   OH214023   6.424   7.485   5.223
 4693TIP3    H114024   6.436   7.391   5.240
 4693TIP3    H214025   6.352   7.510   5.281
 4694TIP3   OH214026   5.995   4.038   0.097
 4694TIP3    H114027   6.074   3.984   0.094
 4694TIP3    H214028   5.955   4.026   0.011
 4695TIP3   OH214029   4.406   2.137   2.557
 4695TIP3    H114030   4.498   2.109   2.559
 4695TIP3    H214031   4.359   2.066   2.600
 4696TIP3   OH214032   7.872   2.996   4.424
 4696TIP3    H114033   7.882   3.022   4.516
 4696TIP3    H214034   7.859   2.902   4.427
 4697TIP3   OH214035   5.751   5.117   2.307
 4697TIP3    H114036   5.837   5.100   2.269
 4697TIP3    H214037   5.770   5.164   2.388
 4698TIP3   OH214038   1.630   4.140   2.430
 4698TIP3    H114039   1.571   4.077   2.472
 4698TIP3    H214040   1.718   4.104   2.445
 4699TIP3   OH214041   2.183   0.402   4.249
 4699TIP3    H114042   2.125   0.477   4.258
 4699TIP3    H214043   2.125   0.326   4.260
 4700TIP3   OH214044   1.459   0.646   5.352
 4700TIP3    H114045   1.464   0.707   5.426
 4700TIP3    H214046   1.549   0.640   5.320
 4701TIP3   OH214047   4.565   3.521   6.242
 4701TIP3    H114048   4.518   3.493   6.321
 4701TIP3    H214049   4.564   3.443   6.185
 4702TIP3   OH214050   1.038   4.462   2.975
 4702TIP3    H114051   1.011   4.392   2.916
 4702TIP3    H214052   1.134   4.456   2.978
 4703TIP3   OH214053   1.288   3.464   3.625
 4703TIP3    H114054   1.235   3.532   3.581
 4703TIP3    H214055   1.377   3.481   3.595
 4704TIP3   OH214056   4.561   3.133   3.339
 4704TIP3    H114057   4.560   3.047   3.296
 4704TIP3    H214058   4.479   3.174   3.312
 4705TIP3   OH214059   4.760   1.559   5.762
 4705TIP3    H114060   4.681   1.533   5.716
 4705TIP3    H214061   4.832   1.533   5.704
 4706TIP3   OH214062   4.318   0.731   6.277
 4706TIP3    H114063   4.328   0.820   6.244
 4706TIP3    H214064   4.231   0.730   6.318
 4707TIP3   OH214065   3.218   1.091   1.605
 4707TIP3    H114066   3.143   1.091   1.546
 4707TIP3    H214067   3.191   1.146   1.678
 4708TIP3   OH214068   7.810   4.327   5.043
 4708TIP3    H114069   7.719   4.341   5.070
 4708TIP3    H214070   7.857   4.402   5.080
 4709TIP3   OH214071   2.793   5.138   5.985
 4709TIP3    H114072   2.756   5.119   6.071
 4709TIP3    H214073   2.885   5.158   6.002
 4710TIP3   OH214074   5.789   5.871   5.912
 4710TIP3    H114075   5.795   5.945   5.851
 4710TIP3    H214076   5.873   5.826   5.903
 4711TIP3   OH214077   4.491   3.710   0.770
 4711TIP3    H114078   4.435   3.666   0.834
 4711TIP3    H214079   4.580   3.695   0.801
 4712TIP3   OH214080   6.307   0.117   3.006
 4712TIP3    H114081   6.370   0.161   3.064
 4712TIP3    H214082   6.360   0.058   2.953
 4713TIP3   OH214083   5.597   5.614   1.085
 4713TIP3    H114084   5.518   5.566   1.060
 4713TIP3    H214085   5.579   5.646   1.173
 4714TIP3   OH214086   0.101   1.755   4.531
 4714TIP3    H114087   0.044   1.798   4.467
 4714TIP3    H214088   0.052   1.677   4.558
 4715TIP3   OH214089   2.844   0.223   4.525
 4715TIP3    H114090   2.762   0.267   4.547
 4715TIP3    H214091   2.900   0.237   4.602
 4716TIP3   OH214092   4.838   3.306   1.175
 4716TIP3    H114093   4.842   3.281   1.083
 4716TIP3    H214094   4.793   3.234   1.218
 4717TIP3   OH214095   3.392   4.910   5.732
 4717TIP3    H114096   3.322   4.921   5.667
 4717TIP3    H214097   3.465   4.873   5.682
 4718TIP3   OH214098   1.214   3.108   5.760
 4718TIP3    H114099   1.181   3.198   5.750
 4718TIP3    H214100   1.279   3.114   5.830
 4719TIP3   OH214101   8.242   2.665   5.047
 4719TIP3    H114102   8.237   2.758   5.072
 4719TIP3    H214103   8.239   2.665   4.952
 4720TIP3   OH214104   6.050   4.048   2.770
 4720TIP3    H114105   6.091   4.049   2.856
 4720TIP3    H214106   5.963   4.084   2.784
 4721TIP3   OH214107   1.980   6.695   3.244
 4721TIP3    H114108   2.039   6.636   3.291
 4721TIP3    H214109   1.969   6.653   3.158
 4722TIP3   OH214110   5.189   6.858   1.379
 4722TIP3    H114111   5.197   6.820   1.291
 4722TIP3    H214112   5.109   6.910   1.375
 4723TIP3   OH214113   3.057   3.829   3.461
 4723TIP3    H114114   3.151   3.835   3.479
 4723TIP3    H214115   3.023   3.915   3.486
 4724TIP3   OH214116   3.128   4.762   5.239
 4724TIP3    H114117   3.137   4.857   5.237
 4724TIP3    H214118   3.064   4.742   5.170
 4725TIP3   OH214119   7.877   4.284   4.072
 4725TIP3    H114120   7.884   4.301   4.166
 4725TIP3    H214121   7.967   4.273   4.044
 4726TIP3   OH214122   4.688   1.135   2.421
 4726TIP3    H114123   4.622   1.202   2.404
 4726TIP3    H214124   4.641   1.066   2.467
 4727TIP3   OH214125   1.235   5.135   6.186
 4727TIP3    H114126   1.189   5.209   6.225
 4727TIP3    H214127   1.281   5.172   6.110
 4728TIP3   OH214128   6.670   7.516   4.852
 4728TIP3    H114129   6.699   7.471   4.773
 4728TIP3    H214130   6.735   7.494   4.919
 4729TIP3   OH214131   0.728   6.723   0.726
 4729TIP3    H114132   0.755   6.705   0.636
 4729TIP3    H214133   0.656   6.661   0.742
 4730TIP3   OH214134   2.175   1.371   5.489
 4730TIP3    H114135   2.190   1.458   5.452
 4730TIP3    H214136   2.239   1.315   5.445
 4731TIP3   OH214137   8.282   2.655   0.242
 4731TIP3    H114138   8.313   2.735   0.200
 4731TIP3    H214139   8.257   2.683   0.331
 4732TIP3   OH214140   0.630   7.146   2.256
 4732TIP3    H114141   0.705   7.087   2.249
 4732TIP3    H214142   0.560   7.102   2.208
 4733TIP3   OH214143   1.942   3.919   1.945
 4733TIP3    H114144   2.011   3.856   1.966
 4733TIP3    H214145   1.984   4.005   1.953
 4734TIP3   OH214146   3.224   6.927   3.713
 4734TIP3    H114147   3.231   6.879   3.630
 4734TIP3    H214148   3.155   6.882   3.761
 4735TIP3   OH214149   3.344   5.367   2.162
 4735TIP3    H114150   3.435   5.346   2.184
 4735TIP3    H214151   3.346   5.387   2.068
 4736TIP3   OH214152   5.671   6.844   1.538
 4736TIP3    H114153   5.669   6.773   1.474
 4736TIP3    H214154   5.760   6.879   1.531
 4737TIP3   OH214155   3.763   6.187   1.216
 4737TIP3    H114156   3.792   6.275   1.190
 4737TIP3    H214157   3.733   6.197   1.306
 4738TIP3   OH214158   7.480   3.684   0.210
 4738TIP3    H114159   7.445   3.617   0.152
 4738TIP3    H214160   7.468   3.766   0.162
 4739TIP3   OH214161   5.221   7.332   0.213
 4739TIP3    H114162   5.315   7.344   0.227
 4739TIP3    H214163   5.216   7.283   0.130
 4740TIP3   OH214164   6.688   6.232   3.573
 4740TIP3    H114165   6.629   6.297   3.536
 4740TIP3    H214166   6.740   6.281   3.637
 4741TIP3   OH214167   0.021   2.965   5.503
 4741TIP3    H114168   0.054   2.884   5.541
 4741TIP3    H214169   0.042   3.032   5.568
 4742TIP3   OH214170   7.455   6.712   6.777
 4742TIP3    H114171   7.452   6.804   6.805
 4742TIP3    H214172   7.392   6.707   6.705
 4743TIP3   OH214173   6.219   2.139   4.140
 4743TIP3    H114174   6.274   2.122   4.216
 4743TIP3    H214175   6.136   2.171   4.177
 4744TIP3   OH214176   0.155   7.237   3.688
 4744TIP3    H114177   0.179   7.200   3.603
 4744TIP3    H214178   0.236   7.274   3.722
 4745TIP3   OH214179   2.571   0.251   2.096
 4745TIP3    H114180   2.642   0.188   2.087
 4745TIP3    H214181   2.531   0.231   2.181
 4746TIP3   OH214182   0.086   1.930   2.392
 4746TIP3    H114183   0.078   1.841   2.358
 4746TIP3    H214184   0.063   1.986   2.317
 4747TIP3   OH214185   0.394   5.773   1.170
 4747TIP3    H114186   0.453   5.826   1.223
 4747TIP3    H214187   0.424   5.786   1.080
 4748TIP3   OH214188   2.692   3.135   0.129
 4748TIP3    H114189   2.662   3.045   0.119
 4748TIP3    H214190   2.656   3.182   0.054
 4749TIP3   OH214191   1.424   3.743   2.040
 4749TIP3    H114192   1.428   3.663   1.987
 4749TIP3    H214193   1.509   3.784   2.027
 4750TIP3   OH214194   2.475   1.880   6.195
 4750TIP3    H114195   2.546   1.874   6.260
 4750TIP3    H214196   2.519   1.865   6.112
 4751TIP3   OH214197   7.444   0.829   3.547
 4751TIP3    H114198   7.530   0.831   3.504
 4751TIP3    H214199   7.437   0.741   3.582
 4752TIP3   OH214200   0.084   5.907   5.090
 4752TIP3    H114201   0.050   5.945   5.171
 4752TIP3    H214202   0.162   5.959   5.070
 4753TIP3   OH214203   4.488   5.368   2.275
 4753TIP3    H114204   4.540   5.410   2.207
 4753TIP3    H214205   4.413   5.426   2.287
 4754TIP3   OH214206   2.538   2.442   5.330
 4754TIP3    H114207   2.464   2.464   5.386
 4754TIP3    H214208   2.589   2.523   5.324
 4755TIP3   OH214209   4.375   2.787   4.777
 4755TIP3    H114210   4.361   2.836   4.858
 4755TIP3    H214211   4.352   2.696   4.799
 4756TIP3   OH214212   6.550   5.821   5.235
 4756TIP3    H114213   6.598   5.777   5.306
 4756TIP3    H214214   6.546   5.756   5.165
 4757TIP3   OH214215   1.751   1.044   5.376
 4757TIP3    H114216   1.838   1.062   5.340
 4757TIP3    H214217   1.753   1.081   5.464
 4758TIP3   OH214218   7.099   0.566   4.466
 4758TIP3    H114219   7.126   0.526   4.549
 4758TIP3    H214220   7.023   0.515   4.438
 4759TIP3   OH214221   1.154   2.494   1.397
 4759TIP3    H114222   1.214   2.486   1.322
 4759TIP3    H214223   1.207   2.538   1.464
 4760TIP3   OH214224   5.867   5.115   4.156
 4760TIP3    H114225   5.939   5.153   4.207
 4760TIP3    H214226   5.850   5.030   4.197
 4761TIP3   OH214227   4.924   7.655   6.014
 4761TIP3    H114228   4.831   7.654   6.038
 4761TIP3    H214229   4.952   7.564   6.024
 4762TIP3   OH214230   6.601   3.920   0.176
 4762TIP3    H114231   6.667   3.856   0.149
 4762TIP3    H214232   6.542   3.870   0.232
 4763TIP3   OH214233   2.121   1.405   0.087
 4763TIP3    H114234   2.062   1.343   0.129
 4763TIP3    H214235   2.119   1.381  -0.006
 4764TIP3   OH214236   5.687   4.092   4.544
 4764TIP3    H114237   5.741   4.051   4.476
 4764TIP3    H214238   5.688   4.029   4.616
 4765TIP3   OH214239   6.408   5.666   6.300
 4765TIP3    H114240   6.497   5.690   6.323
 4765TIP3    H214241   6.417   5.602   6.229
 4766TIP3   OH214242   1.658   4.333   1.987
 4766TIP3    H114243   1.695   4.333   1.899
 4766TIP3    H214244   1.727   4.369   2.042
 4767TIP3   OH214245   6.871   2.102   5.767
 4767TIP3    H114246   6.960   2.075   5.744
 4767TIP3    H214247   6.825   2.108   5.683
 4768TIP3   OH214248   1.541   5.504   0.106
 4768TIP3    H114249   1.494   5.487   0.024
 4768TIP3    H214250   1.472   5.513   0.171
 4769TIP3   OH214251   5.425   1.221   5.438
 4769TIP3    H114252   5.390   1.132   5.443
 4769TIP3    H214253   5.516   1.213   5.466
 4770TIP3   OH214254   2.871   3.006   2.001
 4770TIP3    H114255   2.776   2.999   1.990
 4770TIP3    H214256   2.899   2.919   2.030
 4771TIP3   OH214257   3.946   6.800   0.395
 4771TIP3    H114258   4.024   6.834   0.440
 4771TIP3    H214259   3.960   6.705   0.392
 4772TIP3   OH214260   2.636   6.424   2.257
 4772TIP3    H114261   2.722   6.428   2.299
 4772TIP3    H214262   2.654   6.388   2.170
 4773TIP3   OH214263   4.356   3.112   6.131
 4773TIP3    H114264   4.286   3.176   6.124
 4773TIP3    H214265   4.436   3.161   6.112
 4774TIP3   OH214266   2.124   6.544   0.162
 4774TIP3    H114267   2.128   6.541   0.258
 4774TIP3    H214268   2.174   6.622   0.138
 4775TIP3   OH214269   3.086   5.701   2.527
 4775TIP3    H114270   3.002   5.681   2.486
 4775TIP3    H214271   3.101   5.793   2.506
 4776TIP3   OH214272   4.073   7.350   6.268
 4776TIP3    H114273   4.089   7.353   6.173
 4776TIP3    H214274   4.160   7.336   6.306
 4777TIP3   OH214275   3.533   5.002   1.658
 4777TIP3    H114276   3.608   4.997   1.598
 4777TIP3    H214277   3.459   4.973   1.605
 4778TIP3   OH214278   8.098   0.498   5.738
 4778TIP3    H114279   8.075   0.455   5.820
 4778TIP3    H214280   8.066   0.588   5.747
 4779TIP3   OH214281   8.024   5.176   3.004
 4779TIP3    H114282   8.065   5.263   3.004
 4779TIP3    H214283   7.953   5.184   3.067
 4780TIP3   OH214284   8.133   0.740   5.377
 4780TIP3    H114285   8.165   0.771   5.462
 4780TIP3    H214286   8.084   0.660   5.397
 4781TIP3   OH214287   1.878   7.504   3.907
 4781TIP3    H114288   1.974   7.508   3.912
 4781TIP3    H214289   1.856   7.552   3.828
 4782TIP3   OH214290   6.721   0.563   2.481
 4782TIP3    H114291   6.789   0.630   2.482
 4782TIP3    H214292   6.665   0.585   2.555
 4783TIP3   OH214293   1.542   1.502   4.455
 4783TIP3    H114294   1.468   1.442   4.449
 4783TIP3    H214295   1.608   1.455   4.506
 4784TIP3   OH214296   1.714   2.544   0.922
 4784TIP3    H114297   1.790   2.554   0.865
 4784TIP3    H214298   1.708   2.627   0.969
 4785TIP3   OH214299   0.722   4.542   3.794
 4785TIP3    H114300   0.711   4.514   3.703
 4785TIP3    H214301   0.744   4.461   3.842
 4786TIP3   OH214302   1.879   5.596   0.683
 4786TIP3    H114303   1.970   5.573   0.664
 4786TIP3    H214304   1.875   5.691   0.669
 4787TIP3   OH214305   4.132   1.288   2.057
 4787TIP3    H114306   4.199   1.221   2.047
 4787TIP3    H214307   4.068   1.250   2.117
 4788TIP3   OH214308   1.125   4.616   6.488
 4788TIP3    H114309   1.120   4.701   6.445
 4788TIP3    H214310   1.109   4.553   6.418
 4789TIP3   OH214311   6.128   4.908   2.683
 4789TIP3    H114312   6.128   4.882   2.775
 4789TIP3    H214313   6.038   4.892   2.653
 4790TIP3   OH214314   6.981   6.281   3.892
 4790TIP3    H114315   7.004   6.284   3.985
 4790TIP3    H214316   7.064   6.295   3.846
 4791TIP3   OH214317   4.596   2.105   6.626
 4791TIP3    H114318   4.597   2.025   6.573
 4791TIP3    H214319   4.524   2.157   6.589
 4792TIP3   OH214320   4.356   2.370   5.125
 4792TIP3    H114321   4.417   2.360   5.052
 4792TIP3    H214322   4.292   2.300   5.113
 4793TIP3   OH214323   3.487   3.935   2.160
 4793TIP3    H114324   3.460   3.924   2.069
 4793TIP3    H214325   3.435   4.009   2.192
 4794TIP3   OH214326   7.599   1.912   1.353
 4794TIP3    H114327   7.681   1.870   1.327
 4794TIP3    H214328   7.605   1.919   1.448
 4795TIP3   OH214329   6.699  -0.028   1.468
 4795TIP3    H114330   6.716   0.024   1.547
 4795TIP3    H214331   6.708   0.035   1.396
 4796TIP3   OH214332   4.073   3.850   4.438
 4796TIP3    H114333   4.113   3.835   4.352
 4796TIP3    H214334   4.106   3.780   4.493
 4797TIP3   OH214335   0.003   6.413   2.101
 4797TIP3    H114336  -0.073   6.385   2.051
 4797TIP3    H214337   0.034   6.492   2.055
 4798TIP3   OH214338   1.542   2.211   6.704
 4798TIP3    H114339   1.598   2.289   6.696
 4798TIP3    H214340   1.456   2.241   6.675
 4799TIP3   OH214341   2.949   4.236   1.634
 4799TIP3    H114342   2.965   4.158   1.687
 4799TIP3    H214343   3.036   4.262   1.603
 4800TIP3   OH214344   0.597   7.655   0.566
 4800TIP3    H114345   0.602   7.655   0.471
 4800TIP3    H214346   0.504   7.661   0.586
 4801TIP3   OH214347   4.610   5.598   0.558
 4801TIP3    H114348   4.580   5.512   0.529
 4801TIP3    H214349   4.597   5.597   0.652
 4802TIP3   OH214350   0.427   0.245   5.594
 4802TIP3    H114351   0.427   0.326   5.644
 4802TIP3    H214352   0.500   0.194   5.630
 4803TIP3   OH214353   0.474   4.696   1.014
 4803TIP3    H114354   0.490   4.608   1.048
 4803TIP3    H214355   0.413   4.683   0.942
 4804TIP3   OH214356   5.601   5.454   4.497
 4804TIP3    H114357   5.525   5.508   4.476
 4804TIP3    H214358   5.674   5.516   4.498
 4805TIP3   OH214359   6.043   7.151   5.546
 4805TIP3    H114360   6.003   7.159   5.633
 4805TIP3    H214361   6.021   7.233   5.502
 4806TIP3   OH214362   0.604   2.969   3.283
 4806TIP3    H114363   0.646   2.986   3.367
 4806TIP3    H214364   0.654   3.020   3.219
 4807TIP3   OH214365   1.333   7.721   6.307
 4807TIP3    H114366   1.305   7.707   6.397
 4807TIP3    H214367   1.420   7.760   6.314
 4808TIP3   OH214368   6.208   4.014   4.212
 4808TIP3    H114369   6.253   4.033   4.294
 4808TIP3    H214370   6.242   3.929   4.184
 4809TIP3   OH214371   6.115   6.495   5.871
 4809TIP3    H114372   6.187   6.494   5.807
 4809TIP3    H214373   6.138   6.567   5.931
 4810TIP3   OH214374   5.689   1.572   6.500
 4810TIP3    H114375   5.672   1.486   6.461
 4810TIP3    H214376   5.767   1.604   6.453
 4811TIP3   OH214377   5.266   0.270   1.078
 4811TIP3    H114378   5.295   0.361   1.078
 4811TIP3    H214379   5.237   0.254   0.988
 4812TIP3   OH214380   7.688   0.074   3.443
 4812TIP3    H114381   7.781   0.071   3.422
 4812TIP3    H214382   7.659  -0.017   3.435
 4813TIP3   OH214383   8.177   5.287   0.006
 4813TIP3    H114384   8.117   5.334  -0.051
 4813TIP3    H214385   8.195   5.349   0.077
 4814TIP3   OH214386   2.134   3.279   5.134
 4814TIP3    H114387   2.061   3.218   5.130
 4814TIP3    H214388   2.108   3.343   5.200
 4815TIP3   OH214389   7.218   7.621   6.694
 4815TIP3    H114390   7.159   7.686   6.656
 4815TIP3    H214391   7.168   7.580   6.764
 4816TIP3   OH214392   7.858   7.348   0.639
 4816TIP3    H114393   7.813   7.265   0.652
 4816TIP3    H214394   7.935   7.326   0.586
 4817TIP3   OH214395   2.891   1.859   5.033
 4817TIP3    H114396   2.913   1.930   4.973
 4817TIP3    H214397   2.815   1.817   4.994
 4818TIP3   OH214398   4.306   6.499   4.222
 4818TIP3    H114399   4.276   6.465   4.306
 4818TIP3    H214400   4.275   6.435   4.158
 4819TIP3   OH214401   5.536   7.120   0.284
 4819TIP3    H114402   5.503   7.210   0.290
 4819TIP3    H214403   5.571   7.113   0.196
 4820TIP3   OH214404   7.827   3.448   4.567
 4820TIP3    H114405   7.909   3.485   4.599
 4820TIP3    H214406   7.834   3.354   4.586
 4821TIP3   OH214407   5.809   4.813   6.662
 4821TIP3    H114408   5.822   4.754   6.737
 4821TIP3    H214409   5.843   4.764   6.587
 4822TIP3   OH214410   6.071   0.077   6.690
 4822TIP3    H114411   6.160   0.108   6.707
 4822TIP3    H214412   6.050   0.023   6.767
 4823TIP3   OH214413   5.498   2.675   4.336
 4823TIP3    H114414   5.515   2.685   4.430
 4823TIP3    H214415   5.576   2.634   4.301
 4824TIP3   OH214416   4.398   4.957   0.441
 4824TIP3    H114417   4.345   4.890   0.483
 4824TIP3    H214418   4.383   5.036   0.494
 4825TIP3   OH214419   2.224   2.588   0.511
 4825TIP3    H114420   2.300   2.594   0.569
 4825TIP3    H214421   2.216   2.495   0.490
 4826TIP3   OH214422   7.379   0.820   1.839
 4826TIP3    H114423   7.437   0.876   1.787
 4826TIP3    H214424   7.306   0.801   1.780
 4827TIP3   OH214425   3.582   6.323   2.106
 4827TIP3    H114426   3.622   6.410   2.100
 4827TIP3    H214427   3.637   6.267   2.051
 4828TIP3   OH214428   5.770   1.782   5.312
 4828TIP3    H114429   5.853   1.773   5.265
 4828TIP3    H214430   5.789   1.847   5.380
 4829TIP3   OH214431   7.118   2.289   1.809
 4829TIP3    H114432   7.102   2.196   1.792
 4829TIP3    H214433   7.155   2.322   1.727
 4830TIP3   OH214434   4.261   0.752   4.697
 4830TIP3    H114435   4.255   0.661   4.668
 4830TIP3    H214436   4.251   0.803   4.616
 4831TIP3   OH214437   3.236   2.687   4.564
 4831TIP3    H114438   3.232   2.716   4.655
 4831TIP3    H214439   3.230   2.768   4.513
 4832TIP3   OH214440   5.721   3.775   3.378
 4832TIP3    H114441   5.685   3.810   3.297
 4832TIP3    H214442   5.810   3.808   3.382
 4833TIP3   OH214443   2.089   1.698   4.555
 4833TIP3    H114444   2.104   1.785   4.592
 4833TIP3    H214445   2.175   1.655   4.557
 4834TIP3   OH214446  -0.022   7.088   2.710
 4834TIP3    H114447  -0.010   7.167   2.761
 4834TIP3    H214448   0.038   7.097   2.636
 4835TIP3   OH214449   4.543   5.933   0.352
 4835TIP3    H114450   4.472   5.995   0.339
 4835TIP3    H214451   4.512   5.852   0.312
 4836TIP3   OH214452   1.393   0.862   4.265
 4836TIP3    H114453   1.304   0.893   4.246
 4836TIP3    H214454   1.399   0.864   4.360
 4837TIP3   OH214455   5.504   3.622   6.764
 4837TIP3    H114456   5.543   3.671   6.692
 4837TIP3    H214457   5.578   3.602   6.822
 4838TIP3   OH214458   4.763   1.385   6.201
 4838TIP3    H114459   4.782   1.361   6.110
 4838TIP3    H214460   4.840   1.357   6.250
 4839TIP3   OH214461   0.551   6.043   2.433
 4839TIP3    H114462   0.521   6.115   2.488
 4839TIP3    H214463   0.607   6.085   2.367
 4840TIP3   OH214464   0.427   5.426   5.479
 4840TIP3    H114465   0.498   5.467   5.428
 4840TIP3    H214466   0.365   5.397   5.413
 4841TIP3   OH214467   0.082   1.904   6.372
 4841TIP3    H114468   0.149   1.877   6.435
 4841TIP3    H214469   0.112   1.870   6.288
 4842TIP3   OH214470   6.684   2.976   2.576
 4842TIP3    H114471   6.769   3.007   2.606
 4842TIP3    H214472   6.630   2.973   2.655
 4843TIP3   OH214473   1.170  -0.003   0.864
 4843TIP3    H114474   1.237   0.051   0.906
 4843TIP3    H214475   1.188  -0.091   0.895
 4844TIP3   OH214476   6.858   5.461   5.242
 4844TIP3    H114477   6.793   5.408   5.196
 4844TIP3    H214478   6.809   5.536   5.275
 4845TIP3   OH214479   5.943   1.245   5.346
 4845TIP3    H114480   5.954   1.309   5.276
 4845TIP3    H214481   6.023   1.251   5.398
 4846TIP3   OH214482   6.733   2.399   2.176
 4846TIP3    H114483   6.742   2.403   2.081
 4846TIP3    H214484   6.709   2.308   2.194
 4847TIP3   OH214485   2.629   3.530   3.009
 4847TIP3    H114486   2.665   3.507   2.923
 4847TIP3    H214487   2.705   3.529   3.067
 4848TIP3   OH214488   4.664   1.677   6.265
 4848TIP3    H114489   4.682   1.585   6.284
 4848TIP3    H214490   4.641   1.678   6.172
 4849TIP3   OH214491   3.903   4.378   5.975
 4849TIP3    H114492   3.890   4.288   5.946
 4849TIP3    H214493   3.870   4.432   5.903
 4850TIP3   OH214494   6.019   0.104   1.374
 4850TIP3    H114495   6.026   0.064   1.287
 4850TIP3    H214496   5.937   0.154   1.370
 4851TIP3   OH214497   2.190   4.877   1.455
 4851TIP3    H114498   2.107   4.830   1.470
 4851TIP3    H214499   2.251   4.808   1.427
 4852TIP3   OH214500   4.035   3.089   0.265
 4852TIP3    H114501   4.055   3.015   0.207
 4852TIP3    H214502   4.004   3.157   0.206
 4853TIP3   OH214503   2.382   6.446   0.654
 4853TIP3    H114504   2.345   6.457   0.566
 4853TIP3    H214505   2.469   6.410   0.639
 4854TIP3   OH214506   2.980   7.513   3.713
 4854TIP3    H114507   2.917   7.534   3.782
 4854TIP3    H214508   3.012   7.598   3.683
 4855TIP3   OH214509   3.980   2.813   6.702
 4855TIP3    H114510   3.955   2.903   6.683
 4855TIP3    H214511   3.996   2.811   6.796
 4856TIP3   OH214512   6.150   3.254   3.535
 4856TIP3    H114513   6.073   3.199   3.553
 4856TIP3    H214514   6.221   3.191   3.524
 4857TIP3   OH214515   1.149   2.765   4.999
 4857TIP3    H114516   1.180   2.713   4.925
 4857TIP3    H214517   1.181   2.718   5.076
 4858TIP3   OH214518   3.272   4.747   4.863
 4858TIP3    H114519   3.192   4.697   4.878
 4858TIP3    H214520   3.312   4.706   4.786
 4859TIP3   OH214521   4.586   0.776   1.938
 4859TIP3    H114522   4.638   0.706   1.897
 4859TIP3    H214523   4.606   0.854   1.886
 4860TIP3   OH214524   0.680   3.197   1.913
 4860TIP3    H114525   0.638   3.111   1.902
 4860TIP3    H214526   0.623   3.243   1.975
 4861TIP3   OH214527   2.815   3.900   5.488
 4861TIP3    H114528   2.767   3.828   5.448
 4861TIP3    H214529   2.902   3.863   5.506
 4862TIP3   OH214530   6.053   2.564   6.176
 4862TIP3    H114531   6.037   2.626   6.105
 4862TIP3    H214532   6.135   2.521   6.152
 4863TIP3   OH214533   4.749   4.635   4.570
 4863TIP3    H114534   4.662   4.645   4.531
 4863TIP3    H214535   4.733   4.633   4.665
 4864TIP3   OH214536   3.797   3.039   3.555
 4864TIP3    H114537   3.788   3.133   3.569
 4864TIP3    H214538   3.774   3.025   3.463
 4865TIP3   OH214539   5.166   3.342   6.562
 4865TIP3    H114540   5.250   3.302   6.539
 4865TIP3    H214541   5.174   3.365   6.654
 4866TIP3   OH214542   1.553   0.072   3.489
 4866TIP3    H114543   1.481   0.009   3.488
 4866TIP3    H214544   1.539   0.124   3.410
 4867TIP3   OH214545   5.696   4.781   3.970
 4867TIP3    H114546   5.614   4.823   3.996
 4867TIP3    H214547   5.717   4.821   3.885
 4868TIP3   OH214548   0.874   6.408   2.900
 4868TIP3    H114549   0.825   6.331   2.870
 4868TIP3    H214550   0.860   6.474   2.832
 4869TIP3   OH214551   3.167   2.374   5.432
 4869TIP3    H114552   3.197   2.465   5.429
 4869TIP3    H214553   3.233   2.330   5.486
 4870TIP3   OH214554   2.242   7.430   3.152
 4870TIP3    H114555   2.197   7.464   3.229
 4870TIP3    H214556   2.249   7.336   3.168
 4871TIP3   OH214557   6.295   0.863   3.972
 4871TIP3    H114558   6.217   0.888   4.022
 4871TIP3    H214559   6.260   0.813   3.898
 4872TIP3   OH214560   4.295   3.967   0.831
 4872TIP3    H114561   4.386   3.976   0.804
 4872TIP3    H214562   4.291   3.884   0.878
 4873TIP3   OH214563   3.449   4.103   0.587
 4873TIP3    H114564   3.389   4.155   0.532
 4873TIP3    H214565   3.449   4.148   0.671
 4874TIP3   OH214566   4.952   3.839   5.720
 4874TIP3    H114567   5.035   3.792   5.714
 4874TIP3    H214568   4.971   3.916   5.774
 4875TIP3   OH214569   5.484   3.028   3.858
 4875TIP3    H114570   5.455   2.942   3.827
 4875TIP3    H214571   5.406   3.069   3.893
 4876TIP3   OH214572   0.168   7.290   4.946
 4876TIP3    H114573   0.138   7.218   5.001
 4876TIP3    H214574   0.234   7.334   4.999
 4877TIP3   OH214575   0.178   2.132   4.105
 4877TIP3    H114576   0.223   2.048   4.106
 4877TIP3    H214577   0.104   2.119   4.046
 4878TIP3   OH214578   0.127   6.030   6.045
 4878TIP3    H114579   0.117   5.953   6.100
 4878TIP3    H214580   0.159   6.098   6.105
 4879TIP3   OH214581   1.214   0.653   2.542
 4879TIP3    H114582   1.196   0.617   2.455
 4879TIP3    H214583   1.196   0.746   2.534
 4880TIP3   OH214584   6.733   6.475   0.359
 4880TIP3    H114585   6.750   6.470   0.265
 4880TIP3    H214586   6.666   6.542   0.368
 4881TIP3   OH214587   2.435   6.822   2.901
 4881TIP3    H114588   2.367   6.851   2.961
 4881TIP3    H214589   2.502   6.783   2.958
 4882TIP3   OH214590   1.122   0.353   0.761
 4882TIP3    H114591   1.112   0.274   0.708
 4882TIP3    H214592   1.204   0.342   0.807
 4883TIP3   OH214593   8.211   3.833   2.522
 4883TIP3    H114594   8.183   3.854   2.433
 4883TIP3    H214595   8.132   3.845   2.575
 4884TIP3   OH214596   7.442   3.118   0.148
 4884TIP3    H114597   7.517   3.087   0.197
 4884TIP3    H214598   7.414   3.197   0.193
 4885TIP3   OH214599   7.931   3.857   0.719
 4885TIP3    H114600   7.969   3.846   0.806
 4885TIP3    H214601   7.848   3.810   0.722
 4886TIP3   OH214602   0.735   2.231   0.866
 4886TIP3    H114603   0.746   2.285   0.945
 4886TIP3    H214604   0.695   2.289   0.802
 4887TIP3   OH214605   6.755   5.359   3.111
 4887TIP3    H114606   6.725   5.447   3.132
 4887TIP3    H214607   6.796   5.366   3.025
 4888TIP3   OH214608   5.169   1.796   1.376
 4888TIP3    H114609   5.208   1.749   1.302
 4888TIP3    H214610   5.240   1.847   1.413
 4889TIP3   OH214611   5.820   0.170   5.151
 4889TIP3    H114612   5.774   0.087   5.154
 4889TIP3    H214613   5.909   0.149   5.180
 4890TIP3   OH214614   2.962   4.027   2.086
 4890TIP3    H114615   3.055   4.041   2.070
 4890TIP3    H214616   2.955   3.933   2.103
 4891TIP3   OH214617   2.902   4.001   5.919
 4891TIP3    H114618   2.920   4.045   6.002
 4891TIP3    H214619   2.875   4.072   5.860
 4892TIP3   OH214620   5.434   6.611   1.547
 4892TIP3    H114621   5.453   6.704   1.553
 4892TIP3    H214622   5.500   6.576   1.487
 4893TIP3   OH214623   2.069   2.580   3.596
 4893TIP3    H114624   2.118   2.564   3.677
 4893TIP3    H214625   2.131   2.557   3.526
 4894TIP3   OH214626   2.394   0.262   0.360
 4894TIP3    H114627   2.349   0.179   0.372
 4894TIP3    H214628   2.331   0.317   0.313
 4895TIP3   OH214629   4.721   7.185   5.078
 4895TIP3    H114630   4.630   7.160   5.087
 4895TIP3    H214631   4.739   7.236   5.157
 4896TIP3   OH214632   2.133   5.207   3.597
 4896TIP3    H114633   2.156   5.183   3.686
 4896TIP3    H214634   2.170   5.137   3.542
 4897TIP3   OH214635   0.593   7.523   2.514
 4897TIP3    H114636   0.664   7.586   2.524
 4897TIP3    H214637   0.620   7.447   2.565
 4898TIP3   OH214638   7.451   2.954   6.021
 4898TIP3    H114639   7.426   3.034   6.066
 4898TIP3    H214640   7.475   2.893   6.091
 4899TIP3   OH214641   2.453   7.058   5.441
 4899TIP3    H114642   2.511   7.052   5.516
 4899TIP3    H214643   2.442   6.968   5.412
 4900TIP3   OH214644   2.086   2.241   3.418
 4900TIP3    H114645   2.075   2.261   3.325
 4900TIP3    H214646   2.180   2.252   3.434
 4901TIP3   OH214647   7.011   4.767   4.489
 4901TIP3    H114648   7.105   4.782   4.481
 4901TIP3    H214649   7.004   4.700   4.558
 4902TIP3   OH214650   4.337   4.876   6.157
 4902TIP3    H114651   4.381   4.858   6.240
 4902TIP3    H214652   4.355   4.968   6.140
 4903TIP3   OH214653   7.236   4.064   4.211
 4903TIP3    H114654   7.141   4.079   4.211
 4903TIP3    H214655   7.264   4.084   4.300
 4904TIP3   OH214656   4.665   2.416   5.727
 4904TIP3    H114657   4.745   2.383   5.769
 4904TIP3    H214658   4.597   2.352   5.752
 4905TIP3   OH214659   4.452   7.194   3.780
 4905TIP3    H114660   4.539   7.225   3.805
 4905TIP3    H214661   4.440   7.225   3.690
 4906TIP3   OH214662   8.019   5.032   0.826
 4906TIP3    H114663   8.048   4.967   0.890
 4906TIP3    H214664   7.936   4.997   0.794
 4907TIP3   OH214665   7.531   5.062   2.941
 4907TIP3    H114666   7.605   5.054   2.880
 4907TIP3    H214667   7.567   5.037   3.026
 4908TIP3   OH214668   5.250   1.758   3.286
 4908TIP3    H114669   5.319   1.792   3.229
 4908TIP3    H214670   5.297   1.726   3.364
 4909TIP3   OH214671   4.150   4.462   4.017
 4909TIP3    H114672   4.088   4.457   3.944
 4909TIP3    H214673   4.235   4.443   3.977
 4910TIP3   OH214674   2.739   0.269   6.488
 4910TIP3    H114675   2.819   0.322   6.492
 4910TIP3    H214676   2.755   0.197   6.549
 4911TIP3   OH214677   6.188   1.512   0.915
 4911TIP3    H114678   6.257   1.574   0.938
 4911TIP3    H214679   6.141   1.555   0.843
 4912TIP3   OH214680   4.610   1.438   4.140
 4912TIP3    H114681   4.601   1.532   4.125
 4912TIP3    H214682   4.615   1.399   4.053
 4913TIP3   OH214683   0.565   2.592   5.627
 4913TIP3    H114684   0.604   2.651   5.691
 4913TIP3    H214685   0.480   2.568   5.664
 4914TIP3   OH214686   1.321   6.048   0.032
 4914TIP3    H114687   1.390   6.099  -0.010
 4914TIP3    H214688   1.323   6.076   0.123
 4915TIP3   OH214689   3.351   6.120   3.655
 4915TIP3    H114690   3.302   6.047   3.618
 4915TIP3    H214691   3.438   6.112   3.617
 4916TIP3   OH214692   4.651   4.248   1.017
 4916TIP3    H114693   4.657   4.153   1.013
 4916TIP3    H214694   4.557   4.266   1.015
 4917TIP3   OH214695   2.792   5.700   5.206
 4917TIP3    H114696   2.875   5.748   5.213
 4917TIP3    H214697   2.803   5.644   5.130
 4918TIP3   OH214698   4.386   3.757   3.695
 4918TIP3    H114699   4.463   3.780   3.748
 4918TIP3    H214700   4.419   3.692   3.633
 4919TIP3   OH214701   8.242   0.091   6.458
 4919TIP3    H114702   8.244   0.128   6.546
 4919TIP3    H214703   8.156   0.049   6.453
 4920TIP3   OH214704   4.270   0.478   4.619
 4920TIP3    H114705   4.290   0.404   4.561
 4920TIP3    H214706   4.227   0.438   4.695
 4921TIP3   OH214707   5.958   2.964   1.755
 4921TIP3    H114708   6.001   2.898   1.701
 4921TIP3    H214709   5.976   2.936   1.845
 4922TIP3   OH214710   8.239   6.524   2.343
 4922TIP3    H114711   8.289   6.472   2.280
 4922TIP3    H214712   8.210   6.462   2.409
 4923TIP3   OH214713   3.698   4.919   0.136
 4923TIP3    H114714   3.737   4.836   0.164
 4923TIP3    H214715   3.610   4.919   0.175
 4924TIP3   OH214716   1.404   7.737   4.322
 4924TIP3    H114717   1.341   7.739   4.394
 4924TIP3    H214718   1.399   7.824   4.283
 4925TIP3   OH214719   4.959   1.419   3.382
 4925TIP3    H114720   5.033   1.402   3.323
 4925TIP3    H214721   4.887   1.368   3.346
 4926TIP3   OH214722   0.633   3.575   4.407
 4926TIP3    H114723   0.709   3.622   4.373
 4926TIP3    H214724   0.558   3.613   4.360
 4927TIP3   OH214725   7.301   7.382   6.568
 4927TIP3    H114726   7.250   7.436   6.628
 4927TIP3    H214727   7.374   7.439   6.542
 4928TIP3   OH214728   1.000   6.417   1.818
 4928TIP3    H114729   1.056   6.339   1.822
 4928TIP3    H214730   1.061   6.489   1.803
 4929TIP3   OH214731   2.404   5.588   4.156
 4929TIP3    H114732   2.464   5.517   4.177
 4929TIP3    H214733   2.382   5.575   4.063
 4930TIP3   OH214734   1.542   3.656   2.604
 4930TIP3    H114735   1.494   3.603   2.540
 4930TIP3    H214736   1.476   3.679   2.670
 4931TIP3   OH214737   3.129   6.013   5.564
 4931TIP3    H114738   3.120   6.060   5.647
 4931TIP3    H214739   3.047   5.965   5.554
 4932TIP3   OH214740   1.472   3.613   1.098
 4932TIP3    H114741   1.529   3.561   1.041
 4932TIP3    H214742   1.400   3.553   1.120
 4933TIP3   OH214743   2.503   5.527   0.240
 4933TIP3    H114744   2.483   5.456   0.301
 4933TIP3    H214745   2.502   5.484   0.154
 4934TIP3   OH214746   0.883   1.477   5.627
 4934TIP3    H114747   0.831   1.487   5.547
 4934TIP3    H214748   0.973   1.493   5.598
 4935TIP3   OH214749   1.661   2.348   1.567
 4935TIP3    H114750   1.613   2.431   1.570
 4935TIP3    H214751   1.680   2.328   1.659
 4936TIP3   OH214752   1.256   4.507   2.404
 4936TIP3    H114753   1.171   4.470   2.381
 4936TIP3    H214754   1.254   4.514   2.499
 4937TIP3   OH214755   0.375   2.636   3.104
 4937TIP3    H114756   0.423   2.617   3.185
 4937TIP3    H214757   0.335   2.722   3.119
 4938TIP3   OH214758   6.502   3.221   5.987
 4938TIP3    H114759   6.560   3.284   6.029
 4938TIP3    H214760   6.525   3.137   6.027
 4939TIP3   OH214761   4.223   4.896   2.446
 4939TIP3    H114762   4.298   4.924   2.497
 4939TIP3    H214763   4.222   4.954   2.370
 4940TIP3   OH214764   5.301   7.158   4.932
 4940TIP3    H114765   5.391   7.188   4.943
 4940TIP3    H214766   5.254   7.193   5.008
 4941TIP3   OH214767   5.976   2.595   0.570
 4941TIP3    H114768   5.942   2.530   0.631
 4941TIP3    H214769   6.014   2.544   0.499
 4942TIP3   OH214770   4.976   5.986   1.362
 4942TIP3    H114771   4.931   5.907   1.333
 4942TIP3    H214772   4.969   5.986   1.457
 4943TIP3   OH214773   7.374   7.095   2.952
 4943TIP3    H114774   7.297   7.049   2.919
 4943TIP3    H214775   7.391   7.055   3.037
 4944TIP3   OH214776   7.624   6.631   1.322
 4944TIP3    H114777   7.576   6.705   1.358
 4944TIP3    H214778   7.618   6.563   1.389
 4945TIP3   OH214779   6.218   4.677   6.559
 4945TIP3    H114780   6.261   4.748   6.512
 4945TIP3    H214781   6.192   4.717   6.643
 4946TIP3   OH214782   1.258   1.656   2.908
 4946TIP3    H114783   1.273   1.633   3.000
 4946TIP3    H214784   1.315   1.732   2.893
 4947TIP3   OH214785   6.827   0.622   4.672
 4947TIP3    H114786   6.907   0.661   4.706
 4947TIP3    H214787   6.854   0.575   4.593
 4948TIP3   OH214788   2.496   1.704   6.524
 4948TIP3    H114789   2.467   1.667   6.607
 4948TIP3    H214790   2.432   1.772   6.504
 4949TIP3   OH214791   3.829   5.053   4.510
 4949TIP3    H114792   3.750   5.099   4.537
 4949TIP3    H214793   3.797   4.975   4.465
 4950TIP3   OH214794   1.715   6.553   3.290
 4950TIP3    H114795   1.688   6.609   3.363
 4950TIP3    H214796   1.783   6.604   3.245
 4951TIP3   OH214797   6.700   2.012   2.618
 4951TIP3    H114798   6.717   1.941   2.556
 4951TIP3    H214799   6.640   2.070   2.572
 4952TIP3   OH214800   4.099   6.459   3.851
 4952TIP3    H114801   4.157   6.457   3.775
 4952TIP3    H214802   4.013   6.482   3.815
 4953TIP3   OH214803   2.179   2.531   0.082
 4953TIP3    H114804   2.173   2.490   0.168
 4953TIP3    H214805   2.200   2.459   0.022
 4954TIP3   OH214806   2.273   2.525   4.577
 4954TIP3    H114807   2.330   2.574   4.637
 4954TIP3    H214808   2.202   2.586   4.556
 4955TIP3   OH214809   5.075   0.593   2.321
 4955TIP3    H114810   5.152   0.601   2.265
 4955TIP3    H214811   5.001   0.605   2.261
 4956TIP3   OH214812   4.233   1.695   0.756
 4956TIP3    H114813   4.180   1.669   0.831
 4956TIP3    H214814   4.248   1.614   0.708
 4957TIP3   OH214815   3.977   6.213   1.770
 4957TIP3    H114816   4.020   6.136   1.733
 4957TIP3    H214817   3.974   6.196   1.864
 4958TIP3   OH214818   0.812   4.898   6.268
 4958TIP3    H114819   0.872   4.966   6.239
 4958TIP3    H214820   0.725   4.932   6.249
 4959TIP3   OH214821   6.836   0.452   6.181
 4959TIP3    H114822   6.925   0.480   6.160
 4959TIP3    H214823   6.836   0.357   6.164
 4960TIP3   OH214824   6.694   4.375   5.398
 4960TIP3    H114825   6.748   4.310   5.353
 4960TIP3    H214826   6.627   4.399   5.334
 4961TIP3   OH214827   8.010   6.319   6.476
 4961TIP3    H114828   8.018   6.347   6.384
 4961TIP3    H214829   7.955   6.241   6.472
 4962TIP3   OH214830   5.238   4.889   6.389
 4962TIP3    H114831   5.234   4.897   6.485
 4962TIP3    H214832   5.306   4.951   6.363
 4963TIP3   OH214833   6.411   3.977   5.318
 4963TIP3    H114834   6.453   3.893   5.334
 4963TIP3    H214835   6.441   4.033   5.390
 4964TIP3   OH214836   3.877   2.258   0.721
 4964TIP3    H114837   3.786   2.287   0.722
 4964TIP3    H214838   3.903   2.254   0.813
 4965TIP3   OH214839   5.185   2.669   4.847
 4965TIP3    H114840   5.097   2.643   4.822
 4965TIP3    H214841   5.185   2.665   4.942
 4966TIP3   OH214842   5.174   1.587   2.847
 4966TIP3    H114843   5.133   1.599   2.933
 4966TIP3    H214844   5.143   1.501   2.818
 4967TIP3   OH214845   1.937   6.362   3.628
 4967TIP3    H114846   1.924   6.434   3.688
 4967TIP3    H214847   2.017   6.319   3.658
 4968TIP3   OH214848   2.536   3.283   3.921
 4968TIP3    H114849   2.509   3.374   3.907
 4968TIP3    H214850   2.587   3.286   4.002
 4969TIP3   OH214851   2.260   1.259   3.660
 4969TIP3    H114852   2.187   1.318   3.679
 4969TIP3    H214853   2.239   1.222   3.574
 4970TIP3   OH214854   3.884   5.129   6.629
 4970TIP3    H114855   3.820   5.077   6.678
 4970TIP3    H214856   3.833   5.198   6.588
 4971TIP3   OH214857   0.130   6.532   4.935
 4971TIP3    H114858   0.185   6.610   4.943
 4971TIP3    H214859   0.189   6.459   4.957
 4972TIP3   OH214860   3.409   5.423   1.907
 4972TIP3    H114861   3.462   5.349   1.877
 4972TIP3    H214862   3.364   5.453   1.829
 4973TIP3   OH214863   2.389   5.848   0.843
 4973TIP3    H114864   2.398   5.863   0.937
 4973TIP3    H214865   2.396   5.935   0.804
 4974TIP3   OH214866   5.259   6.923   4.551
 4974TIP3    H114867   5.249   6.933   4.645
 4974TIP3    H214868   5.205   6.993   4.513
 4975TIP3   OH214869   2.315   5.675   6.292
 4975TIP3    H114870   2.367   5.595   6.285
 4975TIP3    H214871   2.295   5.699   6.202
 4976TIP3   OH214872   4.984   1.477   2.419
 4976TIP3    H114873   4.973   1.385   2.396
 4976TIP3    H214874   4.976   1.524   2.336
 4977TIP3   OH214875   2.279   5.641   5.205
 4977TIP3    H114876   2.339   5.629   5.279
 4977TIP3    H214877   2.334   5.631   5.128
 4978TIP3   OH214878   0.644   4.712   4.041
 4978TIP3    H114879   0.641   4.694   3.947
 4978TIP3    H214880   0.715   4.659   4.074
 4979TIP3   OH214881   6.235   1.028   5.923
 4979TIP3    H114882   6.289   0.981   5.987
 4979TIP3    H214883   6.206   1.106   5.970
 4980TIP3   OH214884   4.697   7.628   0.134
 4980TIP3    H114885   4.705   7.627   0.038
 4980TIP3    H214886   4.683   7.720   0.156
 4981TIP3   OH214887   5.711   6.242   6.042
 4981TIP3    H114888   5.664   6.265   5.962
 4981TIP3    H214889   5.776   6.178   6.014
 4982TIP3   OH214890   5.133   0.324   6.284
 4982TIP3    H114891   5.194   0.254   6.262
 4982TIP3    H214892   5.101   0.355   6.200
 4983TIP3   OH214893   7.612   4.478   5.175
 4983TIP3    H114894   7.538   4.539   5.181
 4983TIP3    H214895   7.673   4.507   5.242
 4984TIP3   OH214896   1.704   6.903   1.409
 4984TIP3    H114897   1.696   6.912   1.314
 4984TIP3    H214898   1.614   6.912   1.441
 4985TIP3   OH214899   0.012   7.784   5.135
 4985TIP3    H114900   0.054   7.727   5.070
 4985TIP3    H214901  -0.055   7.728   5.176
 4986TIP3   OH214902   0.928   5.511   5.050
 4986TIP3    H114903   0.845   5.545   5.015
 4986TIP3    H214904   0.945   5.432   4.998
 4987TIP3   OH214905   6.170   0.329   4.330
 4987TIP3    H114906   6.088   0.282   4.318
 4987TIP3    H214907   6.150   0.397   4.394
 4988TIP3   OH214908   2.310   6.237   6.652
 4988TIP3    H114909   2.278   6.280   6.573
 4988TIP3    H214910   2.235   6.187   6.684
 4989TIP3   OH214911   1.072   2.978   3.826
 4989TIP3    H114912   1.005   2.941   3.884
 4989TIP3    H214913   1.043   3.067   3.809
 4990TIP3   OH214914   2.867   2.732   5.440
 4990TIP3    H114915   2.927   2.792   5.395
 4990TIP3    H214916   2.783   2.744   5.395
 4991TIP3   OH214917   4.423   3.108   0.784
 4991TIP3    H114918   4.478   3.053   0.729
 4991TIP3    H214919   4.477   3.127   0.861
 4992TIP3   OH214920   6.658   7.308   3.880
 4992TIP3    H114921   6.567   7.306   3.849
 4992TIP3    H214922   6.707   7.258   3.815
 4993TIP3   OH214923   6.321   4.178   5.142
 4993TIP3    H114924   6.349   4.256   5.189
 4993TIP3    H214925   6.356   4.105   5.193
 4994TIP3   OH214926   1.299   0.250   6.488
 4994TIP3    H114927   1.247   0.331   6.490
 4994TIP3    H214928   1.382   0.277   6.448
 4995TIP3   OH214929   0.719   1.484   4.259
 4995TIP3    H114930   0.726   1.434   4.341
 4995TIP3    H214931   0.628   1.473   4.232
 4996TIP3   OH214932   4.262   2.091   4.153
 4996TIP3    H114933   4.213   2.142   4.218
 4996TIP3    H214934   4.335   2.147   4.129
 4997TIP3   OH214935   0.302   7.819   3.942
 4997TIP3    H114936   0.381   7.786   3.985
 4997TIP3    H214937   0.240   7.836   4.013
 4998TIP3   OH214938   2.217   2.168   1.935
 4998TIP3    H114939   2.267   2.232   1.884
 4998TIP3    H214940   2.147   2.219   1.976
 4999TIP3   OH214941   5.055   5.045   4.875
 4999TIP3    H114942   4.989   5.009   4.934
 4999TIP3    H214943   5.020   5.033   4.787
 5000TIP3   OH214944   7.016   5.023   0.016
 5000TIP3    H114945   7.024   4.928   0.031
 5000TIP3    H214946   6.968   5.054   0.093
 5001TIP3   OH214947   7.781   2.137   1.535
 5001TIP3    H114948   7.821   2.121   1.621
 5001TIP3    H214949   7.853   2.171   1.481
 5002TIP3   OH214950   7.246   7.674   1.506
 5002TIP3    H114951   7.218   7.612   1.439
 5002TIP3    H214952   7.245   7.623   1.587
 5003TIP3   OH214953   6.248   1.265   4.086
 5003TIP3    H114954   6.156   1.247   4.063
 5003TIP3    H214955   6.257   1.234   4.176
 5004TIP3   OH214956   3.247   4.471   4.510
 5004TIP3    H114957   3.251   4.517   4.426
 5004TIP3    H214958   3.314   4.515   4.564
 5005TIP3   OH214959   4.748   3.435   4.720
 5005TIP3    H114960   4.725   3.365   4.782
 5005TIP3    H214961   4.667   3.454   4.674
 5006TIP3   OH214962   1.165   1.669   0.725
 5006TIP3    H114963   1.171   1.662   0.630
 5006TIP3    H214964   1.118   1.590   0.752
 5007TIP3   OH214965   0.205   5.175   6.409
 5007TIP3    H114966   0.151   5.252   6.427
 5007TIP3    H214967   0.283   5.210   6.366
 5008TIP3   OH214968   3.354   7.712   6.138
 5008TIP3    H114969   3.440   7.754   6.134
 5008TIP3    H214970   3.366   7.629   6.091
 5009TIP3   OH214971   5.297   2.860   0.615
 5009TIP3    H114972   5.391   2.857   0.629
 5009TIP3    H214973   5.259   2.833   0.698
 5010TIP3   OH214974   1.616   5.580   5.062
 5010TIP3    H114975   1.644   5.647   5.124
 5010TIP3    H214976   1.671   5.505   5.081
 5011TIP3   OH214977   4.748   2.080   5.568
 5011TIP3    H114978   4.808   2.052   5.637
 5011TIP3    H214979   4.803   2.126   5.505
 5012TIP3   OH214980   0.428   4.330   6.578
 5012TIP3    H114981   0.400   4.278   6.502
 5012TIP3    H214982   0.380   4.412   6.570
 5013TIP3   OH214983   5.878   0.999   2.674
 5013TIP3    H114984   5.918   1.000   2.761
 5013TIP3    H214985   5.862   1.091   2.653
 5014TIP3   OH214986   2.844   6.321   3.420
 5014TIP3    H114987   2.831   6.288   3.331
 5014TIP3    H214988   2.936   6.347   3.422
 5015TIP3   OH214989   3.453   5.457   5.287
 5015TIP3    H114990   3.534   5.426   5.247
 5015TIP3    H214991   3.481   5.525   5.348
 5016TIP3   OH214992   1.898   0.749   4.890
 5016TIP3    H114993   1.983   0.710   4.872
 5016TIP3    H214994   1.902   0.778   4.981
 5017TIP3   OH214995   5.005   5.507   2.539
 5017TIP3    H114996   4.967   5.443   2.478
 5017TIP3    H214997   5.091   5.526   2.503
 5018TIP3   OH214998   7.918   3.891   3.954
 5018TIP3    H114999   7.825   3.893   3.977
 5018TIP3    H215000   7.964   3.912   4.035
 5019TIP3   OH215001   7.045   1.088   1.722
 5019TIP3    H115002   7.013   0.998   1.726
 5019TIP3    H215003   6.990   1.130   1.656
 5020TIP3   OH215004   1.033   4.705   1.910
 5020TIP3    H115005   1.040   4.611   1.931
 5020TIP3    H215006   0.943   4.727   1.934
 5021TIP3   OH215007   5.514   3.084   1.749
 5021TIP3    H115008   5.565   3.131   1.815
 5021TIP3    H215009   5.495   2.999   1.790
 5022TIP3   OH215010   7.581   5.183   0.761
 5022TIP3    H115011   7.552   5.273   0.746
 5022TIP3    H215012   7.502   5.137   0.791
 5023TIP3   OH215013   1.920   3.552   5.070
 5023TIP3    H115014   1.970   3.634   5.071
 5023TIP3    H215015   1.924   3.520   5.160
 5024TIP3   OH215016   7.781   3.368   4.251
 5024TIP3    H115017   7.849   3.304   4.228
 5024TIP3    H215018   7.830   3.439   4.294
 5025TIP3   OH215019   8.015   7.796   1.249
 5025TIP3    H115020   7.951   7.807   1.179
 5025TIP3    H215021   8.056   7.712   1.231
 5026TIP3   OH215022   7.176   3.761   4.805
 5026TIP3    H115023   7.227   3.688   4.770
 5026TIP3    H215024   7.206   3.769   4.896
 5027TIP3   OH215025   2.630   4.224   4.394
 5027TIP3    H115026   2.584   4.287   4.449
 5027TIP3    H215027   2.686   4.278   4.338
 5028TIP3   OH215028   6.892   2.468   0.287
 5028TIP3    H115029   6.907   2.465   0.381
 5028TIP3    H215030   6.884   2.376   0.261
 5029TIP3   OH215031   0.654   5.297   2.196
 5029TIP3    H115032   0.639   5.315   2.103
 5029TIP3    H215033   0.617   5.374   2.240
 5030TIP3   OH215034   1.164   0.368   4.581
 5030TIP3    H115035   1.139   0.377   4.673
 5030TIP3    H215036   1.197   0.278   4.574
 5031TIP3   OH215037   5.566   3.274   4.741
 5031TIP3    H115038   5.515   3.276   4.660
 5031TIP3    H215039   5.543   3.355   4.786
 5032TIP3   OH215040   6.602   1.814   6.378
 5032TIP3    H115041   6.642   1.746   6.326
 5032TIP3    H215042   6.653   1.817   6.459
 5033TIP3   OH215043   3.578   7.006   1.330
 5033TIP3    H115044   3.541   7.039   1.248
 5033TIP3    H215045   3.555   7.072   1.395
 5034TIP3   OH215046   2.516   1.524   2.662
 5034TIP3    H115047   2.488   1.599   2.715
 5034TIP3    H215048   2.539   1.457   2.725
 5035TIP3   OH215049   0.928   0.191   3.191
 5035TIP3    H115050   0.963   0.250   3.258
 5035TIP3    H215051   0.865   0.136   3.237
 5036TIP3   OH215052   4.162   7.878   2.412
 5036TIP3    H115053   4.237   7.871   2.471
 5036TIP3    H215054   4.090   7.836   2.460
 5037TIP3   OH215055   5.791   5.152   3.287
 5037TIP3    H115056   5.781   5.103   3.205
 5037TIP3    H215057   5.885   5.169   3.294
 5038TIP3   OH215058   0.834   5.360   6.435
 5038TIP3    H115059   0.772   5.398   6.372
 5038TIP3    H215060   0.898   5.429   6.450
 5039TIP3   OH215061   2.218   3.554   2.419
 5039TIP3    H115062   2.291   3.493   2.423
 5039TIP3    H215063   2.178   3.551   2.505
 5040TIP3   OH215064   0.421   3.572   6.580
 5040TIP3    H115065   0.368   3.626   6.522
 5040TIP3    H215066   0.435   3.627   6.657
 5041TIP3   OH215067   7.947   0.091   2.966
 5041TIP3    H115068   8.015   0.102   3.032
 5041TIP3    H215069   7.990   0.111   2.883
 5042TIP3   OH215070   3.310   7.689   3.650
 5042TIP3    H115071   3.392   7.736   3.634
 5042TIP3    H215072   3.335   7.614   3.704
 5043TIP3   OH215073   5.305   6.547   0.047
 5043TIP3    H115074   5.344   6.499  -0.027
 5043TIP3    H215075   5.256   6.618   0.006
 5044TIP3   OH215076   1.862   2.772   6.249
 5044TIP3    H115077   1.876   2.724   6.331
 5044TIP3    H215078   1.888   2.710   6.181
 5045TIP3   OH215079   7.109   7.103   6.028
 5045TIP3    H115080   7.033   7.133   5.978
 5045TIP3    H215081   7.112   7.009   6.014
 5046TIP3   OH215082   4.253   2.392   6.526
 5046TIP3    H115083   4.157   2.401   6.525
 5046TIP3    H215084   4.270   2.307   6.485
 5047TIP3   OH215085   7.684   1.459   5.235
 5047TIP3    H115086   7.704   1.512   5.158
 5047TIP3    H215087   7.726   1.375   5.219
 5048TIP3   OH215088   0.815   4.306   2.899
 5048TIP3    H115089   0.812   4.379   2.960
 5048TIP3    H215090   0.733   4.259   2.914
 5049TIP3   OH215091   4.426   1.397   5.837
 5049TIP3    H115092   4.467   1.438   5.760
 5049TIP3    H215093   4.349   1.351   5.802
 5050TIP3   OH215094   2.912   3.557   4.512
 5050TIP3    H115095   2.878   3.646   4.508
 5050TIP3    H215096   3.004   3.567   4.536
 5051TIP3   OH215097   4.918   5.072   3.695
 5051TIP3    H115098   4.827   5.094   3.713
 5051TIP3    H215099   4.914   5.001   3.631
 5052TIP3   OH215100   7.103   3.967   6.622
 5052TIP3    H115101   7.134   3.996   6.536
 5052TIP3    H215102   7.015   3.935   6.607
 5053TIP3   OH215103   1.642   5.912   5.952
 5053TIP3    H115104   1.704   5.940   5.885
 5053TIP3    H215105   1.695   5.865   6.016
 5054TIP3   OH215106   3.267   5.678   0.401
 5054TIP3    H115107   3.199   5.620   0.435
 5054TIP3    H215108   3.338   5.619   0.377
 5055TIP3   OH215109   5.915   3.760   3.083
 5055TIP3    H115110   5.986   3.733   3.025
 5055TIP3    H215111   5.876   3.678   3.113
 5056TIP3   OH215112   6.407   2.792   2.165
 5056TIP3    H115113   6.478   2.826   2.110
 5056TIP3    H215114   6.432   2.813   2.254
 5057TIP3   OH215115   3.227   4.829   0.389
 5057TIP3    H115116   3.268   4.744   0.406
 5057TIP3    H215117   3.201   4.861   0.475
 5058TIP3   OH215118   6.012   2.581   4.880
 5058TIP3    H115119   6.012   2.647   4.949
 5058TIP3    H215120   6.029   2.630   4.799
 5059TIP3   OH215121   2.903   0.690   6.018
 5059TIP3    H115122   2.975   0.690   6.081
 5059TIP3    H215123   2.897   0.600   5.987
 5060TIP3   OH215124   7.353   1.089   4.643
 5060TIP3    H115125   7.420   1.102   4.709
 5060TIP3    H215126   7.394   1.032   4.578
 5061TIP3   OH215127   8.138   7.540   1.226
 5061TIP3    H115128   8.177   7.530   1.313
 5061TIP3    H215129   8.213   7.547   1.167
 5062TIP3   OH215130   3.524   5.953   6.580
 5062TIP3    H115131   3.498   5.938   6.489
 5062TIP3    H215132   3.494   6.042   6.599
 5063TIP3   OH215133   0.139   1.215   1.364
 5063TIP3    H115134   0.215   1.256   1.405
 5063TIP3    H215135   0.106   1.154   1.431
 5064TIP3   OH215136   0.991   1.769   5.937
 5064TIP3    H115137   0.957   1.826   5.868
 5064TIP3    H215138   0.953   1.803   6.017
 5065TIP3   OH215139   3.323   6.366   0.615
 5065TIP3    H115140   3.232   6.387   0.592
 5065TIP3    H215141   3.333   6.274   0.590
 5066TIP3   OH215142   7.644   6.537   3.533
 5066TIP3    H115143   7.552   6.554   3.552
 5066TIP3    H215144   7.675   6.487   3.609
 5067TIP3   OH215145   2.088   2.551   6.685
 5067TIP3    H115146   2.138   2.587   6.759
 5067TIP3    H215147   2.150   2.552   6.612
 5068TIP3   OH215148   6.276   6.474   5.660
 5068TIP3    H115149   6.334   6.416   5.610
 5068TIP3    H215150   6.257   6.546   5.600
 5069TIP3   OH215151   2.784   5.411   0.580
 5069TIP3    H115152   2.845   5.382   0.512
 5069TIP3    H215153   2.751   5.496   0.548
 5070TIP3   OH215154   7.007   4.165   1.932
 5070TIP3    H115155   6.957   4.246   1.918
 5070TIP3    H215156   6.976   4.106   1.863
 5071TIP3   OH215157   6.673   2.831   5.274
 5071TIP3    H115158   6.590   2.846   5.229
 5071TIP3    H215159   6.649   2.788   5.356
 5072TIP3   OH215160   1.264   1.826   6.042
 5072TIP3    H115161   1.248   1.920   6.038
 5072TIP3    H215162   1.178   1.786   6.036
 5073TIP3   OH215163   2.866   3.260   1.611
 5073TIP3    H115164   2.840   3.322   1.544
 5073TIP3    H215165   2.799   3.192   1.608
 5074TIP3   OH215166   3.363   2.819   2.580
 5074TIP3    H115167   3.366   2.869   2.499
 5074TIP3    H215168   3.448   2.836   2.622
 5075TIP3   OH215169   5.119   5.533   3.472
 5075TIP3    H115170   5.033   5.571   3.457
 5075TIP3    H215171   5.103   5.458   3.530
 5076TIP3   OH215172   0.490   0.862   5.967
 5076TIP3    H115173   0.531   0.940   6.005
 5076TIP3    H215174   0.511   0.866   5.874
 5077TIP3   OH215175   3.567   1.304   0.479
 5077TIP3    H115176   3.557   1.209   0.487
 5077TIP3    H215177   3.661   1.317   0.471
 5078TIP3   OH215178   1.180   7.429   4.130
 5078TIP3    H115179   1.101   7.477   4.108
 5078TIP3    H215180   1.249   7.468   4.076
 5079TIP3   OH215181   2.977   2.077   1.396
 5079TIP3    H115182   2.893   2.109   1.429
 5079TIP3    H215183   2.992   1.995   1.444
 5080TIP3   OH215184   1.568   7.020   5.610
 5080TIP3    H115185   1.602   6.931   5.602
 5080TIP3    H215186   1.570   7.038   5.704
 5081TIP3   OH215187   4.376   2.792   0.170
 5081TIP3    H115188   4.412   2.704   0.162
 5081TIP3    H215189   4.343   2.796   0.260
 5082TIP3   OH215190   3.038   7.736   4.493
 5082TIP3    H115191   3.131   7.759   4.505
 5082TIP3    H215192   3.019   7.758   4.402
 5083TIP3   OH215193   4.985   5.491   5.167
 5083TIP3    H115194   5.016   5.495   5.258
 5083TIP3    H215195   5.054   5.444   5.120
 5084TIP3   OH215196   5.109   3.717   4.075
 5084TIP3    H115197   5.114   3.718   4.171
 5084TIP3    H215198   5.196   3.743   4.047
 5085TIP3   OH215199   0.008   7.318   1.866
 5085TIP3    H115200   0.103   7.301   1.864
 5085TIP3    H215201  -0.011   7.332   1.959
 5086TIP3   OH215202   2.118   3.451   0.573
 5086TIP3    H115203   2.202   3.418   0.606
 5086TIP3    H215204   2.085   3.381   0.516
 5087TIP3   OH215205   6.878   6.728   5.184
 5087TIP3    H115206   6.878   6.707   5.091
 5087TIP3    H215207   6.961   6.693   5.217
 5088TIP3   OH215208   4.696   0.921   2.144
 5088TIP3    H115209   4.638   0.856   2.105
 5088TIP3    H215210   4.724   0.881   2.227
 5089TIP3   OH215211   5.012   6.687   0.232
 5089TIP3    H115212   5.012   6.600   0.191
 5089TIP3    H215213   4.994   6.747   0.160
 5090TIP3   OH215214   6.103   5.790   0.807
 5090TIP3    H115215   6.093   5.883   0.787
 5090TIP3    H215216   6.138   5.787   0.896
 5091TIP3   OH215217   6.078   0.433   1.273
 5091TIP3    H115218   6.077   0.467   1.183
 5091TIP3    H215219   6.142   0.361   1.270
 5092TIP3   OH215220   4.076   2.567   0.842
 5092TIP3    H115221   4.055   2.497   0.905
 5092TIP3    H215222   3.991   2.592   0.805
 5093TIP3   OH215223   8.289   3.236   1.094
 5093TIP3    H115224   8.304   3.329   1.075
 5093TIP3    H215225   8.300   3.229   1.189
 5094TIP3   OH215226   1.317   3.507   1.968
 5094TIP3    H115227   1.258   3.579   1.948
 5094TIP3    H215228   1.323   3.506   2.064
 5095TIP3   OH215229   8.256   5.041   5.803
 5095TIP3    H115230   8.249   5.101   5.729
 5095TIP3    H215231   8.166   5.022   5.828
 5096TIP3   OH215232   2.454   0.305   1.855
 5096TIP3    H115233   2.363   0.315   1.884
 5096TIP3    H215234   2.505   0.304   1.936
 5097TIP3   OH215235   1.342   6.079   5.018
 5097TIP3    H115236   1.360   5.986   5.029
 5097TIP3    H215237   1.247   6.083   5.005
 5098TIP3   OH215238   3.764   5.479   6.051
 5098TIP3    H115239   3.717   5.418   6.107
 5098TIP3    H215240   3.696   5.533   6.011
 5099TIP3   OH215241   7.481   1.276   2.434
 5099TIP3    H115242   7.447   1.309   2.517
 5099TIP3    H215243   7.462   1.346   2.371
 5100TIP3   OH215244   0.614   2.452   0.223
 5100TIP3    H115245   0.666   2.421   0.149
 5100TIP3    H215246   0.661   2.528   0.256
 5101TIP3   OH215247   4.076   6.063   3.975
 5101TIP3    H115248   4.060   6.055   3.881
 5101TIP3    H215249   3.993   6.040   4.015
 5102TIP3   OH215250   2.235   2.489   5.755
 5102TIP3    H115251   2.278   2.454   5.833
 5102TIP3    H215252   2.224   2.582   5.773
 5103TIP3   OH215253   6.341   2.715   6.251
 5103TIP3    H115254   6.329   2.639   6.194
 5103TIP3    H215255   6.254   2.732   6.287
 5104TIP3   OH215256   5.446   5.846   5.458
 5104TIP3    H115257   5.418   5.757   5.482
 5104TIP3    H215258   5.405   5.902   5.524
 5105TIP3   OH215259   5.729   4.782   1.071
 5105TIP3    H115260   5.718   4.872   1.040
 5105TIP3    H215261   5.648   4.738   1.046
 5106TIP3   OH215262   3.291   4.128   2.229
 5106TIP3    H115263   3.300   4.205   2.285
 5106TIP3    H215264   3.220   4.150   2.168
 5107TIP3   OH215265   6.618   4.485   1.650
 5107TIP3    H115266   6.529   4.462   1.677
 5107TIP3    H215267   6.669   4.405   1.664
 5108TIP3   OH215268   2.100   5.804   1.445
 5108TIP3    H115269   2.093   5.837   1.355
 5108TIP3    H215270   2.151   5.724   1.437
 5109TIP3   OH215271   5.053   5.209   5.306
 5109TIP3    H115272   5.109   5.249   5.240
 5109TIP3    H215273   5.111   5.153   5.357
 5110TIP3   OH215274   6.131   3.159   2.117
 5110TIP3    H115275   6.190   3.183   2.189
 5110TIP3    H215276   6.162   3.211   2.043
 5111TIP3   OH215277   1.646   7.270   2.685
 5111TIP3    H115278   1.623   7.186   2.724
 5111TIP3    H215279   1.570   7.326   2.702
 5112TIP3   OH215280   1.803   5.134   0.815
 5112TIP3    H115281   1.794   5.177   0.730
 5112TIP3    H215282   1.715   5.100   0.833
 5113TIP3   OH215283   0.120   2.530   2.805
 5113TIP3    H115284   0.082   2.581   2.877
 5113TIP3    H215285   0.183   2.472   2.848
 5114TIP3   OH215286   0.733   0.502   1.189
 5114TIP3    H115287   0.772   0.433   1.136
 5114TIP3    H215288   0.771   0.490   1.276
 5115TIP3   OH215289   1.668   1.527   2.937
 5115TIP3    H115290   1.635   1.565   3.018
 5115TIP3    H215291   1.738   1.587   2.909
 5116TIP3   OH215292   2.583   1.376   4.981
 5116TIP3    H115293   2.614   1.457   5.020
 5116TIP3    H215294   2.623   1.374   4.894
 5117TIP3   OH215295   0.461   0.648   1.097
 5117TIP3    H115296   0.513   0.592   1.155
 5117TIP3    H215297   0.521   0.716   1.068
 5118TIP3   OH215298   8.151   3.889   0.160
 5118TIP3    H115299   8.107   3.967   0.194
 5118TIP3    H215300   8.132   3.890   0.066
 5119TIP3   OH215301   2.745   3.979   4.331
 5119TIP3    H115302   2.696   4.056   4.358
 5119TIP3    H215303   2.727   3.970   4.238
 5120TIP3   OH215304   4.186   4.592   0.083
 5120TIP3    H115305   4.220   4.563   0.167
 5120TIP3    H215306   4.263   4.595   0.026
 5121TIP3   OH215307   4.531   6.410   2.386
 5121TIP3    H115308   4.607   6.444   2.434
 5121TIP3    H215309   4.469   6.384   2.454
 5122TIP3   OH215310   6.499   6.019   3.036
 5122TIP3    H115311   6.549   6.062   2.966
 5122TIP3    H215312   6.483   6.088   3.100
 5123TIP3   OH215313   5.628   7.060   4.030
 5123TIP3    H115314   5.585   7.098   3.953
 5123TIP3    H215315   5.607   7.119   4.101
 5124TIP3   OH215316   5.095   4.099   3.058
 5124TIP3    H115317   5.002   4.093   3.038
 5124TIP3    H215318   5.116   4.017   3.102
 5125TIP3   OH215319   3.159   2.133   0.076
 5125TIP3    H115320   3.156   2.197   0.004
 5125TIP3    H215321   3.252   2.121   0.093
 5126TIP3   OH215322   4.227   0.259   2.869
 5126TIP3    H115323   4.222   0.202   2.793
 5126TIP3    H215324   4.306   0.311   2.856
 5127TIP3   OH215325   5.520   5.626   5.990
 5127TIP3    H115326   5.472   5.577   5.923
 5127TIP3    H215327   5.612   5.619   5.963
 5128TIP3   OH215328   2.202   0.763   3.410
 5128TIP3    H115329   2.176   0.828   3.476
 5128TIP3    H215330   2.291   0.738   3.435
 5129TIP3   OH215331   4.824   1.957   3.160
 5129TIP3    H115332   4.828   1.943   3.066
 5129TIP3    H215333   4.910   1.932   3.192
 5130TIP3   OH215334   0.863   6.701   5.020
 5130TIP3    H115335   0.946   6.676   5.059
 5130TIP3    H215336   0.822   6.759   5.083
 5131TIP3   OH215337   6.021   0.139   4.037
 5131TIP3    H115338   5.978   0.161   4.120
 5131TIP3    H215339   6.034   0.045   4.041
 5132TIP3   OH215340   5.490   1.991   0.939
 5132TIP3    H115341   5.458   1.930   1.006
 5132TIP3    H215342   5.430   1.979   0.866
 5133TIP3   OH215343   5.176   4.627   6.329
 5133TIP3    H115344   5.232   4.703   6.312
 5133TIP3    H215345   5.102   4.661   6.379
 5134TIP3   OH215346   4.168   6.844   2.341
 5134TIP3    H115347   4.257   6.809   2.333
 5134TIP3    H215348   4.136   6.809   2.424
 5135TIP3   OH215349   6.049   4.087   5.362
 5135TIP3    H115350   6.142   4.098   5.382
 5135TIP3    H215351   6.020   4.016   5.419
 5136TIP3   OH215352   0.384   6.862   6.709
 5136TIP3    H115353   0.318   6.798   6.733
 5136TIP3    H215354   0.411   6.837   6.621
 5137TIP3   OH215355   4.586   5.326   4.001
 5137TIP3    H115356   4.633   5.275   4.067
 5137TIP3    H215357   4.615   5.290   3.917
 5138TIP3   OH215358   6.486   3.304   3.311
 5138TIP3    H115359   6.483   3.381   3.254
 5138TIP3    H215360   6.412   3.315   3.370
 5139TIP3   OH215361   7.533   0.910   2.914
 5139TIP3    H115362   7.563   0.962   2.989
 5139TIP3    H215363   7.598   0.926   2.846
 5140TIP3   OH215364   3.910   6.009   4.398
 5140TIP3    H115365   3.944   6.038   4.483
 5140TIP3    H215366   3.815   6.020   4.405
 5141TIP3   OH215367   7.187   2.421   6.143
 5141TIP3    H115368   7.252   2.479   6.181
 5141TIP3    H215369   7.235   2.367   6.082
 5142TIP3   OH215370   0.167   5.580   6.001
 5142TIP3    H115371   0.083   5.541   5.977
 5142TIP3    H215372   0.223   5.568   5.925
 5143TIP3   OH215373   7.748   3.367   2.583
 5143TIP3    H115374   7.727   3.406   2.668
 5143TIP3    H215375   7.673   3.310   2.564
 5144TIP3   OH215376   3.989   6.334   4.261
 5144TIP3    H115377   3.942   6.392   4.200
 5144TIP3    H215378   4.076   6.325   4.223
 5145TIP3   OH215379   7.664   4.690   1.269
 5145TIP3    H115380   7.580   4.699   1.225
 5145TIP3    H215381   7.667   4.598   1.297
 5146TIP3   OH215382   2.984   6.330   1.813
 5146TIP3    H115383   3.031   6.282   1.745
 5146TIP3    H215384   2.973   6.267   1.884
 5147TIP3   OH215385   1.597   2.878   4.602
 5147TIP3    H115386   1.588   2.844   4.513
 5147TIP3    H215387   1.508   2.901   4.629
 5148TIP3   OH215388   0.989   3.490   1.818
 5148TIP3    H115389   1.060   3.428   1.804
 5148TIP3    H215390   1.032   3.575   1.827
 5149TIP3   OH215391   1.412   4.166   6.263
 5149TIP3    H115392   1.390   4.072   6.261
 5149TIP3    H215393   1.393   4.194   6.352
 5150TIP3   OH215394   7.552   7.497   3.649
 5150TIP3    H115395   7.539   7.581   3.606
 5150TIP3    H215396   7.647   7.484   3.648
 5151TIP3   OH215397   8.241   2.370   2.646
 5151TIP3    H115398   8.198   2.306   2.703
 5151TIP3    H215399   8.275   2.437   2.706
 5152TIP3   OH215400   5.360   2.788   3.807
 5152TIP3    H115401   5.320   2.769   3.892
 5152TIP3    H215402   5.287   2.812   3.751
 5153TIP3   OH215403   0.517   6.691   3.488
 5153TIP3    H115404   0.472   6.612   3.519
 5153TIP3    H215405   0.561   6.662   3.408
 5154TIP3   OH215406   3.493   2.686   4.022
 5154TIP3    H115407   3.535   2.772   4.032
 5154TIP3    H215408   3.528   2.634   4.093
 5155TIP3   OH215409   5.222   1.919   3.583
 5155TIP3    H115410   5.143   1.883   3.623
 5155TIP3    H215411   5.278   1.843   3.566
 5156TIP3   OH215412   5.291   5.779   2.005
 5156TIP3    H115413   5.366   5.783   2.065
 5156TIP3    H215414   5.236   5.709   2.042
 5157TIP3   OH215415   5.983   7.283   5.237
 5157TIP3    H115416   6.048   7.317   5.175
 5157TIP3    H215417   5.974   7.353   5.302
 5158TIP3   OH215418   2.711   7.333   6.279
 5158TIP3    H115419   2.625   7.302   6.307
 5158TIP3    H215420   2.714   7.424   6.308
 5159TIP3   OH215421   2.610   4.743   2.517
 5159TIP3    H115422   2.555   4.732   2.439
 5159TIP3    H215423   2.555   4.792   2.578
 5160TIP3   OH215424   8.193   0.102   2.375
 5160TIP3    H115425   8.136   0.171   2.341
 5160TIP3    H215426   8.277   0.146   2.391
 5161TIP3   OH215427   0.983   5.952   1.596
 5161TIP3    H115428   0.990   5.960   1.691
 5161TIP3    H215429   1.059   5.900   1.571
 5162TIP3   OH215430   3.568   7.314   6.770
 5162TIP3    H115431   3.612   7.334   6.687
 5162TIP3    H215432   3.507   7.244   6.749
 5163TIP3   OH215433   1.068   5.380   0.253
 5163TIP3    H115434   1.025   5.459   0.285
 5163TIP3    H215435   1.021   5.308   0.295
 5164TIP3   OH215436   4.964   0.290   6.047
 5164TIP3    H115437   4.916   0.368   6.017
 5164TIP3    H215438   4.920   0.217   6.003
 5165TIP3   OH215439   0.361   1.237   6.068
 5165TIP3    H115440   0.418   1.313   6.076
 5165TIP3    H215441   0.342   1.211   6.158
 5166TIP3   OH215442   5.204   3.251   4.884
 5166TIP3    H115443   5.113   3.237   4.911
 5166TIP3    H215444   5.255   3.244   4.965
 5167TIP3   OH215445   7.785   0.222   5.114
 5167TIP3    H115446   7.790   0.140   5.162
 5167TIP3    H215447   7.820   0.287   5.175
 5168TIP3   OH215448   0.075   5.464   4.147
 5168TIP3    H115449   0.008   5.487   4.211
 5168TIP3    H215450   0.142   5.418   4.198
 5169TIP3   OH215451   7.306   5.740   2.215
 5169TIP3    H115452   7.269   5.693   2.140
 5169TIP3    H215453   7.375   5.794   2.177
 5170TIP3   OH215454   1.173   2.013   4.146
 5170TIP3    H115455   1.245   1.955   4.122
 5170TIP3    H215456   1.113   2.008   4.071
 5171TIP3   OH215457   1.666   6.052   5.606
 5171TIP3    H115458   1.740   6.013   5.653
 5171TIP3    H215459   1.702   6.076   5.521
 5172TIP3   OH215460   5.701   5.415   2.449
 5172TIP3    H115461   5.788   5.444   2.478
 5172TIP3    H215462   5.695   5.447   2.359
 5173TIP3   OH215463   3.015   5.334   5.628
 5173TIP3    H115464   3.079   5.285   5.679
 5173TIP3    H215465   3.048   5.424   5.627
 5174TIP3   OH215466   4.051   5.375   6.635
 5174TIP3    H115467   4.144   5.377   6.657
 5174TIP3    H215468   4.037   5.289   6.597
 5175TIP3   OH215469   6.612   6.651   4.926
 5175TIP3    H115470   6.518   6.669   4.937
 5175TIP3    H215471   6.643   6.719   4.866
 5176TIP3   OH215472   4.371   3.787   1.049
 5176TIP3    H115473   4.411   3.701   1.048
 5176TIP3    H215474   4.291   3.776   1.102
 5177TIP3   OH215475   6.846   6.995   6.202
 5177TIP3    H115476   6.824   6.976   6.111
 5177TIP3    H215477   6.936   6.962   6.212
 5178TIP3   OH215478   3.699   4.766   0.954
 5178TIP3    H115479   3.767   4.725   1.008
 5178TIP3    H215480   3.673   4.843   1.004
 5179TIP3   OH215481   2.534   2.877   4.866
 5179TIP3    H115482   2.627   2.855   4.863
 5179TIP3    H215483   2.518   2.902   4.957
 5180TIP3   OH215484   6.177   7.698   2.882
 5180TIP3    H115485   6.146   7.765   2.943
 5180TIP3    H215486   6.216   7.630   2.938
 5181TIP3   OH215487   0.650   4.202   1.100
 5181TIP3    H115488   0.647   4.108   1.120
 5181TIP3    H215489   0.689   4.207   1.013
 5182TIP3   OH215490   7.287   2.794   6.767
 5182TIP3    H115491   7.365   2.838   6.734
 5182TIP3    H215492   7.320   2.714   6.809
 5183TIP3   OH215493   7.368   5.760   0.647
 5183TIP3    H115494   7.411   5.731   0.567
 5183TIP3    H215495   7.440   5.771   0.710
 5184TIP3   OH215496   7.594   7.699   0.912
 5184TIP3    H115497   7.593   7.627   0.849
 5184TIP3    H215498   7.685   7.704   0.941
 5185TIP3   OH215499   2.399   0.600   1.554
 5185TIP3    H115500   2.391   0.651   1.634
 5185TIP3    H215501   2.364   0.514   1.576
 5186TIP3   OH215502   3.055   5.230   1.906
 5186TIP3    H115503   3.075   5.318   1.938
 5186TIP3    H215504   3.137   5.201   1.866
 5187TIP3   OH215505   4.618   6.940   2.089
 5187TIP3    H115506   4.613   7.016   2.031
 5187TIP3    H215507   4.644   6.868   2.032
 5188TIP3   OH215508   5.930   4.264   5.183
 5188TIP3    H115509   5.973   4.208   5.248
 5188TIP3    H215510   6.001   4.296   5.128
 5189TIP3   OH215511   3.422   7.690   0.499
 5189TIP3    H115512   3.400   7.776   0.463
 5189TIP3    H215513   3.427   7.633   0.422
 5190TIP3   OH215514   0.167   0.256   2.298
 5190TIP3    H115515   0.151   0.224   2.209
 5190TIP3    H215516   0.232   0.194   2.334
 5191TIP3   OH215517   2.540   7.403   2.960
 5191TIP3    H115518   2.503   7.480   2.918
 5191TIP3    H215519   2.468   7.341   2.966
 5192TIP3   OH215520   5.624   1.191   3.716
 5192TIP3    H115521   5.557   1.234   3.663
 5192TIP3    H215522   5.672   1.263   3.757
 5193TIP3   OH215523   4.426   4.375   3.360
 5193TIP3    H115524   4.433   4.345   3.451
 5193TIP3    H215525   4.424   4.470   3.366
 5194TIP3   OH215526   2.152   4.446   4.893
 5194TIP3    H115527   2.219   4.378   4.892
 5194TIP3    H215528   2.072   4.403   4.863
 5195TIP3   OH215529   7.280   2.922   3.284
 5195TIP3    H115530   7.240   2.835   3.277
 5195TIP3    H215531   7.250   2.969   3.206
 5196TIP3   OH215532   4.495   2.626   3.751
 5196TIP3    H115533   4.463   2.716   3.750
 5196TIP3    H215534   4.416   2.572   3.745
 5197TIP3   OH215535   1.275   4.359   0.358
 5197TIP3    H115536   1.266   4.447   0.323
 5197TIP3    H215537   1.361   4.359   0.401
 5198TIP3   OH215538   2.014   2.162   3.823
 5198TIP3    H115539   1.932   2.127   3.858
 5198TIP3    H215540   1.994   2.184   3.732
 5199TIP3   OH215541   5.206   4.849   4.081
 5199TIP3    H115542   5.181   4.842   3.989
 5199TIP3    H215543   5.300   4.867   4.079
 5200TIP3   OH215544   3.968   4.775   5.266
 5200TIP3    H115545   3.903   4.836   5.231
 5200TIP3    H215546   4.052   4.811   5.237
 5201TIP3   OH215547   6.957   7.202   3.875
 5201TIP3    H115548   6.906   7.283   3.880
 5201TIP3    H215549   6.910   7.141   3.932
 5202TIP3   OH215550   7.171   1.660   2.553
 5202TIP3    H115551   7.089   1.643   2.599
 5202TIP3    H215552   7.162   1.750   2.521
 5203TIP3   OH215553   0.835   0.304   1.673
 5203TIP3    H115554   0.763   0.336   1.728
 5203TIP3    H215555   0.876   0.234   1.724
 5204TIP3   OH215556   3.567   1.901   2.997
 5204TIP3    H115557   3.533   1.937   2.915
 5204TIP3    H215558   3.661   1.919   2.995
 5205TIP3   OH215559   5.664   1.616   0.290
 5205TIP3    H115560   5.705   1.692   0.331
 5205TIP3    H215561   5.651   1.642   0.199
 5206TIP3   OH215562   7.565   7.339   2.957
 5206TIP3    H115563   7.504   7.266   2.972
 5206TIP3    H215564   7.643   7.298   2.920
 5207TIP3   OH215565   8.094   2.056   6.590
 5207TIP3    H115566   8.008   2.090   6.612
 5207TIP3    H215567   8.077   1.969   6.555
 5208TIP3   OH215568   7.195   0.395   0.039
 5208TIP3    H115569   7.248   0.474   0.042
 5208TIP3    H215570   7.131   0.411  -0.030
 5209TIP3   OH215571   4.217   5.585   3.104
 5209TIP3    H115572   4.223   5.578   3.199
 5209TIP3    H215573   4.132   5.546   3.083
 5210TIP3   OH215574   6.034   5.533   6.259
 5210TIP3    H115575   6.103   5.579   6.211
 5210TIP3    H215576   5.960   5.593   6.259
 5211TIP3   OH215577   6.972   6.352   2.911
 5211TIP3    H115578   6.988   6.314   2.997
 5211TIP3    H215579   6.938   6.279   2.858
 5212TIP3   OH215580   2.370   5.255   0.645
 5212TIP3    H115581   2.387   5.301   0.562
 5212TIP3    H215582   2.420   5.304   0.710
 5213TIP3   OH215583   5.356   5.296   2.961
 5213TIP3    H115584   5.425   5.335   3.014
 5213TIP3    H215585   5.399   5.273   2.878
 5214TIP3   OH215586   0.363   1.029   4.408
 5214TIP3    H115587   0.288   1.024   4.467
 5214TIP3    H215588   0.416   0.953   4.431
 5215TIP3   OH215589   0.055   7.593   6.077
 5215TIP3    H115590   0.051   7.638   5.993
 5215TIP3    H215591  -0.035   7.594   6.109
 5216TIP3   OH215592   6.702   5.799   0.607
 5216TIP3    H115593   6.661   5.715   0.587
 5216TIP3    H215594   6.794   5.788   0.583
 5217TIP3   OH215595   2.191   6.322   1.556
 5217TIP3    H115596   2.250   6.365   1.494
 5217TIP3    H215597   2.131   6.272   1.501
 5218TIP3   OH215598   8.148   3.840   3.509
 5218TIP3    H115599   8.105   3.829   3.424
 5218TIP3    H215600   8.153   3.751   3.545
 5219TIP3   OH215601   5.469   1.757   1.985
 5219TIP3    H115602   5.420   1.723   1.909
 5219TIP3    H215603   5.467   1.686   2.049
 5220TIP3   OH215604   3.669   3.223   0.326
 5220TIP3    H115605   3.688   3.307   0.369
 5220TIP3    H215606   3.696   3.157   0.389
 5221TIP3   OH215607   2.561   7.109   6.110
 5221TIP3    H115608   2.568   7.098   6.205
 5221TIP3    H215609   2.557   7.204   6.097
 5222TIP3   OH215610   6.582   1.335   2.542
 5222TIP3    H115611   6.673   1.357   2.564
 5222TIP3    H215612   6.589   1.280   2.464
 5223TIP3   OH215613   2.683   6.381   4.815
 5223TIP3    H115614   2.671   6.286   4.808
 5223TIP3    H215615   2.760   6.400   4.762
 5224TIP3   OH215616   0.509   6.534   1.380
 5224TIP3    H115617   0.476   6.618   1.411
 5224TIP3    H215618   0.574   6.556   1.314
 5225TIP3   OH215619   6.710   7.416   3.342
 5225TIP3    H115620   6.740   7.438   3.430
 5225TIP3    H215621   6.767   7.467   3.284
 5226TIP3   OH215622   1.376   2.378   2.199
 5226TIP3    H115623   1.368   2.360   2.105
 5226TIP3    H215624   1.468   2.402   2.211
 5227TIP3   OH215625   5.940   5.738   4.790
 5227TIP3    H115626   5.888   5.798   4.844
 5227TIP3    H215627   6.018   5.789   4.766
 5228TIP3   OH215628   2.532   5.372   1.527
 5228TIP3    H115629   2.587   5.330   1.593
 5228TIP3    H215630   2.529   5.464   1.552
 5229TIP3   OH215631   6.103   0.241   3.465
 5229TIP3    H115632   6.164   0.242   3.391
 5229TIP3    H215633   6.041   0.171   3.444
 5230TIP3   OH215634   2.799   7.321   2.183
 5230TIP3    H115635   2.827   7.326   2.275
 5230TIP3    H215636   2.774   7.410   2.161
 5231TIP3   OH215637   5.647   1.232   2.426
 5231TIP3    H115638   5.740   1.209   2.412
 5231TIP3    H215639   5.599   1.162   2.381
 5232TIP3   OH215640   7.687   0.675   4.070
 5232TIP3    H115641   7.757   0.621   4.108
 5232TIP3    H215642   7.623   0.684   4.141
 5233TIP3   OH215643   6.432   3.462   0.341
 5233TIP3    H115644   6.365   3.516   0.301
 5233TIP3    H215645   6.400   3.372   0.331
 5234TIP3   OH215646   2.818   3.045   5.845
 5234TIP3    H115647   2.830   3.075   5.935
 5234TIP3    H215648   2.869   3.107   5.793
 5235TIP3   OH215649   0.898   0.791   4.559
 5235TIP3    H115650   0.858   0.876   4.577
 5235TIP3    H215651   0.825   0.730   4.551
 5236TIP3   OH215652   2.467   1.402   5.428
 5236TIP3    H115653   2.481   1.340   5.356
 5236TIP3    H215654   2.467   1.488   5.386
 5237TIP3   OH215655   8.293   2.291   5.296
 5237TIP3    H115656   8.202   2.294   5.268
 5237TIP3    H215657   8.301   2.361   5.361
 5238TIP3   OH215658   2.229   1.524   5.248
 5238TIP3    H115659   2.230   1.439   5.205
 5238TIP3    H215660   2.149   1.566   5.217
 5239TIP3   OH215661   6.774   5.843   5.951
 5239TIP3    H115662   6.765   5.925   5.902
 5239TIP3    H215663   6.719   5.781   5.903
 5240TIP3   OH215664   5.504   0.553   2.492
 5240TIP3    H115665   5.541   0.510   2.569
 5240TIP3    H215666   5.411   0.565   2.513
 5241TIP3   OH215667   4.060   5.786   4.602
 5241TIP3    H115668   4.072   5.755   4.692
 5241TIP3    H215669   4.042   5.880   4.611
 5242TIP3   OH215670   7.248   3.219   6.174
 5242TIP3    H115671   7.323   3.252   6.223
 5242TIP3    H215672   7.273   3.231   6.082
 5243TIP3   OH215673   3.107   2.127   0.649
 5243TIP3    H115674   3.074   2.204   0.696
 5243TIP3    H215675   3.067   2.134   0.562
 5244TIP3   OH215676   7.883   2.767   4.855
 5244TIP3    H115677   7.978   2.765   4.844
 5244TIP3    H215678   7.861   2.680   4.889
 5245TIP3   OH215679   5.537   6.787   2.455
 5245TIP3    H115680   5.558   6.783   2.549
 5245TIP3    H215681   5.502   6.699   2.436
 5246TIP3   OH215682   1.806   3.605   3.796
 5246TIP3    H115683   1.860   3.527   3.793
 5246TIP3    H215684   1.732   3.582   3.853
 5247TIP3   OH215685   0.154   4.283   6.290
 5247TIP3    H115686   0.236   4.237   6.306
 5247TIP3    H215687   0.093   4.215   6.264
 5248TIP3   OH215688   0.892   0.731   4.076
 5248TIP3    H115689   0.927   0.686   4.153
 5248TIP3    H215690   0.930   0.684   4.001
 5249TIP3   OH215691   5.595   4.751   0.396
 5249TIP3    H115692   5.607   4.707   0.480
 5249TIP3    H215693   5.568   4.682   0.336
 5250TIP3   OH215694   4.619   1.838   5.568
 5250TIP3    H115695   4.528   1.837   5.597
 5250TIP3    H215696   4.638   1.931   5.551
 5251TIP3   OH215697   5.063   4.748   4.688
 5251TIP3    H115698   5.036   4.835   4.717
 5251TIP3    H215699   5.043   4.747   4.594
 5252TIP3   OH215700   0.476   4.929   2.832
 5252TIP3    H115701   0.463   5.016   2.795
 5252TIP3    H215702   0.390   4.887   2.825
 5253TIP3   OH215703   7.029   2.784   1.524
 5253TIP3    H115704   7.002   2.833   1.446
 5253TIP3    H215705   7.006   2.693   1.504
 5254TIP3   OH215706   1.841   7.219   3.600
 5254TIP3    H115707   1.911   7.153   3.594
 5254TIP3    H215708   1.784   7.200   3.526
 5255TIP3   OH215709   7.691   3.894   4.928
 5255TIP3    H115710   7.616   3.912   4.985
 5255TIP3    H215711   7.680   3.954   4.854
 5256TIP3   OH215712   0.909   4.187   1.865
 5256TIP3    H115713   0.817   4.159   1.855
 5256TIP3    H215714   0.945   4.128   1.930
 5257TIP3   OH215715   5.792   1.927   1.539
 5257TIP3    H115716   5.778   1.898   1.629
 5257TIP3    H215717   5.734   2.003   1.530
 5258TIP3   OH215718   4.630   2.991   4.421
 5258TIP3    H115719   4.579   3.035   4.490
 5258TIP3    H215720   4.568   2.929   4.382
 5259TIP3   OH215721   7.609   2.977   1.687
 5259TIP3    H115722   7.627   2.931   1.605
 5259TIP3    H215723   7.543   2.923   1.731
 5260TIP3   OH215724   4.797   3.950   4.587
 5260TIP3    H115725   4.804   3.885   4.517
 5260TIP3    H215726   4.733   4.013   4.555
 5261TIP3   OH215727   4.874   5.026   2.272
 5261TIP3    H115728   4.892   4.932   2.270
 5261TIP3    H215729   4.806   5.036   2.339
 5262TIP3   OH215730   5.381   5.769   6.566
 5262TIP3    H115731   5.327   5.702   6.525
 5262TIP3    H215732   5.320   5.838   6.591
 5263TIP3   OH215733   2.846   5.454   1.136
 5263TIP3    H115734   2.830   5.360   1.143
 5263TIP3    H215735   2.769   5.488   1.090
 5264TIP3   OH215736   7.851   7.407   4.986
 5264TIP3    H115737   7.788   7.339   4.960
 5264TIP3    H215738   7.881   7.444   4.903
 5265TIP3   OH215739   2.895   3.811   0.491
 5265TIP3    H115740   2.799   3.806   0.487
 5265TIP3    H215741   2.921   3.731   0.537
 5266TIP3   OH215742   1.188   5.787   0.107
 5266TIP3    H115743   1.228   5.874   0.100
 5266TIP3    H215744   1.213   5.756   0.194
 5267TIP3   OH215745   4.605   7.371   4.821
 5267TIP3    H115746   4.668   7.325   4.876
 5267TIP3    H215747   4.657   7.402   4.746
 5268TIP3   OH215748   6.720   5.677   5.409
 5268TIP3    H115749   6.812   5.705   5.407
 5268TIP3    H215750   6.692   5.692   5.499
 5269TIP3   OH215751   6.718   7.479   0.634
 5269TIP3    H115752   6.807   7.455   0.607
 5269TIP3    H215753   6.679   7.396   0.663
 5270TIP3   OH215754   7.934   1.267   0.846
 5270TIP3    H115755   7.970   1.210   0.914
 5270TIP3    H215756   8.010   1.313   0.810
 5271TIP3   OH215757   7.089   1.879   2.772
 5271TIP3    H115758   7.165   1.910   2.723
 5271TIP3    H215759   7.101   1.914   2.860
 5272TIP3   OH215760   6.810   1.538   3.615
 5272TIP3    H115761   6.753   1.526   3.690
 5272TIP3    H215762   6.827   1.632   3.613
 5273TIP3   OH215763   0.958   7.821   0.308
 5273TIP3    H115764   1.044   7.824   0.267
 5273TIP3    H215765   0.974   7.840   0.400
 5274TIP3   OH215766   6.808   5.100   1.108
 5274TIP3    H115767   6.859   5.067   1.034
 5274TIP3    H215768   6.843   5.053   1.184
 5275TIP3   OH215769   7.889   5.851   5.142
 5275TIP3    H115770   7.840   5.780   5.101
 5275TIP3    H215771   7.915   5.908   5.070
 5276TIP3   OH215772   3.056   5.574   1.279
 5276TIP3    H115773   3.054   5.642   1.212
 5276TIP3    H215774   3.002   5.503   1.242
 5277TIP3   OH215775   5.359   0.428   5.552
 5277TIP3    H115776   5.357   0.374   5.473
 5277TIP3    H215777   5.412   0.378   5.614
 5278TIP3   OH215778   1.162   7.331   3.040
 5278TIP3    H115779   1.232   7.295   2.984
 5278TIP3    H215780   1.138   7.413   2.998
 5279TIP3   OH215781   0.161   6.792   5.123
 5279TIP3    H115782   0.118   6.731   5.184
 5279TIP3    H215783   0.243   6.749   5.100
 5280TIP3   OH215784   4.792   2.247   6.776
 5280TIP3    H115785   4.714   2.195   6.759
 5280TIP3    H215786   4.803   2.300   6.697
 5281TIP3   OH215787   5.388   2.791   1.059
 5281TIP3    H115788   5.378   2.883   1.082
 5281TIP3    H215789   5.424   2.750   1.138
 5282TIP3   OH215790   1.168   3.428   6.233
 5282TIP3    H115791   1.079   3.434   6.201
 5282TIP3    H215792   1.202   3.517   6.229
 5283TIP3   OH215793   1.426   3.234   1.703
 5283TIP3    H115794   1.473   3.269   1.779
 5283TIP3    H215795   1.491   3.181   1.657
 5284TIP3   OH215796   0.777   6.355   3.251
 5284TIP3    H115797   0.783   6.283   3.314
 5284TIP3    H215798   0.704   6.332   3.194
 5285TIP3   OH215799   7.302   5.198   0.731
 5285TIP3    H115800   7.229   5.244   0.773
 5285TIP3    H215801   7.340   5.263   0.672
 5286TIP3   OH215802   6.518   7.583   5.982
 5286TIP3    H115803   6.562   7.658   5.942
 5286TIP3    H215804   6.550   7.581   6.072
 5287TIP3   OH215805   6.480   0.537   3.035
 5287TIP3    H115806   6.425   0.587   2.973
 5287TIP3    H215807   6.485   0.593   3.112
 5288TIP3   OH215808   3.557   7.738   4.059
 5288TIP3    H115809   3.475   7.687   4.058
 5288TIP3    H215810   3.625   7.674   4.037
 5289TIP3   OH215811   5.959   0.542   1.509
 5289TIP3    H115812   6.010   0.503   1.437
 5289TIP3    H215813   5.910   0.468   1.546
 5290TIP3   OH215814   3.428   3.722   3.072
 5290TIP3    H115815   3.456   3.702   3.162
 5290TIP3    H215816   3.424   3.817   3.069
 5291TIP3   OH215817   1.223   3.467   2.211
 5291TIP3    H115818   1.200   3.455   2.304
 5291TIP3    H215819   1.147   3.434   2.163
 5292TIP3   OH215820   7.900   0.284   0.773
 5292TIP3    H115821   7.827   0.225   0.754
 5292TIP3    H215822   7.966   0.228   0.813
 5293TIP3   OH215823   4.494   4.478   6.257
 5293TIP3    H115824   4.582   4.491   6.223
 5293TIP3    H215825   4.437   4.504   6.185
 5294TIP3   OH215826   8.051   3.457   1.921
 5294TIP3    H115827   8.117   3.526   1.915
 5294TIP3    H215828   7.969   3.500   1.901
 5295TIP3   OH215829   2.862   7.197   6.077
 5295TIP3    H115830   2.775   7.197   6.037
 5295TIP3    H215831   2.849   7.236   6.163
 5296TIP3   OH215832   3.090  -0.047   5.890
 5296TIP3    H115833   3.016   0.004   5.857
 5296TIP3    H215834   3.150   0.019   5.924
 5297TIP3   OH215835   4.902   7.039   4.053
 5297TIP3    H115836   4.860   7.124   4.070
 5297TIP3    H215837   4.831   6.975   4.062
 5298TIP3   OH215838   2.463   2.476   0.109
 5298TIP3    H115839   2.471   2.505   0.199
 5298TIP3    H215840   2.421   2.549   0.063
 5299TIP3   OH215841   4.421   3.550   2.251
 5299TIP3    H115842   4.483   3.478   2.266
 5299TIP3    H215843   4.390   3.536   2.162
 5300TIP3   OH215844   2.990   3.471   1.716
 5300TIP3    H115845   2.908   3.511   1.747
 5300TIP3    H215846   2.962   3.389   1.675
 5301TIP3   OH215847   6.926   2.073   5.459
 5301TIP3    H115848   6.910   2.034   5.373
 5301TIP3    H215849   6.967   2.157   5.440
 5302TIP3   OH215850   4.343   2.485   5.362
 5302TIP3    H115851   4.332   2.428   5.437
 5302TIP3    H215852   4.356   2.426   5.288
 5303TIP3   OH215853   6.978   5.790   0.697
 5303TIP3    H115854   6.919   5.787   0.773
 5303TIP3    H215855   7.054   5.738   0.724
 5304TIP3   OH215856   3.702   7.040   6.337
 5304TIP3    H115857   3.715   7.133   6.323
 5304TIP3    H215858   3.674   7.007   6.251
 5305TIP3   OH215859   1.659   0.429   2.522
 5305TIP3    H115860   1.568   0.400   2.527
 5305TIP3    H215861   1.659   0.498   2.455
 5306TIP3   OH215862   7.267   0.252   3.199
 5306TIP3    H115863   7.215   0.333   3.196
 5306TIP3    H215864   7.263   0.225   3.291
 5307TIP3   OH215865   0.695   2.828   5.751
 5307TIP3    H115866   0.638   2.842   5.676
 5307TIP3    H215867   0.778   2.869   5.726
 5308TIP3   OH215868   0.198   0.553   5.265
 5308TIP3    H115869   0.108   0.566   5.234
 5308TIP3    H215870   0.192   0.482   5.329
 5309TIP3   OH215871   6.098   0.181   0.462
 5309TIP3    H115872   6.091   0.202   0.555
 5309TIP3    H215873   6.154   0.250   0.426
 5310TIP3   OH215874   2.204   5.883   4.561
 5310TIP3    H115875   2.207   5.977   4.542
 5310TIP3    H215876   2.146   5.876   4.637
 5311TIP3   OH215877   1.137   0.752   5.727
 5311TIP3    H115878   1.190   0.781   5.653
 5311TIP3    H215879   1.152   0.658   5.732
 5312TIP3   OH215880   3.324   0.838   4.551
 5312TIP3    H115881   3.338   0.843   4.456
 5312TIP3    H215882   3.237   0.875   4.565
 5313TIP3   OH215883   3.554   1.715   3.896
 5313TIP3    H115884   3.551   1.643   3.959
 5313TIP3    H215885   3.468   1.715   3.855
 5314TIP3   OH215886   0.973   7.047   4.236
 5314TIP3    H115887   0.880   7.027   4.251
 5314TIP3    H215888   0.971   7.116   4.169
 5315TIP3   OH215889   0.931   0.261   6.258
 5315TIP3    H115890   0.927   0.198   6.186
 5315TIP3    H215891   0.921   0.209   6.337
 5316TIP3   OH215892   1.219   3.464   0.231
 5316TIP3    H115893   1.194   3.466   0.138
 5316TIP3    H215894   1.136   3.465   0.278
 5317TIP3   OH215895   7.095   2.897   3.579
 5317TIP3    H115896   7.160   2.954   3.537
 5317TIP3    H215897   7.059   2.950   3.649
 5318TIP3   OH215898   5.133   4.632   0.263
 5318TIP3    H115899   5.145   4.705   0.325
 5318TIP3    H215900   5.096   4.673   0.185
 5319TIP3   OH215901   4.266   0.145   6.703
 5319TIP3    H115902   4.220   0.184   6.777
 5319TIP3    H215903   4.358   0.168   6.718
 5320TIP3   OH215904   6.501   5.349   2.785
 5320TIP3    H115905   6.485   5.274   2.841
 5320TIP3    H215906   6.513   5.422   2.846
 5321TIP3   OH215907   5.336   1.678   2.601
 5321TIP3    H115908   5.416   1.728   2.615
 5321TIP3    H215909   5.306   1.654   2.688
 5322TIP3   OH215910   0.728   6.000   5.884
 5322TIP3    H115911   0.819   6.028   5.886
 5322TIP3    H215912   0.690   6.036   5.965
 5323TIP3   OH215913   4.913   6.633   1.097
 5323TIP3    H115914   4.823   6.602   1.099
 5323TIP3    H215915   4.948   6.611   1.183
 5324TIP3   OH215916   2.474   6.195   4.362
 5324TIP3    H115917   2.562   6.178   4.397
 5324TIP3    H215918   2.487   6.198   4.267
 5325TIP3   OH215919   0.133   7.464   5.410
 5325TIP3    H115920   0.207   7.518   5.383
 5325TIP3    H215921   0.057   7.509   5.372
 5326TIP3   OH215922   8.194   1.343   4.891
 5326TIP3    H115923   8.225   1.381   4.808
 5326TIP3    H215924   8.127   1.280   4.865
 5327TIP3   OH215925   5.784   0.696   5.707
 5327TIP3    H115926   5.694   0.729   5.716
 5327TIP3    H215927   5.829   0.730   5.784
 5328TIP3   OH215928   1.779   1.778   0.219
 5328TIP3    H115929   1.704   1.772   0.279
 5328TIP3    H215930   1.825   1.695   0.230
 5329TIP3   OH215931   2.327   1.278   6.643
 5329TIP3    H115932   2.344   1.207   6.705
 5329TIP3    H215933   2.340   1.358   6.694
 5330TIP3   OH215934   7.224   1.775   4.995
 5330TIP3    H115935   7.302   1.768   5.051
 5330TIP3    H215936   7.245   1.723   4.918
 5331TIP3   OH215937   1.648   4.462   5.169
 5331TIP3    H115938   1.735   4.502   5.168
 5331TIP3    H215939   1.652   4.398   5.240
 5332TIP3   OH215940   2.762   6.547   6.300
 5332TIP3    H115941   2.676   6.561   6.340
 5332TIP3    H215942   2.749   6.572   6.208
 5333TIP3   OH215943   1.046   6.765   6.722
 5333TIP3    H115944   0.999   6.703   6.666
 5333TIP3    H215945   1.120   6.794   6.670
 5334TIP3   OH215946   1.217   1.756   3.360
 5334TIP3    H115947   1.186   1.800   3.281
 5334TIP3    H215948   1.148   1.694   3.382
 5335TIP3   OH215949   7.359   4.879   0.272
 5335TIP3    H115950   7.434   4.863   0.329
 5335TIP3    H215951   7.359   4.804   0.212
 5336TIP3   OH215952   5.287   0.933   4.935
 5336TIP3    H115953   5.290   0.842   4.964
 5336TIP3    H215954   5.369   0.971   4.967
 5337TIP3   OH215955   5.681   7.787   3.989
 5337TIP3    H115956   5.620   7.742   3.930
 5337TIP3    H215957   5.627   7.849   4.037
 5338TIP3   OH215958   2.100   3.007   0.044
 5338TIP3    H115959   2.113   2.971   0.132
 5338TIP3    H215960   2.023   2.961   0.010
 5339TIP3   OH215961   3.406   6.098   0.485
 5339TIP3    H115962   3.323   6.070   0.522
 5339TIP3    H215963   3.471   6.037   0.521
 5340TIP3   OH215964   5.793   3.813   5.542
 5340TIP3    H115965   5.761   3.901   5.559
 5340TIP3    H215966   5.714   3.759   5.536
 5341TIP3   OH215967   4.247   7.349   5.217
 5341TIP3    H115968   4.153   7.353   5.234
 5341TIP3    H215969   4.287   7.370   5.302
 5342TIP3   OH215970   2.900   4.027   1.261
 5342TIP3    H115971   2.854   4.111   1.255
 5342TIP3    H215972   2.969   4.033   1.194
 5343TIP3   OH215973   6.863   6.182   4.598
 5343TIP3    H115974   6.884   6.175   4.505
 5343TIP3    H215975   6.901   6.103   4.637
 5344TIP3   OH215976   1.604   6.291   4.589
 5344TIP3    H115977   1.525   6.345   4.580
 5344TIP3    H215978   1.588   6.238   4.667
 5345TIP3   OH215979   1.983   1.640   5.242
 5345TIP3    H115980   1.990   1.548   5.269
 5345TIP3    H215981   1.945   1.685   5.318
 5346TIP3   OH215982   0.892   7.378   2.275
 5346TIP3    H115983   0.867   7.464   2.307
 5346TIP3    H215984   0.893   7.386   2.180
 5347TIP3   OH215985   0.803   7.011   5.737
 5347TIP3    H115986   0.894   6.989   5.717
 5347TIP3    H215987   0.790   6.983   5.827
 5348TIP3   OH215988   0.600   4.922   2.481
 5348TIP3    H115989   0.668   4.873   2.434
 5348TIP3    H215990   0.522   4.866   2.476
 5349TIP3   OH215991   7.035   6.694   1.956
 5349TIP3    H115992   7.023   6.605   1.922
 5349TIP3    H215993   6.979   6.697   2.034
 5350TIP3   OH215994   1.124   3.637   0.524
 5350TIP3    H115995   1.080   3.655   0.607
 5350TIP3    H215996   1.096   3.548   0.501
 5351TIP3   OH215997   7.565   3.747   5.442
 5351TIP3    H115998   7.614   3.747   5.360
 5351TIP3    H215999   7.585   3.832   5.483
 5352TIP3   OH216000   5.519   2.815   5.031
 5352TIP3    H116001   5.551   2.734   4.990
 5352TIP3    H216002   5.495   2.871   4.958
 5353TIP3   OH216003   4.497   4.675   0.191
 5353TIP3    H116004   4.443   4.706   0.119
 5353TIP3    H216005   4.453   4.597   0.224
 5354TIP3   OH216006   0.645   5.048   4.301
 5354TIP3    H116007   0.556   5.030   4.332
 5354TIP3    H216008   0.672   4.968   4.256
 5355TIP3   OH216009   4.215   7.311   3.104
 5355TIP3    H116010   4.165   7.382   3.144
 5355TIP3    H216011   4.300   7.313   3.149
 5356TIP3   OH216012   6.815   7.821   5.624
 5356TIP3    H116013   6.826   7.746   5.682
 5356TIP3    H216014   6.853   7.894   5.672
 5357TIP3   OH216015   4.502   1.745   4.003
 5357TIP3    H116016   4.561   1.698   3.944
 5357TIP3    H216017   4.501   1.834   3.969
 5358TIP3   OH216018   7.243   6.030   6.491
 5358TIP3    H116019   7.297   5.951   6.494
 5358TIP3    H216020   7.306   6.103   6.489
 5359TIP3   OH216021   6.865   1.130   4.746
 5359TIP3    H116022   6.903   1.121   4.659
 5359TIP3    H216023   6.794   1.193   4.736
 5360TIP3   OH216024   3.835   2.625   0.713
 5360TIP3    H116025   3.780   2.698   0.684
 5360TIP3    H216026   3.812   2.554   0.653
 5361TIP3   OH216027   7.958   1.712   4.435
 5361TIP3    H116028   7.887   1.648   4.446
 5361TIP3    H216029   8.033   1.672   4.480
 5362TIP3   OH216030   8.040   2.537   3.387
 5362TIP3    H116031   8.014   2.593   3.461
 5362TIP3    H216032   7.993   2.455   3.402
 5363TIP3   OH216033   7.015   5.600   5.658
 5363TIP3    H116034   7.024   5.628   5.749
 5363TIP3    H216035   6.983   5.510   5.663
 5364TIP3   OH216036   6.881   0.999   0.443
 5364TIP3    H116037   6.870   1.015   0.349
 5364TIP3    H216038   6.795   0.967   0.472
 5365TIP3   OH216039   1.896   4.338   2.164
 5365TIP3    H116040   1.951   4.411   2.192
 5365TIP3    H216041   1.904   4.274   2.236
 5366TIP3   OH216042   1.654   6.169   1.109
 5366TIP3    H116043   1.610   6.186   1.026
 5366TIP3    H216044   1.728   6.113   1.085
 5367TIP3   OH216045   5.540   5.904   6.000
 5367TIP3    H116046   5.635   5.912   5.985
 5367TIP3    H216047   5.528   5.814   6.030
 5368TIP3   OH216048   6.060   0.987   5.719
 5368TIP3    H116049   6.132   0.997   5.783
 5368TIP3    H216050   5.998   0.929   5.763
 5369TIP3   OH216051   3.979   5.090   0.632
 5369TIP3    H116052   3.994   5.057   0.544
 5369TIP3    H216053   3.909   5.034   0.667
 5370TIP3   OH216054   1.383   6.287   6.505
 5370TIP3    H116055   1.465   6.284   6.553
 5370TIP3    H216056   1.334   6.210   6.534
 5371TIP3   OH216057   7.609   6.625   0.914
 5371TIP3    H116058   7.517   6.604   0.933
 5371TIP3    H216059   7.658   6.576   0.980
 5372TIP3   OH216060   4.740   3.644   0.025
 5372TIP3    H116061   4.783   3.696   0.092
 5372TIP3    H216062   4.715   3.563   0.069
 5373TIP3   OH216063   3.346   4.239   6.373
 5373TIP3    H116064   3.289   4.300   6.419
 5373TIP3    H216065   3.425   4.234   6.426
 5374TIP3   OH216066   1.687   1.161   1.858
 5374TIP3    H116067   1.774   1.153   1.897
 5374TIP3    H216068   1.688   1.245   1.812
 5375TIP3   OH216069   2.996   3.887   4.052
 5375TIP3    H116070   3.068   3.867   3.991
 5375TIP3    H216071   3.036   3.945   4.117
 5376TIP3   OH216072   6.684   3.170   5.233
 5376TIP3    H116073   6.642   3.203   5.313
 5376TIP3    H216074   6.740   3.099   5.263
 5377TIP3   OH216075   1.076   0.286   6.752
 5377TIP3    H116076   1.095   0.306   6.843
 5377TIP3    H216077   1.161   0.291   6.708
 5378TIP3   OH216078   0.938   3.888   0.687
 5378TIP3    H116079   0.913   3.951   0.754
 5378TIP3    H216080   0.929   3.803   0.729
 5379TIP3   OH216081   1.510   1.604   3.792
 5379TIP3    H116082   1.473   1.523   3.758
 5379TIP3    H216083   1.520   1.660   3.716
 5380TIP3   OH216084   1.574   6.419   0.074
 5380TIP3    H116085   1.662   6.446   0.050
 5380TIP3    H216086   1.546   6.483   0.140
 5381TIP3   OH216087   3.948   0.624   2.469
 5381TIP3    H116088   3.929   0.587   2.555
 5381TIP3    H216089   3.962   0.717   2.485
 5382TIP3   OH216090   7.462   4.272   5.103
 5382TIP3    H116091   7.508   4.318   5.172
 5382TIP3    H216092   7.399   4.336   5.069
 5383TIP3   OH216093   4.710   5.432   5.123
 5383TIP3    H116094   4.802   5.445   5.145
 5383TIP3    H216095   4.681   5.517   5.090
 5384TIP3   OH216096   7.246   6.049   1.070
 5384TIP3    H116097   7.320   6.039   1.130
 5384TIP3    H216098   7.287   6.064   0.984
 5385TIP3   OH216099   3.117   1.782   0.082
 5385TIP3    H116100   3.146   1.829   0.004
 5385TIP3    H216101   3.062   1.711   0.049
 5386TIP3   OH216102   6.994   2.812   0.799
 5386TIP3    H116103   7.017   2.806   0.706
 5386TIP3    H216104   6.996   2.906   0.818
 5387TIP3   OH216105   2.768   3.793   3.307
 5387TIP3    H116106   2.696   3.843   3.267
 5387TIP3    H216107   2.825   3.860   3.345
 5388TIP3   OH216108   2.859   0.859   6.325
 5388TIP3    H116109   2.896   0.792   6.266
 5388TIP3    H216110   2.765   0.847   6.319
 5389TIP3   OH216111   2.290   6.201   6.197
 5389TIP3    H116112   2.289   6.135   6.128
 5389TIP3    H216113   2.208   6.250   6.184
 5390TIP3   OH216114   7.972   3.415   0.802
 5390TIP3    H116115   8.000   3.332   0.841
 5390TIP3    H216116   7.918   3.456   0.870
 5391TIP3   OH216117   3.480   0.750   3.189
 5391TIP3    H116118   3.406   0.702   3.150
 5391TIP3    H216119   3.533   0.777   3.114
 5392TIP3   OH216120   2.591   5.894   2.656
 5392TIP3    H116121   2.526   5.825   2.664
 5392TIP3    H216122   2.540   5.974   2.644
 5393TIP3   OH216123   5.886   7.832   2.367
 5393TIP3    H116124   5.963   7.782   2.394
 5393TIP3    H216125   5.811   7.781   2.399
 5394TIP3   OH216126   4.315   6.062   0.291
 5394TIP3    H116127   4.241   6.006   0.269
 5394TIP3    H216128   4.299   6.144   0.243
 5395TIP3   OH216129   5.938   7.143   2.987
 5395TIP3    H116130   5.909   7.126   3.076
 5395TIP3    H216131   5.949   7.057   2.947
 5396TIP3   OH216132   2.501   6.140   4.815
 5396TIP3    H116133   2.457   6.215   4.856
 5396TIP3    H216134   2.460   6.133   4.728
 5397TIP3   OH216135   6.468   5.765   1.010
 5397TIP3    H116136   6.439   5.772   0.919
 5397TIP3    H216137   6.388   5.748   1.060
 5398TIP3   OH216138   4.153   3.144   2.961
 5398TIP3    H116139   4.229   3.175   2.912
 5398TIP3    H216140   4.083   3.205   2.938
 5399TIP3   OH216141   2.073   1.991   6.140
 5399TIP3    H116142   2.104   1.902   6.155
 5399TIP3    H216143   2.082   2.004   6.046
 5400TIP3   OH216144   2.198   0.494   0.624
 5400TIP3    H116145   2.241   0.519   0.543
 5400TIP3    H216146   2.216   0.566   0.685
 5401TIP3   OH216147   7.763   5.385   3.569
 5401TIP3    H116148   7.727   5.471   3.545
 5401TIP3    H216149   7.794   5.347   3.487
 5402TIP3   OH216150   2.230   4.621   0.981
 5402TIP3    H116151   2.246   4.527   0.966
 5402TIP3    H216152   2.136   4.631   0.967
 5403TIP3   OH216153   0.200   0.523   2.284
 5403TIP3    H116154   0.121   0.559   2.244
 5403TIP3    H216155   0.179   0.432   2.305
 5404TIP3   OH216156   7.820   4.307   2.774
 5404TIP3    H116157   7.763   4.335   2.845
 5404TIP3    H216158   7.841   4.388   2.727
 5405TIP3   OH216159   1.777   5.115   6.531
 5405TIP3    H116160   1.844   5.135   6.466
 5405TIP3    H216161   1.804   5.163   6.609
 5406TIP3   OH216162   5.929   2.057   5.720
 5406TIP3    H116163   5.896   2.037   5.633
 5406TIP3    H216164   6.016   2.018   5.722
 5407TIP3   OH216165   1.825   6.366   5.969
 5407TIP3    H116166   1.882   6.305   5.922
 5407TIP3    H216167   1.745   6.368   5.917
 5408TIP3   OH216168   4.045   4.051   1.870
 5408TIP3    H116169   4.054   4.029   1.777
 5408TIP3    H216170   3.972   4.112   1.874
 5409TIP3   OH216171   1.380   6.106   1.547
 5409TIP3    H116172   1.337   6.112   1.462
 5409TIP3    H216173   1.453   6.167   1.541
 5410TIP3   OH216174   0.980   5.560   0.466
 5410TIP3    H116175   0.975   5.518   0.552
 5410TIP3    H216176   0.891   5.590   0.449
 5411TIP3   OH216177   4.660   1.023   3.240
 5411TIP3    H116178   4.601   0.947   3.243
 5411TIP3    H216179   4.747   0.986   3.256
 5412TIP3   OH216180   6.606   2.051   2.900
 5412TIP3    H116181   6.683   2.101   2.928
 5412TIP3    H216182   6.614   2.044   2.805
 5413TIP3   OH216183   2.173   1.953   4.611
 5413TIP3    H116184   2.166   1.955   4.516
 5413TIP3    H216185   2.265   1.972   4.628
 5414TIP3   OH216186   3.583   3.812   4.968
 5414TIP3    H116187   3.603   3.830   4.876
 5414TIP3    H216188   3.522   3.882   4.993
 5415TIP3   OH216189   2.825   3.040   3.202
 5415TIP3    H116190   2.910   3.038   3.246
 5415TIP3    H216191   2.769   3.093   3.260
 5416TIP3   OH216192   0.545   5.544   2.334
 5416TIP3    H116193   0.553   5.623   2.386
 5416TIP3    H216194   0.470   5.560   2.277
 5417TIP3   OH216195   3.372   3.254   4.803
 5417TIP3    H116196   3.328   3.229   4.722
 5417TIP3    H216197   3.357   3.348   4.811
 5418TIP3   OH216198   0.384   4.092   0.338
 5418TIP3    H116199   0.454   4.087   0.403
 5418TIP3    H216200   0.313   4.041   0.376
 5419TIP3   OH216201   5.148   3.956   3.558
 5419TIP3    H116202   5.196   4.039   3.567
 5419TIP3    H216203   5.169   3.926   3.470
 5420TIP3   OH216204   3.230   1.866   2.284
 5420TIP3    H116205   3.292   1.863   2.357
 5420TIP3    H216206   3.187   1.780   2.285
 5421TIP3   OH216207   6.934   7.142   4.554
 5421TIP3    H116208   6.989   7.198   4.610
 5421TIP3    H216209   6.933   7.058   4.599
 5422TIP3   OH216210   2.663   5.124   5.557
 5422TIP3    H116211   2.671   5.185   5.484
 5422TIP3    H216212   2.680   5.178   5.635
 5423TIP3   OH216213   3.406   0.157   3.769
 5423TIP3    H116214   3.389   0.205   3.688
 5423TIP3    H216215   3.485   0.107   3.751
 5424TIP3   OH216216   7.926   3.931   1.359
 5424TIP3    H116217   7.936   3.850   1.308
 5424TIP3    H216218   7.838   3.925   1.396
 5425TIP3   OH216219   4.319   3.978   3.345
 5425TIP3    H116220   4.375   4.034   3.292
 5425TIP3    H216221   4.273   4.038   3.404
 5426TIP3   OH216222   4.764   4.574   6.160
 5426TIP3    H116223   4.815   4.502   6.125
 5426TIP3    H216224   4.750   4.632   6.085
 5427TIP3   OH216225   7.233   0.302   6.131
 5427TIP3    H116226   7.178   0.369   6.090
 5427TIP3    H216227   7.320   0.316   6.094
 5428TIP3   OH216228   3.521   7.370   1.379
 5428TIP3    H116229   3.499   7.447   1.431
 5428TIP3    H216230   3.616   7.361   1.388
 5429TIP3   OH216231   8.199   1.700   5.209
 5429TIP3    H116232   8.221   1.620   5.162
 5429TIP3    H216233   8.253   1.696   5.289
 5430TIP3   OH216234   1.382   1.570   0.878
 5430TIP3    H116235   1.337   1.575   0.963
 5430TIP3    H216236   1.331   1.627   0.820
 5431TIP3   OH216237   0.128   4.646   3.193
 5431TIP3    H116238   0.194   4.600   3.244
 5431TIP3    H216239   0.170   4.727   3.166
 5432TIP3   OH216240   3.718   0.445   5.212
 5432TIP3    H116241   3.750   0.359   5.185
 5432TIP3    H216242   3.689   0.432   5.303
 5433TIP3   OH216243   2.223   1.707   3.756
 5433TIP3    H116244   2.234   1.775   3.690
 5433TIP3    H216245   2.199   1.756   3.836
 5434TIP3   OH216246   2.131   6.559   0.440
 5434TIP3    H116247   2.121   6.493   0.509
 5434TIP3    H216248   2.185   6.627   0.480
 5435TIP3   OH216249   3.120   7.598   6.166
 5435TIP3    H116250   3.197   7.646   6.136
 5435TIP3    H216251   3.137   7.579   6.259
 5436TIP3   OH216252   3.460   2.309   1.528
 5436TIP3    H116253   3.414   2.343   1.604
 5436TIP3    H216254   3.427   2.220   1.517
 5437TIP3   OH216255   0.020   1.757   5.449
 5437TIP3    H116256  -0.054   1.748   5.509
 5437TIP3    H216257   0.073   1.679   5.464
 5438TIP3   OH216258   8.286   6.048   2.601
 5438TIP3    H116259   8.248   6.030   2.516
 5438TIP3    H216260   8.380   6.057   2.584
 5439TIP3   OH216261   7.254   0.975   5.753
 5439TIP3    H116262   7.200   1.017   5.686
 5439TIP3    H216263   7.207   0.896   5.777
 5440TIP3   OH216264   0.583   4.191   4.613
 5440TIP3    H116265   0.581   4.098   4.587
 5440TIP3    H216266   0.674   4.217   4.600
 5441TIP3   OH216267   5.760   6.992   6.120
 5441TIP3    H116268   5.713   6.969   6.201
 5441TIP3    H216269   5.796   6.908   6.090
 5442TIP3   OH216270   3.484   0.651   3.448
 5442TIP3    H116271   3.474   0.648   3.353
 5442TIP3    H216272   3.394   0.647   3.482
 5443TIP3   OH216273   4.848   5.861   6.058
 5443TIP3    H116274   4.798   5.935   6.024
 5443TIP3    H216275   4.791   5.785   6.042
 5444TIP3   OH216276   8.021   6.869   4.897
 5444TIP3    H116277   8.015   6.922   4.976
 5444TIP3    H216278   8.027   6.933   4.826
 5445TIP3   OH216279   4.607   0.768   6.502
 5445TIP3    H116280   4.559   0.851   6.491
 5445TIP3    H216281   4.590   0.720   6.421
 5446TIP3   OH216282   1.102   7.216   6.244
 5446TIP3    H116283   1.096   7.249   6.154
 5446TIP3    H216284   1.022   7.248   6.286
 5447TIP3   OH216285   3.681   0.814   0.914
 5447TIP3    H116286   3.619   0.813   0.987
 5447TIP3    H216287   3.710   0.724   0.905
 5448TIP3   OH216288   6.993   4.274   6.277
 5448TIP3    H116289   7.041   4.278   6.194
 5448TIP3    H216290   7.043   4.213   6.331
 5449TIP3   OH216291   0.406   0.908   1.874
 5449TIP3    H116292   0.456   0.877   1.950
 5449TIP3    H216293   0.470   0.912   1.803
 5450TIP3   OH216294   6.936   0.261   5.784
 5450TIP3    H116295   6.840   0.257   5.777
 5450TIP3    H216296   6.964   0.170   5.776
 5451TIP3   OH216297   6.403   6.426   1.817
 5451TIP3    H116298   6.447   6.421   1.901
 5451TIP3    H216299   6.471   6.457   1.756
 5452TIP3   OH216300   6.809   5.389   2.809
 5452TIP3    H116301   6.713   5.388   2.808
 5452TIP3    H216302   6.834   5.301   2.781
 5453TIP3   OH216303   4.745   1.447   1.563
 5453TIP3    H116304   4.836   1.478   1.560
 5453TIP3    H216305   4.731   1.425   1.655
 5454TIP3   OH216306   2.699   6.830   0.609
 5454TIP3    H116307   2.621   6.832   0.554
 5454TIP3    H216308   2.772   6.846   0.548
 5455TIP3   OH216309   3.860   7.510   3.507
 5455TIP3    H116310   3.826   7.466   3.430
 5455TIP3    H216311   3.952   7.529   3.486
 5456TIP3   OH216312   7.316   2.304   6.440
 5456TIP3    H116313   7.281   2.389   6.413
 5456TIP3    H216314   7.239   2.250   6.455
 5457TIP3   OH216315   1.305   2.601   1.627
 5457TIP3    H116316   1.397   2.585   1.605
 5457TIP3    H216317   1.308   2.660   1.702
 5458TIP3   OH216318   8.151   5.413   2.972
 5458TIP3    H116319   8.144   5.484   3.036
 5458TIP3    H216320   8.130   5.454   2.888
 5459TIP3   OH216321   4.212   0.367   1.961
 5459TIP3    H116322   4.208   0.275   1.933
 5459TIP3    H216323   4.270   0.409   1.898
 5460TIP3   OH216324   6.046   2.857   5.465
 5460TIP3    H116325   6.129   2.901   5.485
 5460TIP3    H216326   5.985   2.928   5.444
 5461TIP3   OH216327   3.317   0.585   2.743
 5461TIP3    H116328   3.336   0.621   2.656
 5461TIP3    H216329   3.400   0.545   2.771
 5462TIP3   OH216330   3.497   5.130   0.071
 5462TIP3    H116331   3.481   5.129  -0.023
 5462TIP3    H216332   3.592   5.133   0.080
 5463TIP3   OH216333   4.609   0.956   4.072
 5463TIP3    H116334   4.623   0.961   4.166
 5463TIP3    H216335   4.666   0.885   4.043
 5464TIP3   OH216336   2.473   6.612   5.567
 5464TIP3    H116337   2.540   6.548   5.542
 5464TIP3    H216338   2.466   6.603   5.662
 5465TIP3   OH216339   6.264   2.149   4.822
 5465TIP3    H116340   6.220   2.115   4.744
 5465TIP3    H216341   6.293   2.237   4.796
 5466TIP3   OH216342   6.484   2.755   0.332
 5466TIP3    H116343   6.435   2.824   0.377
 5466TIP3    H216344   6.571   2.759   0.371
 5467TIP3   OH216345   2.109   7.047   2.026
 5467TIP3    H116346   2.023   7.056   2.067
 5467TIP3    H216347   2.101   6.969   1.971
 5468TIP3   OH216348   3.316   7.440   5.133
 5468TIP3    H116349   3.338   7.415   5.223
 5468TIP3    H216350   3.357   7.372   5.079
 5469TIP3   OH216351   1.915   6.776   3.624
 5469TIP3    H116352   1.930   6.783   3.718
 5469TIP3    H216353   1.999   6.746   3.589
 5470TIP3   OH216354   5.445   3.836   2.975
 5470TIP3    H116355   5.473   3.777   3.045
 5470TIP3    H216356   5.409   3.778   2.907
 5471TIP3   OH216357   5.555   4.712   4.317
 5471TIP3    H116358   5.461   4.719   4.329
 5471TIP3    H216359   5.584   4.801   4.296
 5472TIP3   OH216360   7.228   5.472   2.927
 5472TIP3    H116361   7.246   5.494   3.019
 5472TIP3    H216362   7.215   5.556   2.884
 5473TIP3   OH216363   4.921   4.930   6.688
 5473TIP3    H116364   4.968   4.854   6.723
 5473TIP3    H216365   4.989   4.992   6.663
 5474TIP3   OH216366   1.187   4.818   1.183
 5474TIP3    H116367   1.196   4.733   1.225
 5474TIP3    H216368   1.121   4.864   1.236
 5475TIP3   OH216369   4.012   2.901   0.652
 5475TIP3    H116370   4.068   2.978   0.663
 5475TIP3    H216371   3.973   2.888   0.738
 5476TIP3   OH216372   2.603   1.024   0.662
 5476TIP3    H116373   2.647   0.939   0.672
 5476TIP3    H216374   2.669   1.080   0.621
 5477TIP3   OH216375   1.118   3.803   1.028
 5477TIP3    H116376   1.139   3.750   0.951
 5477TIP3    H216377   1.058   3.870   0.995
 5478TIP3   OH216378   6.960   5.028   0.623
 5478TIP3    H116379   7.036   4.997   0.574
 5478TIP3    H216380   6.890   5.033   0.559
 5479TIP3   OH216381   3.164   4.821   4.584
 5479TIP3    H116382   3.116   4.796   4.505
 5479TIP3    H216383   3.238   4.873   4.551
 5480TIP3   OH216384   1.565   1.500   0.501
 5480TIP3    H116385   1.543   1.533   0.588
 5480TIP3    H216386   1.636   1.437   0.517
 5481TIP3   OH216387   4.151   3.078   4.456
 5481TIP3    H116388   4.158   2.984   4.474
 5481TIP3    H216389   4.242   3.108   4.454
 5482TIP3   OH216390   2.206   4.297   3.156
 5482TIP3    H116391   2.129   4.247   3.129
 5482TIP3    H216392   2.185   4.387   3.130
 5483TIP3   OH216393   4.643   4.615   5.262
 5483TIP3    H116394   4.731   4.582   5.279
 5483TIP3    H216395   4.638   4.698   5.309
 5484TIP3   OH216396   5.330   1.919   5.028
 5484TIP3    H116397   5.251   1.870   5.050
 5484TIP3    H216398   5.388   1.908   5.103
 5485TIP3   OH216399   4.662   4.463   2.328
 5485TIP3    H116400   4.644   4.446   2.421
 5485TIP3    H216401   4.612   4.395   2.282
 5486TIP3   OH216402   3.299   5.396   1.214
 5486TIP3    H116403   3.334   5.390   1.125
 5486TIP3    H216404   3.256   5.481   1.218
 5487TIP3   OH216405   2.406   6.608   0.142
 5487TIP3    H116406   2.407   6.541   0.073
 5487TIP3    H216407   2.490   6.596   0.187
 5488TIP3   OH216408   6.174   7.769   2.072
 5488TIP3    H116409   6.208   7.742   2.157
 5488TIP3    H216410   6.109   7.836   2.092
 5489TIP3   OH216411   3.984   6.480   2.164
 5489TIP3    H116412   3.970   6.571   2.138
 5489TIP3    H216413   4.072   6.479   2.201
 5490TIP3   OH216414   3.944   3.743   1.817
 5490TIP3    H116415   3.967   3.794   1.739
 5490TIP3    H216416   3.979   3.794   1.890
 5491TIP3   OH216417   6.847   6.347   3.283
 5491TIP3    H116418   6.875   6.258   3.303
 5491TIP3    H216419   6.780   6.337   3.215
 5492TIP3   OH216420   4.314   0.165   5.258
 5492TIP3    H116421   4.344   0.161   5.349
 5492TIP3    H216422   4.219   0.155   5.264
 5493TIP3   OH216423   1.010   7.221   4.034
 5493TIP3    H116424   1.053   7.199   3.951
 5493TIP3    H216425   1.072   7.278   4.079
 5494TIP3   OH216426   5.620   0.093   6.426
 5494TIP3    H116427   5.626   0.035   6.350
 5494TIP3    H216428   5.597   0.035   6.499
 5495TIP3   OH216429   7.296   6.683   4.257
 5495TIP3    H116430   7.211   6.726   4.257
 5495TIP3    H216431   7.342   6.720   4.333
 5496TIP3   OH216432   6.596   6.931   4.906
 5496TIP3    H116433   6.668   6.993   4.894
 5496TIP3    H216434   6.547   6.935   4.823
 5497TIP3   OH216435   8.129   3.091   0.694
 5497TIP3    H116436   8.221   3.117   0.697
 5497TIP3    H216437   8.094   3.114   0.780
 5498TIP3   OH216438   5.503   1.077   5.041
 5498TIP3    H116439   5.484   1.140   5.111
 5498TIP3    H216440   5.587   1.039   5.067
 5499TIP3   OH216441   1.845   2.838   4.419
 5499TIP3    H116442   1.756   2.854   4.449
 5499TIP3    H216443   1.836   2.806   4.329
 5500TIP3   OH216444   0.195   6.261   2.442
 5500TIP3    H116445   0.244   6.215   2.511
 5500TIP3    H216446   0.232   6.349   2.441
 5501TIP3   OH216447   6.349   3.798   2.383
 5501TIP3    H116448   6.304   3.843   2.455
 5501TIP3    H216449   6.289   3.806   2.309
 5502TIP3   OH216450   5.604   1.328   4.564
 5502TIP3    H116451   5.675   1.338   4.627
 5502TIP3    H216452   5.535   1.386   4.596
 5503TIP3   OH216453   2.967   7.353   6.718
 5503TIP3    H116454   2.925   7.417   6.776
 5503TIP3    H216455   3.060   7.371   6.727
 5504TIP3   OH216456   4.164   4.492   5.604
 5504TIP3    H116457   4.138   4.539   5.684
 5504TIP3    H216458   4.221   4.553   5.558
 5505TIP3   OH216459   6.540   1.244   5.765
 5505TIP3    H116460   6.628   1.239   5.730
 5505TIP3    H216461   6.517   1.153   5.785
 5506TIP3   OH216462   5.088   6.262   1.381
 5506TIP3    H116463   5.066   6.170   1.366
 5506TIP3    H216464   5.153   6.282   1.314
 5507TIP3   OH216465   6.782   0.829   4.391
 5507TIP3    H116466   6.713   0.762   4.388
 5507TIP3    H216467   6.851   0.790   4.444
 5508TIP3   OH216468   6.424   5.096   5.695
 5508TIP3    H116469   6.366   5.020   5.705
 5508TIP3    H216470   6.501   5.062   5.651
 5509TIP3   OH216471   0.249   4.131   3.442
 5509TIP3    H116472   0.200   4.191   3.386
 5509TIP3    H216473   0.186   4.104   3.509
 5510TIP3   OH216474   6.772   5.616   0.146
 5510TIP3    H116475   6.772   5.619   0.051
 5510TIP3    H216476   6.683   5.590   0.170
 5511TIP3   OH216477   2.833   1.545   5.887
 5511TIP3    H116478   2.888   1.523   5.812
 5511TIP3    H216479   2.744   1.521   5.859
 5512TIP3   OH216480   2.822   4.120   5.667
 5512TIP3    H116481   2.885   4.184   5.634
 5512TIP3    H216482   2.833   4.044   5.610
 5513TIP3   OH216483   3.391   2.673   0.531
 5513TIP3    H116484   3.413   2.753   0.484
 5513TIP3    H216485   3.323   2.699   0.593
 5514TIP3   OH216486   0.475   0.272   5.277
 5514TIP3    H116487   0.407   0.299   5.339
 5514TIP3    H216488   0.466   0.177   5.272
 5515TIP3   OH216489   5.945   1.136   1.790
 5515TIP3    H116490   6.005   1.154   1.862
 5515TIP3    H216491   5.893   1.216   1.781
 5516TIP3   OH216492   3.125   4.616   6.696
 5516TIP3    H116493   3.059   4.551   6.717
 5516TIP3    H216494   3.086   4.700   6.721
 5517TIP3   OH216495   7.115   5.431   1.775
 5517TIP3    H116496   7.026   5.399   1.762
 5517TIP3    H216497   7.144   5.459   1.689
 5518TIP3   OH216498   0.243   3.843   5.425
 5518TIP3    H116499   0.197   3.837   5.342
 5518TIP3    H216500   0.245   3.754   5.458
 5519TIP3   OH216501   6.937   1.497   6.675
 5519TIP3    H116502   6.953   1.475   6.583
 5519TIP3    H216503   6.843   1.489   6.686
 5520TIP3   OH216504   8.144   5.879   4.373
 5520TIP3    H116505   8.229   5.852   4.340
 5520TIP3    H216506   8.154   5.879   4.468
 5521TIP3   OH216507   5.719   3.169   4.940
 5521TIP3    H116508   5.692   3.239   5.000
 5521TIP3    H216509   5.679   3.192   4.856
 5522TIP3   OH216510   6.377   2.294   2.894
 5522TIP3    H116511   6.423   2.377   2.894
 5522TIP3    H216512   6.443   2.229   2.869
 5523TIP3   OH216513   0.916   3.537   6.173
 5523TIP3    H116514   0.967   3.618   6.165
 5523TIP3    H216515   0.841   3.561   6.228
 5524TIP3   OH216516   1.397   1.950   2.056
 5524TIP3    H116517   1.358   1.878   2.005
 5524TIP3    H216518   1.436   1.907   2.132
 5525TIP3   OH216519   0.103   5.737   2.403
 5525TIP3    H116520   0.026   5.792   2.396
 5525TIP3    H216521   0.077   5.666   2.462
 5526TIP3   OH216522   2.126   1.977  -0.023
 5526TIP3    H116523   2.040   2.018  -0.018
 5526TIP3    H216524   2.138   1.933   0.061
 5527TIP3   OH216525   1.386   1.452   3.569
 5527TIP3    H116526   1.414   1.528   3.518
 5527TIP3    H216527   1.443   1.381   3.540
 5528TIP3   OH216528   0.941   4.296   0.248
 5528TIP3    H116529   0.965   4.293   0.156
 5528TIP3    H216530   0.915   4.387   0.263
 5529TIP3   OH216531   6.149   3.840   3.683
 5529TIP3    H116532   6.135   3.749   3.711
 5529TIP3    H216533   6.232   3.865   3.723
 5530TIP3   OH216534   4.600   3.461   3.663
 5530TIP3    H116535   4.519   3.415   3.641
 5530TIP3    H216536   4.600   3.464   3.759
 5531TIP3   OH216537   0.494   0.557   4.735
 5531TIP3    H116538   0.514   0.513   4.818
 5531TIP3    H216539   0.483   0.649   4.759
 5532TIP3   OH216540   1.963   4.012   0.965
 5532TIP3    H116541   2.033   3.946   0.968
 5532TIP3    H216542   1.954   4.042   1.055
 5533TIP3   OH216543   0.120   4.964   2.963
 5533TIP3    H116544   0.041   4.968   3.017
 5533TIP3    H216545   0.147   5.055   2.952
 5534TIP3   OH216546   6.718   6.627   5.380
 5534TIP3    H116547   6.761   6.682   5.314
 5534TIP3    H216548   6.649   6.581   5.331
 5535TIP3   OH216549   5.181   7.370   3.358
 5535TIP3    H116550   5.134   7.299   3.401
 5535TIP3    H216551   5.134   7.384   3.276
 5536TIP3   OH216552   0.515   7.741   2.737
 5536TIP3    H116553   0.442   7.680   2.726
 5536TIP3    H216554   0.474   7.827   2.743
 5537TIP3   OH216555   0.398   6.180   1.241
 5537TIP3    H116556   0.433   6.092   1.225
 5537TIP3    H216557   0.407   6.192   1.336
 5538TIP3   OH216558   6.560   6.817   3.968
 5538TIP3    H116559   6.551   6.797   4.061
 5538TIP3    H216560   6.480   6.783   3.928
 5539TIP3   OH216561   1.249   6.168   4.696
 5539TIP3    H116562   1.336   6.181   4.733
 5539TIP3    H216563   1.231   6.075   4.709
 5540TIP3   OH216564   0.808   1.300   4.460
 5540TIP3    H116565   0.856   1.319   4.541
 5540TIP3    H216566   0.857   1.229   4.419
 5541TIP3   OH216567   6.910   0.130   3.791
 5541TIP3    H116568   6.827   0.083   3.782
 5541TIP3    H216569   6.885   0.222   3.795
 5542TIP3   OH216570   0.275   1.867   2.606
 5542TIP3    H116571   0.207   1.878   2.540
 5542TIP3    H216572   0.295   1.774   2.604
 5543TIP3   OH216573   3.453   4.672   0.181
 5543TIP3    H116574   3.538   4.688   0.221
 5543TIP3    H216575   3.398   4.640   0.253
 5544TIP3   OH216576   3.492   7.268   0.700
 5544TIP3    H116577   3.531   7.329   0.763
 5544TIP3    H216578   3.406   7.247   0.738
 5545TIP3   OH216579   0.347   5.588   2.110
 5545TIP3    H116580   0.314   5.676   2.092
 5545TIP3    H216581   0.404   5.568   2.036
 5546TIP3   OH216582   1.622   7.198   4.627
 5546TIP3    H116583   1.633   7.162   4.715
 5546TIP3    H216584   1.710   7.196   4.589
 5547TIP3   OH216585   3.431   6.026   5.986
 5547TIP3    H116586   3.501   6.044   6.049
 5547TIP3    H216587   3.350   6.042   6.033
 5548TIP3   OH216588   0.961   0.977   3.933
 5548TIP3    H116589   1.008   1.042   3.985
 5548TIP3    H216590   0.934   0.911   3.998
 5549TIP3   OH216591   2.656   1.722   4.917
 5549TIP3    H116592   2.591   1.787   4.942
 5549TIP3    H216593   2.672   1.738   4.824
 5550TIP3   OH216594   6.722   4.362   2.262
 5550TIP3    H116595   6.760   4.286   2.217
 5550TIP3    H216596   6.686   4.416   2.191
 5551TIP3   OH216597   3.294   6.130   4.765
 5551TIP3    H116598   3.285   6.193   4.836
 5551TIP3    H216599   3.353   6.172   4.702
 5552TIP3   OH216600   0.968   2.155   3.742
 5552TIP3    H116601   0.995   2.104   3.665
 5552TIP3    H216602   0.885   2.116   3.768
 5553TIP3   OH216603   2.381   6.000   6.364
 5553TIP3    H116604   2.357   6.073   6.308
 5553TIP3    H216605   2.303   5.944   6.366
 5554TIP3   OH216606   2.686   5.779   0.261
 5554TIP3    H116607   2.614   5.727   0.224
 5554TIP3    H216608   2.715   5.835   0.188
 5555TIP3   OH216609   5.286   0.584   2.135
 5555TIP3    H116610   5.297   0.586   2.040
 5555TIP3    H216611   5.299   0.675   2.163
 5556TIP3   OH216612   7.950   0.557   0.884
 5556TIP3    H116613   7.905   0.484   0.842
 5556TIP3    H216614   8.017   0.583   0.820
 5557TIP3   OH216615   4.422   0.527   5.944
 5557TIP3    H116616   4.367   0.519   6.022
 5557TIP3    H216617   4.413   0.619   5.919
 5558TIP3   OH216618   3.688   2.636   1.057
 5558TIP3    H116619   3.756   2.670   1.115
 5558TIP3    H216620   3.713   2.545   1.041
 5559TIP3   OH216621   7.816   7.670   1.628
 5559TIP3    H116622   7.856   7.587   1.602
 5559TIP3    H216623   7.843   7.682   1.719
 5560TIP3   OH216624   4.783   1.877   5.242
 5560TIP3    H116625   4.716   1.943   5.262
 5560TIP3    H216626   4.792   1.881   5.147
 5561TIP3   OH216627   4.308   4.833   0.780
 5561TIP3    H116628   4.322   4.800   0.691
 5561TIP3    H216629   4.218   4.864   0.780
 5562TIP3   OH216630   0.493   7.110   1.438
 5562TIP3    H116631   0.579   7.112   1.395
 5562TIP3    H216632   0.483   7.197   1.475
 5563TIP3   OH216633   8.223   3.831   4.460
 5563TIP3    H116634   8.192   3.897   4.523
 5563TIP3    H216635   8.318   3.842   4.459
 5564TIP3   OH216636   4.839   6.394   5.183
 5564TIP3    H116637   4.841   6.349   5.267
 5564TIP3    H216638   4.914   6.453   5.184
 5565TIP3   OH216639   3.094   1.150   1.075
 5565TIP3    H116640   3.043   1.083   1.120
 5565TIP3    H216641   3.123   1.108   0.994
 5566TIP3   OH216642   5.891   7.478   0.586
 5566TIP3    H116643   5.833   7.554   0.590
 5566TIP3    H216644   5.858   7.419   0.654
 5567TIP3   OH216645   1.575   4.632   3.826
 5567TIP3    H116646   1.493   4.655   3.781
 5567TIP3    H216647   1.611   4.716   3.855
 5568TIP3   OH216648   2.692   3.111   2.603
 5568TIP3    H116649   2.722   3.160   2.526
 5568TIP3    H216650   2.596   3.113   2.596
 5569TIP3   OH216651   8.224   7.059   3.755
 5569TIP3    H116652   8.239   6.965   3.749
 5569TIP3    H216653   8.306   7.094   3.788
 5570TIP3   OH216654   8.239   6.308   6.054
 5570TIP3    H116655   8.303   6.374   6.030
 5570TIP3    H216656   8.243   6.243   5.983
 5571TIP3   OH216657   5.085   5.066   5.718
 5571TIP3    H116658   5.157   5.129   5.710
 5571TIP3    H216659   5.006   5.120   5.721
 5572TIP3   OH216660   3.529   1.867   3.540
 5572TIP3    H116661   3.518   1.898   3.450
 5572TIP3    H216662   3.561   1.777   3.530
 5573TIP3   OH216663   2.111   6.025   6.593
 5573TIP3    H116664   2.144   6.035   6.504
 5573TIP3    H216665   2.173   5.965   6.635
 5574TIP3   OH216666   5.226   0.859   2.957
 5574TIP3    H116667   5.177   0.934   2.992
 5574TIP3    H216668   5.305   0.898   2.919
 5575TIP3   OH216669   4.956   1.164   4.636
 5575TIP3    H116670   4.999   1.098   4.692
 5575TIP3    H216671   4.891   1.114   4.587
 5576TIP3   OH216672   0.779   0.724   0.830
 5576TIP3    H116673   0.773   0.652   0.767
 5576TIP3    H216674   0.688   0.747   0.849
 5577TIP3   OH216675   0.726   2.208   4.279
 5577TIP3    H116676   0.811   2.189   4.317
 5577TIP3    H216677   0.693   2.124   4.249
 5578TIP3   OH216678   3.834   3.813   1.220
 5578TIP3    H116679   3.782   3.745   1.264
 5578TIP3    H216680   3.869   3.769   1.143
 5579TIP3   OH216681   4.640   1.697   5.988
 5579TIP3    H116682   4.677   1.674   5.903
 5579TIP3    H216683   4.561   1.644   5.995
 5580TIP3   OH216684   4.864   5.573   5.728
 5580TIP3    H116685   4.801   5.642   5.747
 5580TIP3    H216686   4.942   5.619   5.698
 5581TIP3   OH216687   5.180   5.886   6.271
 5581TIP3    H116688   5.124   5.822   6.315
 5581TIP3    H216689   5.190   5.853   6.182
 5582TIP3   OH216690   7.432   6.330   6.425
 5582TIP3    H116691   7.487   6.260   6.391
 5582TIP3    H216692   7.445   6.326   6.520
 5583TIP3   OH216693  -0.024   6.133   5.847
 5583TIP3    H116694   0.024   6.158   5.768
 5583TIP3    H216695   0.042   6.094   5.904
 5584TIP3   OH216696   8.097   1.870   0.342
 5584TIP3    H116697   8.143   1.954   0.342
 5584TIP3    H216698   8.005   1.894   0.358
 5585TIP3   OH216699   5.755   1.979   6.364
 5585TIP3    H116700   5.725   2.018   6.282
 5585TIP3    H216701   5.675   1.961   6.413
 5586TIP3   OH216702   2.521   6.459   4.470
 5586TIP3    H116703   2.453   6.483   4.532
 5586TIP3    H216704   2.486   6.382   4.425
 5587TIP3   OH216705   7.241   1.070   5.041
 5587TIP3    H116706   7.152   1.045   5.067
 5587TIP3    H216707   7.242   1.060   4.946
 5588TIP3   OH216708   0.644   3.774   2.395
 5588TIP3    H116709   0.715   3.815   2.443
 5588TIP3    H216710   0.572   3.768   2.459
 5589TIP3   OH216711   7.583   1.709   1.911
 5589TIP3    H116712   7.513   1.770   1.889
 5589TIP3    H216713   7.663   1.762   1.912
 5590TIP3   OH216714   2.560   7.146   3.911
 5590TIP3    H116715   2.525   7.234   3.920
 5590TIP3    H216716   2.514   7.094   3.977
 5591TIP3   OH216717   7.335   3.763   5.025
 5591TIP3    H116718   7.404   3.696   5.030
 5591TIP3    H216719   7.382   3.846   5.032
 5592TIP3   OH216720   6.443   5.497   6.521
 5592TIP3    H116721   6.396   5.539   6.449
 5592TIP3    H216722   6.374   5.469   6.581
 5593TIP3   OH216723   2.501   1.847   3.370
 5593TIP3    H116724   2.494   1.920   3.308
 5593TIP3    H216725   2.594   1.845   3.394
 5594TIP3   OH216726   6.211   2.913   2.906
 5594TIP3    H116727   6.182   2.825   2.930
 5594TIP3    H216728   6.241   2.905   2.815
 5595TIP3   OH216729   5.310   3.729   6.452
 5595TIP3    H116730   5.334   3.797   6.389
 5595TIP3    H216731   5.301   3.650   6.399
 5596TIP3   OH216732   1.674   6.721   3.509
 5596TIP3    H116733   1.758   6.763   3.525
 5596TIP3    H216734   1.615   6.793   3.486
 5597TIP3   OH216735   1.572   0.181   3.726
 5597TIP3    H116736   1.638   0.133   3.776
 5597TIP3    H216737   1.564   0.134   3.644
 5598TIP3   OH216738   2.513   7.634   3.436
 5598TIP3    H116739   2.521   7.578   3.513
 5598TIP3    H216740   2.566   7.590   3.370
 5599TIP3   OH216741   0.098   5.287   6.081
 5599TIP3    H116742   0.112   5.369   6.128
 5599TIP3    H216743   0.009   5.260   6.105
 5600TIP3   OH216744   1.112   6.846   4.303
 5600TIP3    H116745   1.188   6.862   4.359
 5600TIP3    H216746   1.074   6.933   4.289
 5601TIP3   OH216747   1.908   3.302   6.485
 5601TIP3    H116748   1.869   3.232   6.538
 5601TIP3    H216749   1.930   3.260   6.402
 5602TIP3   OH216750   1.766   4.625   3.325
 5602TIP3    H116751   1.770   4.659   3.236
 5602TIP3    H216752   1.835   4.558   3.328
 5603TIP3   OH216753   7.269   7.653   0.353
 5603TIP3    H116754   7.274   7.746   0.374
 5603TIP3    H216755   7.220   7.615   0.427
 5604TIP3   OH216756   1.204   6.646   4.642
 5604TIP3    H116757   1.123   6.596   4.655
 5604TIP3    H216758   1.186   6.701   4.565
 5605TIP3   OH216759   7.176   7.080   1.148
 5605TIP3    H116760   7.175   6.994   1.107
 5605TIP3    H216761   7.268   7.100   1.160
 5606TIP3   OH216762   8.078   7.378   0.139
 5606TIP3    H116763   7.986   7.399   0.124
 5606TIP3    H216764   8.124   7.411   0.062
 5607TIP3   OH216765   1.754   7.412   0.713
 5607TIP3    H116766   1.724   7.495   0.750
 5607TIP3    H216767   1.696   7.396   0.638
 5608TIP3   OH216768   0.207   7.690   4.731
 5608TIP3    H116769   0.219   7.646   4.815
 5608TIP3    H216770   0.294   7.689   4.691
 5609TIP3   OH216771   1.674   1.444   5.808
 5609TIP3    H116772   1.580   1.460   5.812
 5609TIP3    H216773   1.713   1.525   5.841
 5610TIP3   OH216774   8.069   3.288   5.283
 5610TIP3    H116775   8.122   3.318   5.210
 5610TIP3    H216776   8.008   3.225   5.244
 5611TIP3   OH216777   2.327   3.646   2.743
 5611TIP3    H116778   2.261   3.675   2.806
 5611TIP3    H216779   2.352   3.559   2.775
 5612TIP3   OH216780   7.244   0.358   4.837
 5612TIP3    H116781   7.300   0.432   4.811
 5612TIP3    H216782   7.303   0.299   4.884
 5613TIP3   OH216783   0.128   4.699   6.755
 5613TIP3    H116784   0.137   4.793   6.741
 5613TIP3    H216785   0.036   4.688   6.781
 5614TIP3   OH216786   2.904   0.828   0.307
 5614TIP3    H116787   2.992   0.798   0.283
 5614TIP3    H216788   2.913   0.923   0.315
 5615TIP3   OH216789   1.075   2.009   1.707
 5615TIP3    H116790   1.140   1.967   1.651
 5615TIP3    H216791   1.106   2.100   1.715
 5616TIP3   OH216792   7.584   0.544   1.874
 5616TIP3    H116793   7.520   0.603   1.834
 5616TIP3    H216794   7.654   0.602   1.905
 5617TIP3   OH216795   4.635   4.825   0.380
 5617TIP3    H116796   4.572   4.896   0.396
 5617TIP3    H216797   4.597   4.774   0.309
 5618TIP3   OH216798   6.808   6.460   5.951
 5618TIP3    H116799   6.871   6.531   5.965
 5618TIP3    H216800   6.856   6.395   5.901
 5619TIP3   OH216801   0.616   5.731   5.879
 5619TIP3    H116802   0.668   5.809   5.860
 5619TIP3    H216803   0.526   5.756   5.857
 5620TIP3   OH216804   6.566   6.740   2.218
 5620TIP3    H116805   6.570   6.833   2.196
 5620TIP3    H216806   6.612   6.733   2.302
 5621TIP3   OH216807   4.238   6.216   5.795
 5621TIP3    H116808   4.287   6.282   5.843
 5621TIP3    H216809   4.174   6.266   5.745
 5622TIP3   OH216810   5.810   1.739   4.159
 5622TIP3    H116811   5.824   1.818   4.108
 5622TIP3    H216812   5.743   1.764   4.223
 5623TIP3   OH216813   1.960   5.931   0.809
 5623TIP3    H116814   2.016   5.856   0.790
 5623TIP3    H216815   1.881   5.916   0.757
 5624TIP3   OH216816   5.372   2.259   5.267
 5624TIP3    H116817   5.333   2.282   5.351
 5624TIP3    H216818   5.453   2.214   5.289
 5625TIP3   OH216819   3.598   6.623   1.580
 5625TIP3    H116820   3.562   6.550   1.528
 5625TIP3    H216821   3.540   6.697   1.560
 5626TIP3   OH216822   4.799   2.899   1.701
 5626TIP3    H116823   4.812   2.804   1.700
 5626TIP3    H216824   4.753   2.915   1.783
 5627TIP3   OH216825   3.523   4.018   3.397
 5627TIP3    H116826   3.434   4.054   3.406
 5627TIP3    H216827   3.577   4.094   3.375
 5628TIP3   OH216828   8.218   6.996   5.836
 5628TIP3    H116829   8.259   7.012   5.921
 5628TIP3    H216830   8.290   6.967   5.780
 5629TIP3   OH216831   0.319   1.561   2.124
 5629TIP3    H116832   0.396   1.587   2.073
 5629TIP3    H216833   0.244   1.593   2.073
 5630TIP3   OH216834   3.918   0.742   1.356
 5630TIP3    H116835   4.005   0.710   1.331
 5630TIP3    H216836   3.933   0.832   1.385
 5631TIP3   OH216837   2.220   3.579   6.755
 5631TIP3    H116838   2.180   3.606   6.672
 5631TIP3    H216839   2.285   3.514   6.729
 5632TIP3   OH216840   5.710   6.378   5.045
 5632TIP3    H116841   5.779   6.335   4.994
 5632TIP3    H216842   5.639   6.314   5.047
 5633TIP3   OH216843   5.981   0.024   5.774
 5633TIP3    H116844   5.999   0.056   5.863
 5633TIP3    H216845   5.886   0.015   5.771
 5634TIP3   OH216846   4.745   5.575   4.284
 5634TIP3    H116847   4.684   5.501   4.287
 5634TIP3    H216848   4.825   5.541   4.324
 5635TIP3   OH216849   4.182   6.694   1.877
 5635TIP3    H116850   4.149   6.610   1.847
 5635TIP3    H216851   4.232   6.674   1.956
 5636TIP3   OH216852   6.816   3.221   4.706
 5636TIP3    H116853   6.787   3.211   4.797
 5636TIP3    H216854   6.910   3.208   4.709
 5637TIP3   OH216855   0.568   2.770   4.411
 5637TIP3    H116856   0.585   2.675   4.413
 5637TIP3    H216857   0.473   2.777   4.404
 5638TIP3   OH216858   4.761   6.674   5.323
 5638TIP3    H116859   4.794   6.751   5.278
 5638TIP3    H216860   4.810   6.601   5.284
 5639TIP3   OH216861   3.547   5.174   1.877
 5639TIP3    H116862   3.565   5.127   1.958
 5639TIP3    H216863   3.504   5.110   1.821
 5640TIP3   OH216864   5.286   6.401   2.179
 5640TIP3    H116865   5.245   6.362   2.256
 5640TIP3    H216866   5.273   6.496   2.190
 5641TIP3   OH216867   1.559   6.894   6.549
 5641TIP3    H116868   1.615   6.947   6.606
 5641TIP3    H216869   1.612   6.816   6.531
 5642TIP3   OH216870   5.616   7.638   5.513
 5642TIP3    H116871   5.582   7.552   5.487
 5642TIP3    H216872   5.619   7.635   5.608
 5643TIP3   OH216873   3.838   5.455   2.014
 5643TIP3    H116874   3.753   5.499   2.023
 5643TIP3    H216875   3.842   5.429   1.922
 5644TIP3   OH216876   4.834   7.551   0.357
 5644TIP3    H116877   4.786   7.606   0.418
 5644TIP3    H216878   4.810   7.585   0.271
 5645TIP3   OH216879   4.753   7.233   3.348
 5645TIP3    H116880   4.701   7.170   3.399
 5645TIP3    H216881   4.805   7.179   3.289
 5646TIP3   OH216882   4.363   7.791   3.403
 5646TIP3    H116883   4.363   7.768   3.310
 5646TIP3    H216884   4.390   7.711   3.448
 5647TIP3   OH216885   6.131   0.673   4.930
 5647TIP3    H116886   6.144   0.753   4.880
 5647TIP3    H216887   6.209   0.667   4.985
 5648TIP3   OH216888   3.249   2.128   4.903
 5648TIP3    H116889   3.320   2.175   4.859
 5648TIP3    H216890   3.176   2.189   4.903
 5649TIP3   OH216891   3.816   2.567   5.315
 5649TIP3    H116892   3.909   2.566   5.292
 5649TIP3    H216893   3.795   2.475   5.333
 5650TIP3   OH216894   5.584   0.461   2.738
 5650TIP3    H116895   5.663   0.407   2.740
 5650TIP3    H216896   5.520   0.411   2.789
 5651TIP3   OH216897   5.036   0.214   2.692
 5651TIP3    H116898   5.018   0.236   2.783
 5651TIP3    H216899   4.999   0.287   2.642
 5652TIP3   OH216900   5.970   0.295   2.966
 5652TIP3    H116901   5.979   0.212   3.014
 5652TIP3    H216902   6.030   0.355   3.011
 5653TIP3   OH216903   6.368   2.084   5.323
 5653TIP3    H116904   6.296   2.079   5.386
 5653TIP3    H216905   6.332   2.132   5.249
 5654TIP3   OH216906   3.145   4.071   4.182
 5654TIP3    H116907   3.094   4.120   4.246
 5654TIP3    H216908   3.158   4.132   4.109
 5655TIP3   OH216909   2.174   1.937   2.896
 5655TIP3    H116910   2.087   1.936   2.854
 5655TIP3    H216911   2.235   1.947   2.823
 5656TIP3   OH216912   6.482   3.803   3.197
 5656TIP3    H116913   6.514   3.831   3.112
 5656TIP3    H216914   6.387   3.800   3.188
 5657TIP3   OH216915   5.905   2.853   0.475
 5657TIP3    H116916   5.887   2.784   0.538
 5657TIP3    H216917   5.957   2.811   0.406
 5658TIP3   OH216918   0.944   2.595   4.293
 5658TIP3    H116919   1.039   2.586   4.290
 5658TIP3    H216920   0.928   2.685   4.320
 5659TIP3   OH216921   6.150   2.857   2.325
 5659TIP3    H116922   6.238   2.824   2.309
 5659TIP3    H216923   6.093   2.785   2.298
 5660TIP3   OH216924   0.233   6.591   3.810
 5660TIP3    H116925   0.290   6.645   3.864
 5660TIP3    H216926   0.195   6.528   3.872
 5661TIP3   OH216927   2.282   2.899   3.773
 5661TIP3    H116928   2.283   2.941   3.859
 5661TIP3    H216929   2.272   2.806   3.791
 5662TIP3   OH216930   5.729   6.260   1.120
 5662TIP3    H116931   5.752   6.170   1.097
 5662TIP3    H216932   5.666   6.250   1.192
 5663TIP3   OH216933   4.748   4.791   1.771
 5663TIP3    H116934   4.727   4.800   1.864
 5663TIP3    H216935   4.665   4.807   1.726
 5664TIP3   OH216936   0.408   7.292   3.751
 5664TIP3    H116937   0.502   7.309   3.737
 5664TIP3    H216938   0.406   7.235   3.828
 5665TIP3   OH216939   4.206   7.609   1.015
 5665TIP3    H116940   4.164   7.693   0.991
 5665TIP3    H216941   4.193   7.602   1.110
 5666TIP3   OH216942   1.245   0.063   3.374
 5666TIP3    H116943   1.161   0.089   3.413
 5666TIP3    H216944   1.275  -0.009   3.429
 5667TIP3   OH216945   2.368   1.050   0.538
 5667TIP3    H116946   2.449   1.058   0.588
 5667TIP3    H216947   2.329   0.969   0.571
 5668TIP3   OH216948   6.265   5.753   6.610
 5668TIP3    H116949   6.273   5.747   6.705
 5668TIP3    H216950   6.230   5.668   6.583
 5669TIP3   OH216951   7.830   4.484   2.212
 5669TIP3    H116952   7.917   4.471   2.173
 5669TIP3    H216953   7.825   4.418   2.280
 5670TIP3   OH216954   3.050   5.277   0.703
 5670TIP3    H116955   3.086   5.234   0.626
 5670TIP3    H216956   3.062   5.370   0.687
 5671TIP3   OH216957   1.268   6.795   5.757
 5671TIP3    H116958   1.315   6.780   5.839
 5671TIP3    H216959   1.255   6.707   5.721
 5672TIP3   OH216960   3.533   1.638   2.798
 5672TIP3    H116961   3.572   1.713   2.754
 5672TIP3    H216962   3.440   1.660   2.804
 5673TIP3   OH216963   0.566   5.513   3.418
 5673TIP3    H116964   0.557   5.418   3.425
 5673TIP3    H216965   0.528   5.547   3.499
 5674TIP3   OH216966   6.382   1.045   3.033
 5674TIP3    H116967   6.374   1.128   2.985
 5674TIP3    H216968   6.316   1.051   3.102
 5675TIP3   OH216969   5.102   5.920   2.200
 5675TIP3    H116970   5.021   5.877   2.170
 5675TIP3    H216971   5.154   5.931   2.120
 5676TIP3   OH216972   2.186   0.325   0.866
 5676TIP3    H116973   2.186   0.375   0.785
 5676TIP3    H216974   2.098   0.289   0.873
 5677TIP3   OH216975   7.031   1.635   3.411
 5677TIP3    H116976   7.069   1.707   3.463
 5677TIP3    H216977   7.014   1.566   3.475
 5678TIP3   OH216978   5.073   1.580   3.092
 5678TIP3    H116979   5.101   1.505   3.144
 5678TIP3    H216980   5.110   1.656   3.136
 5679TIP3   OH216981   6.647   2.138   2.244
 5679TIP3    H116982   6.601   2.126   2.328
 5679TIP3    H216983   6.587   2.102   2.179
 5680TIP3   OH216984   6.080   3.653   2.879
 5680TIP3    H116985   6.143   3.706   2.831
 5680TIP3    H216986   6.085   3.567   2.837
 5681TIP3   OH216987   3.698   0.508   0.750
 5681TIP3    H116988   3.645   0.507   0.671
 5681TIP3    H216989   3.788   0.517   0.719
 5682TIP3   OH216990   3.149   2.551   6.708
 5682TIP3    H116991   3.132   2.638   6.672
 5682TIP3    H216992   3.146   2.563   6.803
 5683TIP3   OH216993   4.661   3.862   1.672
 5683TIP3    H116994   4.643   3.947   1.633
 5683TIP3    H216995   4.656   3.800   1.599
 5684TIP3   OH216996   6.633   0.761   0.884
 5684TIP3    H116997   6.728   0.775   0.881
 5684TIP3    H216998   6.596   0.845   0.855
 5685TIP3   OH216999   0.632   0.921   0.614
 5685TIP3    H117000   0.576   0.890   0.685
 5685TIP3    H217001   0.652   0.843   0.563
 5686TIP3   OH217002   3.535   0.084   6.672
 5686TIP3    H117003   3.522   0.147   6.742
 5686TIP3    H217004   3.452   0.081   6.625
 5687TIP3   OH217005   0.998   4.741   6.745
 5687TIP3    H117006   1.045   4.678   6.690
 5687TIP3    H217007   1.020   4.826   6.707
 5688TIP3   OH217008   2.707   1.668   6.119
 5688TIP3    H117009   2.762   1.601   6.160
 5688TIP3    H217010   2.728   1.661   6.026
 5689TIP3   OH217011   7.724   4.045   2.882
 5689TIP3    H117012   7.753   4.136   2.873
 5689TIP3    H217013   7.740   4.007   2.795
 5690TIP3   OH217014   5.742   2.298   3.828
 5690TIP3    H117015   5.707   2.339   3.907
 5690TIP3    H217016   5.781   2.370   3.779
 5691TIP3   OH217017   1.174   6.374   1.377
 5691TIP3    H117018   1.246   6.407   1.323
 5691TIP3    H217019   1.137   6.301   1.326
 5692TIP3   OH217020   1.251   4.238   2.545
 5692TIP3    H117021   1.331   4.272   2.585
 5692TIP3    H217022   1.192   4.225   2.619
 5693TIP3   OH217023   6.927   7.252   5.059
 5693TIP3    H117024   6.958   7.227   5.147
 5693TIP3    H217025   6.939   7.346   5.055
 5694TIP3   OH217026   5.454   0.232   3.742
 5694TIP3    H117027   5.477   0.152   3.790
 5694TIP3    H217028   5.384   0.272   3.794
 5695TIP3   OH217029   7.825   7.137   3.174
 5695TIP3    H117030   7.804   7.171   3.087
 5695TIP3    H217031   7.820   7.214   3.232
 5696TIP3   OH217032   6.334   7.014   2.759
 5696TIP3    H117033   6.424   7.046   2.753
 5696TIP3    H217034   6.282   7.091   2.781
 5697TIP3   OH217035   7.165   2.853   6.378
 5697TIP3    H117036   7.178   2.835   6.285
 5697TIP3    H217037   7.248   2.890   6.408
 5698TIP3   OH217038   0.610   7.825   1.855
 5698TIP3    H117039   0.615   7.879   1.934
 5698TIP3    H217040   0.556   7.750   1.880
 5699TIP3   OH217041   1.565   5.989   3.776
 5699TIP3    H117042   1.597   6.079   3.790
 5699TIP3    H217043   1.472   5.993   3.800
 5700TIP3   OH217044   6.243   4.501   1.096
 5700TIP3    H117045   6.177   4.566   1.072
 5700TIP3    H217046   6.296   4.544   1.163
 5701TIP3   OH217047   2.518   3.240   4.702
 5701TIP3    H117048   2.519   3.334   4.686
 5701TIP3    H217049   2.437   3.225   4.750
 5702TIP3   OH217050   0.594   2.278   0.463
 5702TIP3    H117051   0.600   2.326   0.380
 5702TIP3    H217052   0.671   2.306   0.512
 5703TIP3   OH217053   6.357   5.417   1.057
 5703TIP3    H117054   6.411   5.340   1.038
 5703TIP3    H217055   6.336   5.453   0.971
 5704TIP3   OH217056   5.016   3.241   2.926
 5704TIP3    H117057   4.933   3.233   2.974
 5704TIP3    H217058   5.052   3.152   2.927
 5705TIP3   OH217059   3.995   0.436   4.111
 5705TIP3    H117060   4.054   0.508   4.136
 5705TIP3    H217061   4.034   0.400   4.032
 5706TIP3   OH217062   4.727   2.300   3.886
 5706TIP3    H117063   4.688   2.307   3.799
 5706TIP3    H217064   4.718   2.207   3.908
 5707TIP3   OH217065   4.132   3.443   0.905
 5707TIP3    H117066   4.057   3.400   0.947
 5707TIP3    H217067   4.116   3.432   0.811
 5708TIP3   OH217068   2.461   4.879   5.002
 5708TIP3    H117069   2.465   4.876   4.906
 5708TIP3    H217070   2.551   4.864   5.030
 5709TIP3   OH217071   4.579   3.503   0.436
 5709TIP3    H117072   4.527   3.438   0.483
 5709TIP3    H217073   4.546   3.587   0.469
 5710TIP3   OH217074   1.240   1.804   1.585
 5710TIP3    H117075   1.295   1.727   1.571
 5710TIP3    H217076   1.202   1.823   1.499
 5711TIP3   OH217077   4.716   2.712   5.042
 5711TIP3    H117078   4.749   2.716   4.952
 5711TIP3    H217079   4.754   2.632   5.078
 5712TIP3   OH217080   6.230   0.139   5.900
 5712TIP3    H117081   6.244   0.168   5.810
 5712TIP3    H217082   6.214   0.045   5.892
 5713TIP3   OH217083   4.441   7.084   6.249
 5713TIP3    H117084   4.495   7.007   6.264
 5713TIP3    H217085   4.365   7.070   6.307
 5714TIP3   OH217086   0.674   0.107   0.655
 5714TIP3    H117087   0.728   0.095   0.733
 5714TIP3    H217088   0.724   0.167   0.600
 5715TIP3   OH217089   2.249   7.321   3.939
 5715TIP3    H117090   2.322   7.381   3.924
 5715TIP3    H217091   2.202   7.319   3.856
 5716TIP3   OH217092   4.458   6.321   2.101
 5716TIP3    H117093   4.516   6.334   2.176
 5716TIP3    H217094   4.404   6.246   2.125
 5717TIP3   OH217095   2.600   7.039   4.682
 5717TIP3    H117096   2.690   7.033   4.714
 5717TIP3    H217097   2.605   7.102   4.610
 5718TIP3   OH217098   8.192   2.844   0.418
 5718TIP3    H117099   8.262   2.907   0.437
 5718TIP3    H217100   8.186   2.790   0.496
 5719TIP3   OH217101   2.146   1.669   2.467
 5719TIP3    H117102   2.096   1.751   2.462
 5719TIP3    H217103   2.110   1.623   2.543
 5720TIP3   OH217104   4.478   6.216   1.342
 5720TIP3    H117105   4.432   6.161   1.278
 5720TIP3    H217106   4.414   6.283   1.366
 5721TIP3   OH217107   4.251   6.066   6.609
 5721TIP3    H117108   4.193   5.994   6.585
 5721TIP3    H217109   4.339   6.029   6.604
 5722TIP3   OH217110   2.053   0.633   0.100
 5722TIP3    H117111   2.070   0.726   0.115
 5722TIP3    H217112   2.012   0.602   0.180
 5723TIP3   OH217113   5.928   2.918   6.436
 5723TIP3    H117114   5.980   2.931   6.516
 5723TIP3    H217115   5.994   2.912   6.367
 5724TIP3   OH217116   1.924   7.310   5.965
 5724TIP3    H117117   1.921   7.215   5.967
 5724TIP3    H217118   2.011   7.332   6.000
 5725TIP3   OH217119   4.900   2.399   1.572
 5725TIP3    H117120   4.974   2.339   1.574
 5725TIP3    H217121   4.868   2.400   1.662
 5726TIP3   OH217122   7.201   5.360   3.895
 5726TIP3    H117123   7.238   5.435   3.941
 5726TIP3    H217124   7.107   5.378   3.892
 5727TIP3   OH217125   6.464   6.945   5.833
 5727TIP3    H117126   6.489   6.910   5.918
 5727TIP3    H217127   6.406   6.878   5.796
 5728TIP3   OH217128   4.971   3.109   0.855
 5728TIP3    H117129   4.924   3.026   0.848
 5728TIP3    H217130   4.958   3.151   0.770
 5729TIP3   OH217131   3.920   2.413   2.728
 5729TIP3    H117132   3.939   2.335   2.780
 5729TIP3    H217133   3.943   2.487   2.784
 5730TIP3   OH217134   0.599   5.165   4.609
 5730TIP3    H117135   0.691   5.156   4.635
 5730TIP3    H217136   0.582   5.088   4.556
 5731TIP3   OH217137   3.858   2.896   4.165
 5731TIP3    H117138   3.941   2.858   4.197
 5731TIP3    H217139   3.866   2.989   4.183
 5732TIP3   OH217140   6.252   4.870   0.316
 5732TIP3    H117141   6.244   4.896   0.224
 5732TIP3    H217142   6.178   4.810   0.330
 5733TIP3   OH217143   5.469   0.048   5.710
 5733TIP3    H117144   5.478   0.143   5.718
 5733TIP3    H217145   5.385   0.036   5.666
 5734TIP3   OH217146   4.594   3.188   2.693
 5734TIP3    H117147   4.660   3.126   2.662
 5734TIP3    H217148   4.634   3.229   2.769
 5735TIP3   OH217149   0.263   1.204   2.597
 5735TIP3    H117150   0.180   1.155   2.597
 5735TIP3    H217151   0.244   1.283   2.545
 5736TIP3   OH217152   3.529   3.007   2.336
 5736TIP3    H117153   3.605   3.007   2.393
 5736TIP3    H217154   3.554   2.952   2.262
 5737TIP3   OH217155   0.852   0.998   1.627
 5737TIP3    H117156   0.850   0.923   1.566
 5737TIP3    H217157   0.929   0.981   1.682
 5738TIP3   OH217158   0.916   1.187   5.173
 5738TIP3    H117159   0.927   1.092   5.167
 5738TIP3    H217160   0.886   1.202   5.262
 5739TIP3   OH217161   6.267   0.778   1.989
 5739TIP3    H117162   6.334   0.826   2.038
 5739TIP3    H217163   6.233   0.714   2.051
 5740TIP3   OH217164   8.098   5.252   1.334
 5740TIP3    H117165   8.004   5.266   1.342
 5740TIP3    H217166   8.135   5.340   1.331
 5741TIP3   OH217167   1.129   0.078   2.321
 5741TIP3    H117168   1.077   0.080   2.241
 5741TIP3    H217169   1.089   0.010   2.374
 5742TIP3   OH217170   5.661   5.301   4.146
 5742TIP3    H117171   5.722   5.230   4.167
 5742TIP3    H217172   5.619   5.272   4.065
 5743TIP3   OH217173   4.104   0.050   0.835
 5743TIP3    H117174   4.027   0.000   0.809
 5743TIP3    H217175   4.100   0.130   0.783
 5744TIP3   OH217176   7.041   2.002   4.634
 5744TIP3    H117177   7.050   2.067   4.564
 5744TIP3    H217178   7.071   1.920   4.595
 5745TIP3   OH217179   2.987   4.304   2.656
 5745TIP3    H117180   2.915   4.279   2.713
 5745TIP3    H217181   3.043   4.226   2.652
 5746TIP3   OH217182   6.140   4.613   5.332
 5746TIP3    H117183   6.117   4.602   5.424
 5746TIP3    H217184   6.218   4.558   5.320
 5747TIP3   OH217185   0.617   6.959   0.792
 5747TIP3    H117186   0.658   6.874   0.780
 5747TIP3    H217187   0.631   6.980   0.885
 5748TIP3   OH217188   5.928   2.642   6.677
 5748TIP3    H117189   6.012   2.598   6.663
 5748TIP3    H217190   5.949   2.735   6.671
 5749TIP3   OH217191   7.630   1.811   1.614
 5749TIP3    H117192   7.552   1.839   1.663
 5749TIP3    H217193   7.704   1.838   1.668
 5750TIP3   OH217194   6.480   0.943   1.589
 5750TIP3    H117195   6.427   0.915   1.514
 5750TIP3    H217196   6.420   0.937   1.664
 5751TIP3   OH217197   3.591   3.421   3.906
 5751TIP3    H117198   3.645   3.431   3.984
 5751TIP3    H217199   3.639   3.359   3.851
 5752TIP3   OH217200   2.619   7.075   0.225
 5752TIP3    H117201   2.650   7.162   0.198
 5752TIP3    H217202   2.538   7.093   0.272
 5753TIP3   OH217203   1.965   7.096   1.435
 5753TIP3    H117204   1.901   7.136   1.376
 5753TIP3    H217205   1.928   7.109   1.522
 5754TIP3   OH217206   3.279   1.191   0.855
 5754TIP3    H117207   3.243   1.139   0.783
 5754TIP3    H217208   3.331   1.259   0.812
 5755TIP3   OH217209   3.889   0.738   1.764
 5755TIP3    H117210   3.948   0.674   1.724
 5755TIP3    H217211   3.817   0.745   1.701
 5756TIP3   OH217212   7.707   7.633   1.256
 5756TIP3    H117213   7.681   7.722   1.278
 5756TIP3    H217214   7.661   7.578   1.320
 5757TIP3   OH217215   7.150   4.352   0.758
 5757TIP3    H117216   7.079   4.403   0.797
 5757TIP3    H217217   7.183   4.298   0.831
 5758TIP3   OH217218   4.646   5.795   1.481
 5758TIP3    H117219   4.722   5.739   1.500
 5758TIP3    H217220   4.577   5.762   1.537
 5759TIP3   OH217221   6.916   1.303   3.851
 5759TIP3    H117222   6.953   1.223   3.887
 5759TIP3    H217223   6.992   1.360   3.836
 5760TIP3   OH217224   6.662   7.334   5.898
 5760TIP3    H117225   6.613   7.414   5.917
 5760TIP3    H217226   6.689   7.302   5.984
 5761TIP3   OH217227   2.050   6.865   0.763
 5761TIP3    H117228   1.983   6.933   0.758
 5761TIP3    H217229   2.000   6.783   0.770
 5762TIP3   OH217230   1.895   3.159   1.331
 5762TIP3    H117231   1.840   3.130   1.404
 5762TIP3    H217232   1.850   3.235   1.295
 5763TIP3   OH217233   7.495   7.338   4.015
 5763TIP3    H117234   7.513   7.287   3.936
 5763TIP3    H217235   7.579   7.377   4.037
 5764TIP3   OH217236   0.590   1.230   6.275
 5764TIP3    H117237   0.616   1.306   6.223
 5764TIP3    H217238   0.590   1.157   6.213
 5765TIP3   OH217239   7.836   4.082   2.315
 5765TIP3    H117240   7.766   4.136   2.352
 5765TIP3    H217241   7.914   4.137   2.321
 5766TIP3   OH217242   5.914   3.395   6.507
 5766TIP3    H117243   5.870   3.313   6.488
 5766TIP3    H217244   5.991   3.370   6.558
 5767TIP3   OH217245   2.475   4.393   6.493
 5767TIP3    H117246   2.546   4.336   6.464
 5767TIP3    H217247   2.518   4.478   6.508
 5768TIP3   OH217248   8.207   2.274   6.792
 5768TIP3    H117249   8.299   2.262   6.816
 5768TIP3    H217250   8.191   2.211   6.721
 5769TIP3   OH217251   6.995   1.254   0.638
 5769TIP3    H117252   6.969   1.162   0.629
 5769TIP3    H217253   6.945   1.286   0.714
 5770TIP3   OH217254   2.784   3.790   1.330
 5770TIP3    H117255   2.711   3.812   1.387
 5770TIP3    H217256   2.814   3.874   1.296
 5771TIP3   OH217257   8.260   1.957   6.792
 5771TIP3    H117258   8.287   1.867   6.776
 5771TIP3    H217259   8.185   1.971   6.735
 5772TIP3   OH217260   4.215   2.950   3.927
 5772TIP3    H117261   4.173   2.866   3.912
 5772TIP3    H217262   4.225   2.956   4.022
 5773TIP3   OH217263   3.462   2.236   2.771
 5773TIP3    H117264   3.551   2.244   2.736
 5773TIP3    H217265   3.464   2.286   2.853
 5774TIP3   OH217266   8.216   6.120   1.318
 5774TIP3    H117267   8.298   6.140   1.271
 5774TIP3    H217268   8.203   6.027   1.304
 5775TIP3   OH217269   6.113   4.370   2.501
 5775TIP3    H117270   6.079   4.297   2.449
 5775TIP3    H217271   6.095   4.448   2.448
 5776TIP3   OH217272   2.298   6.555   3.095
 5776TIP3    H117273   2.374   6.511   3.057
 5776TIP3    H217274   2.328   6.587   3.180
 5777TIP3   OH217275   0.316   4.248   0.105
 5777TIP3    H117276   0.365   4.204   0.174
 5777TIP3    H217277   0.347   4.208   0.024
 5778TIP3   OH217278   8.054   3.890   5.888
 5778TIP3    H117279   7.960   3.874   5.881
 5778TIP3    H217280   8.088   3.814   5.935
 5779TIP3   OH217281   2.488   2.594   5.035
 5779TIP3    H117282   2.411   2.564   5.082
 5779TIP3    H217283   2.538   2.514   5.016
 5780TIP3   OH217284   0.379   2.709   0.348
 5780TIP3    H117285   0.384   2.644   0.278
 5780TIP3    H217286   0.321   2.777   0.314
 5781TIP3   OH217287   3.783   0.171   2.466
 5781TIP3    H117288   3.758   0.124   2.546
 5781TIP3    H217289   3.703   0.177   2.415
 5782TIP3   OH217290   6.959   0.708   2.841
 5782TIP3    H117291   6.875   0.728   2.882
 5782TIP3    H217292   6.983   0.623   2.877
 5783TIP3   OH217293   0.496   1.311   3.042
 5783TIP3    H117294   0.403   1.307   3.020
 5783TIP3    H217295   0.540   1.317   2.957
 5784TIP3   OH217296   4.242   4.253   5.739
 5784TIP3    H117297   4.227   4.321   5.673
 5784TIP3    H217298   4.177   4.185   5.719
 5785TIP3   OH217299   5.255   0.249   4.756
 5785TIP3    H117300   5.307   0.174   4.785
 5785TIP3    H217301   5.184   0.210   4.704
 5786TIP3   OH217302   0.695   7.730   6.351
 5786TIP3    H117303   0.760   7.790   6.388
 5786TIP3    H217304   0.745   7.674   6.291
 5787TIP3   OH217305   4.850   6.664   1.539
 5787TIP3    H117306   4.939   6.669   1.574
 5787TIP3    H217307   4.850   6.585   1.484
 5788TIP3   OH217308   8.269   2.896   5.203
 5788TIP3    H117309   8.325   2.935   5.271
 5788TIP3    H217310   8.180   2.909   5.235
 5789TIP3   OH217311   4.123   3.759   1.118
 5789TIP3    H117312   4.086   3.727   1.035
 5789TIP3    H217313   4.103   3.853   1.118
 5790TIP3   OH217314   6.386   6.130   3.313
 5790TIP3    H117315   6.377   6.108   3.406
 5790TIP3    H217316   6.296   6.145   3.283
 5791TIP3   OH217317   0.581   3.784   6.088
 5791TIP3    H117318   0.547   3.809   6.003
 5791TIP3    H217319   0.552   3.693   6.100
 5792TIP3   OH217320   3.880   3.300   5.676
 5792TIP3    H117321   3.965   3.321   5.715
 5792TIP3    H217322   3.816   3.347   5.731
 5793TIP3   OH217323   2.454   0.339   2.602
 5793TIP3    H117324   2.363   0.333   2.572
 5793TIP3    H217325   2.506   0.322   2.524
 5794TIP3   OH217326   7.652   3.463   2.828
 5794TIP3    H117327   7.602   3.414   2.893
 5794TIP3    H217328   7.594   3.534   2.800
 5795TIP3   OH217329   7.516   4.157   6.294
 5795TIP3    H117330   7.543   4.226   6.232
 5795TIP3    H217331   7.485   4.205   6.371
 5796TIP3   OH217332   3.179   1.594   0.650
 5796TIP3    H117333   3.253   1.628   0.601
 5796TIP3    H217334   3.126   1.671   0.672
 5797TIP3   OH217335   4.624   7.569   5.548
 5797TIP3    H117336   4.604   7.621   5.626
 5797TIP3    H217337   4.710   7.601   5.519
 5798TIP3   OH217338   6.082   2.179   6.261
 5798TIP3    H117339   6.034   2.207   6.183
 5798TIP3    H217340   6.171   2.165   6.230
 5799TIP3   OH217341   3.100   4.490   2.302
 5799TIP3    H117342   3.191   4.468   2.323
 5799TIP3    H217343   3.065   4.528   2.382
 5800TIP3   OH217344   6.516   4.589   4.470
 5800TIP3    H117345   6.597   4.633   4.496
 5800TIP3    H217346   6.458   4.600   4.545
 5801TIP3   OH217347   0.521   6.382   3.433
 5801TIP3    H117348   0.473   6.323   3.491
 5801TIP3    H217349   0.587   6.422   3.489
 5802TIP3   OH217350   4.693   5.751   3.062
 5802TIP3    H117351   4.727   5.817   3.122
 5802TIP3    H217352   4.628   5.703   3.112
 5803TIP3   OH217353   7.293   3.523   4.699
 5803TIP3    H117354   7.276   3.573   4.619
 5803TIP3    H217355   7.387   3.505   4.698
 5804TIP3   OH217356   0.848   0.521   0.638
 5804TIP3    H117357   0.821   0.430   0.627
 5804TIP3    H217358   0.934   0.516   0.679
 5805TIP3   OH217359   5.889   6.354   4.335
 5805TIP3    H117360   5.899   6.384   4.425
 5805TIP3    H217361   5.845   6.426   4.290
 5806TIP3   OH217362   1.563   1.397   0.789
 5806TIP3    H117363   1.604   1.367   0.870
 5806TIP3    H217364   1.490   1.452   0.818
 5807TIP3   OH217365   6.761   0.125   1.667
 5807TIP3    H117366   6.797   0.131   1.755
 5807TIP3    H217367   6.826   0.169   1.612
 5808TIP3   OH217368   5.814   0.716   6.484
 5808TIP3    H117369   5.872   0.789   6.503
 5808TIP3    H217370   5.865   0.659   6.427
 5809TIP3   OH217371   6.001   3.809   5.349
 5809TIP3    H117372   6.028   3.717   5.337
 5809TIP3    H217373   5.928   3.805   5.410
 5810TIP3   OH217374   1.657   7.330   3.776
 5810TIP3    H117375   1.709   7.299   3.702
 5810TIP3    H217376   1.682   7.421   3.786
 5811TIP3   OH217377   3.005   2.268   5.738
 5811TIP3    H117378   3.030   2.202   5.674
 5811TIP3    H217379   2.986   2.346   5.686
 5812TIP3   OH217380   6.303   1.900   2.704
 5812TIP3    H117381   6.212   1.886   2.728
 5812TIP3    H217382   6.351   1.897   2.787
 5813TIP3   OH217383   1.911   2.525   4.719
 5813TIP3    H117384   1.823   2.517   4.757
 5813TIP3    H217385   1.951   2.599   4.766
 5814TIP3   OH217386   3.982   7.126   0.944
 5814TIP3    H117387   3.975   7.194   1.010
 5814TIP3    H217388   3.950   7.168   0.864
 5815TIP3   OH217389   8.219   2.405   0.141
 5815TIP3    H117390   8.266   2.472   0.191
 5815TIP3    H217391   8.165   2.455   0.079
 5816TIP3   OH217392   2.027   6.211   6.286
 5816TIP3    H117393   1.951   6.269   6.295
 5816TIP3    H217394   1.990   6.123   6.293
 5817TIP3   OH217395   6.678   3.651   4.397
 5817TIP3    H117396   6.664   3.569   4.444
 5817TIP3    H217397   6.740   3.628   4.328
 5818TIP3   OH217398   5.020   1.050   2.642
 5818TIP3    H117399   4.926   1.029   2.646
 5818TIP3    H217400   5.034   1.111   2.714
 5819TIP3   OH217401   6.441   5.419   1.359
 5819TIP3    H117402   6.398   5.493   1.316
 5819TIP3    H217403   6.377   5.349   1.357
 5820TIP3   OH217404   1.017   7.486   4.787
 5820TIP3    H117405   1.109   7.513   4.791
 5820TIP3    H217406   0.980   7.513   4.871
 5821TIP3   OH217407   2.724   2.161   1.492
 5821TIP3    H117408   2.694   2.244   1.529
 5821TIP3    H217409   2.649   2.103   1.501
 5822TIP3   OH217410   6.421   4.049   6.521
 5822TIP3    H117411   6.506   4.087   6.498
 5822TIP3    H217412   6.429   4.027   6.614
 5823TIP3   OH217413   4.084   4.057   0.365
 5823TIP3    H117414   4.085   4.083   0.457
 5823TIP3    H217415   4.140   3.978   0.362
 5824TIP3   OH217416   7.904   6.946   5.540
 5824TIP3    H117417   7.906   6.962   5.634
 5824TIP3    H217418   7.811   6.947   5.517
 5825TIP3   OH217419   6.204   4.183   5.647
 5825TIP3    H117420   6.114   4.198   5.619
 5825TIP3    H217421   6.249   4.265   5.627
 5826TIP3   OH217422   3.980   5.751   5.065
 5826TIP3    H117423   4.008   5.687   5.131
 5826TIP3    H217424   3.984   5.835   5.111
 5827TIP3   OH217425   0.550   0.154   1.138
 5827TIP3    H117426   0.603   0.190   1.067
 5827TIP3    H217427   0.497   0.086   1.096
 5828TIP3   OH217428   7.261   3.422   1.740
 5828TIP3    H117429   7.168   3.416   1.718
 5828TIP3    H217430   7.300   3.344   1.700
 5829TIP3   OH217431   2.912   3.542   6.556
 5829TIP3    H117432   2.828   3.589   6.555
 5829TIP3    H217433   2.898   3.467   6.499
 5830TIP3   OH217434   2.098   1.400   3.383
 5830TIP3    H117435   2.166   1.468   3.388
 5830TIP3    H217436   2.147   1.317   3.385
 5831TIP3   OH217437   4.927   4.537   5.412
 5831TIP3    H117438   4.968   4.614   5.371
 5831TIP3    H217439   4.942   4.466   5.349
 5832TIP3   OH217440   6.753   7.544   0.904
 5832TIP3    H117441   6.847   7.548   0.922
 5832TIP3    H217442   6.746   7.537   0.808
 5833TIP3   OH217443   2.768   4.777   2.056
 5833TIP3    H117444   2.742   4.719   1.984
 5833TIP3    H217445   2.750   4.727   2.135
 5834TIP3   OH217446   0.936   4.013   3.530
 5834TIP3    H117447   0.897   3.946   3.474
 5834TIP3    H217448   0.977   3.964   3.601
 5835TIP3   OH217449   1.007   1.323   6.805
 5835TIP3    H117450   0.983   1.341   6.714
 5835TIP3    H217451   0.975   1.398   6.854
 5836TIP3   OH217452   4.374   6.583   6.049
 5836TIP3    H117453   4.428   6.505   6.059
 5836TIP3    H217454   4.292   6.551   6.010
 5837TIP3   OH217455   1.054   6.756   0.803
 5837TIP3    H117456   1.141   6.796   0.796
 5837TIP3    H217457   0.998   6.827   0.832
 5838TIP3   OH217458   6.339   3.213   0.259
 5838TIP3    H117459   6.342   3.144   0.325
 5838TIP3    H217460   6.388   3.177   0.184
 5839TIP3   OH217461   1.957   0.435   2.087
 5839TIP3    H117462   1.885   0.492   2.057
 5839TIP3    H217463   2.016   0.494   2.134
 5840TIP3   OH217464   7.618   5.714   5.173
 5840TIP3    H117465   7.563   5.664   5.112
 5840TIP3    H217466   7.656   5.647   5.230
 5841TIP3   OH217467   1.999   3.402   3.060
 5841TIP3    H117468   2.094   3.407   3.046
 5841TIP3    H217469   1.961   3.423   2.975
 5842TIP3   OH217470   6.966   7.626   4.562
 5842TIP3    H117471   7.011   7.652   4.481
 5842TIP3    H217472   6.941   7.709   4.603
 5843TIP3   OH217473   6.052   0.640   0.597
 5843TIP3    H117474   6.047   0.655   0.503
 5843TIP3    H217475   5.965   0.606   0.620
 5844TIP3   OH217476   7.878   2.721   4.479
 5844TIP3    H117477   7.821   2.677   4.416
 5844TIP3    H217478   7.874   2.666   4.557
 5845TIP3   OH217479   7.875   5.367   2.622
 5845TIP3    H117480   7.782   5.345   2.626
 5845TIP3    H217481   7.920   5.289   2.655
 5846TIP3   OH217482   3.662   4.730   3.330
 5846TIP3    H117483   3.574   4.701   3.304
 5846TIP3    H217484   3.716   4.714   3.252
 5847TIP3   OH217485   0.669   6.640   3.244
 5847TIP3    H117486   0.695   6.588   3.168
 5847TIP3    H217487   0.738   6.624   3.309
 5848TIP3   OH217488   3.890   2.704   0.095
 5848TIP3    H117489   3.808   2.708   0.145
 5848TIP3    H217490   3.937   2.629   0.132
 5849TIP3   OH217491   3.881   7.089   5.006
 5849TIP3    H117492   3.874   6.994   5.011
 5849TIP3    H217493   3.830   7.121   5.081
 5850TIP3   OH217494   1.292   6.172   4.110
 5850TIP3    H117495   1.254   6.087   4.089
 5850TIP3    H217496   1.264   6.190   4.200
 5851TIP3   OH217497   4.815   5.053   2.545
 5851TIP3    H117498   4.894   5.105   2.560
 5851TIP3    H217499   4.751   5.087   2.607
 5852TIP3   OH217500   0.026   5.652   3.953
 5852TIP3    H117501   0.101   5.675   3.898
 5852TIP3    H217502   0.059   5.583   4.011
 5853TIP3   OH217503   5.987   5.959   2.002
 5853TIP3    H117504   6.079   5.981   2.013
 5853TIP3    H217505   5.962   6.000   1.920
 5854TIP3   OH217506   6.383   7.122   6.052
 5854TIP3    H117507   6.302   7.081   6.081
 5854TIP3    H217508   6.405   7.075   5.971
 5855TIP3   OH217509   8.006   4.510   1.912
 5855TIP3    H117510   8.036   4.551   1.993
 5855TIP3    H217511   7.960   4.580   1.865
 5856TIP3   OH217512   1.186   5.890   4.716
 5856TIP3    H117513   1.136   5.864   4.638
 5856TIP3    H217514   1.198   5.809   4.765
 5857TIP3   OH217515   2.695   6.901   4.209
 5857TIP3    H117516   2.600   6.899   4.224
 5857TIP3    H217517   2.731   6.942   4.288
 5858TIP3   OH217518   4.573   3.748   1.937
 5858TIP3    H117519   4.630   3.793   1.875
 5858TIP3    H217520   4.599   3.656   1.932
 5859TIP3   OH217521   2.517   4.111   0.934
 5859TIP3    H117522   2.464   4.190   0.939
 5859TIP3    H217523   2.547   4.096   1.024
 5860TIP3   OH217524   0.302   3.864   4.833
 5860TIP3    H117525   0.278   3.838   4.744
 5860TIP3    H217526   0.280   3.958   4.837
 5861TIP3   OH217527   2.678   6.432   0.677
 5861TIP3    H117528   2.667   6.353   0.730
 5861TIP3    H217529   2.696   6.501   0.740
 5862TIP3   OH217530   1.582   0.232   2.950
 5862TIP3    H117531   1.663   0.227   3.000
 5862TIP3    H217532   1.548   0.320   2.966
 5863TIP3   OH217533   0.402   3.768   2.541
 5863TIP3    H117534   0.314   3.731   2.544
 5863TIP3    H217535   0.397   3.848   2.593
 5864TIP3   OH217536   4.731   6.446   4.945
 5864TIP3    H117537   4.782   6.411   5.018
 5864TIP3    H217538   4.664   6.500   4.986
 5865TIP3   OH217539   5.934   2.222   0.545
 5865TIP3    H117540   5.994   2.287   0.507
 5865TIP3    H217541   5.978   2.194   0.626
 5866TIP3   OH217542   5.393   2.673   6.338
 5866TIP3    H117543   5.364   2.762   6.355
 5866TIP3    H217544   5.466   2.660   6.399
 5867TIP3   OH217545   6.405   1.273   1.476
 5867TIP3    H117546   6.455   1.243   1.552
 5867TIP3    H217547   6.317   1.239   1.491
 5868TIP3   OH217548   7.490   3.127   3.855
 5868TIP3    H117549   7.553   3.136   3.784
 5868TIP3    H217550   7.522   3.187   3.923
 5869TIP3   OH217551   0.248   6.175   0.767
 5869TIP3    H117552   0.228   6.265   0.794
 5869TIP3    H217553   0.182   6.122   0.813
 5870TIP3   OH217554   6.414   2.577   4.466
 5870TIP3    H117555   6.394   2.546   4.378
 5870TIP3    H217556   6.502   2.615   4.459
 5871TIP3   OH217557   1.354   5.129   0.692
 5871TIP3    H117558   1.441   5.128   0.733
 5871TIP3    H217559   1.342   5.220   0.666
 5872TIP3   OH217560   3.000   6.491   2.833
 5872TIP3    H117561   3.089   6.519   2.811
 5872TIP3    H217562   3.008   6.396   2.844
 5873TIP3   OH217563   3.936   3.543   5.929
 5873TIP3    H117564   3.942   3.602   6.004
 5873TIP3    H217565   4.021   3.500   5.925
 5874TIP3   OH217566   7.440   0.921   0.361
 5874TIP3    H117567   7.449   0.897   0.453
 5874TIP3    H217568   7.527   0.906   0.324
 5875TIP3   OH217569   3.202   5.896   4.700
 5875TIP3    H117570   3.199   5.909   4.606
 5875TIP3    H217571   3.246   5.974   4.734
 5876TIP3   OH217572   3.851   4.845   2.865
 5876TIP3    H117573   3.942   4.854   2.836
 5876TIP3    H217574   3.798   4.860   2.787
 5877TIP3   OH217575   7.484   1.159   5.387
 5877TIP3    H117576   7.575   1.146   5.413
 5877TIP3    H217577   7.436   1.167   5.470
 5878TIP3   OH217578   1.402   6.167   1.270
 5878TIP3    H117579   1.360   6.231   1.213
 5878TIP3    H217580   1.490   6.158   1.236
 5879TIP3   OH217581   0.616   7.706   6.760
 5879TIP3    H117582   0.669   7.779   6.730
 5879TIP3    H217583   0.679   7.639   6.785
 5880TIP3   OH217584   2.187   6.135   0.807
 5880TIP3    H117585   2.118   6.072   0.784
 5880TIP3    H217586   2.229   6.155   0.723
 5881TIP3   OH217587   1.521   1.431   3.293
 5881TIP3    H117588   1.527   1.380   3.373
 5881TIP3    H217589   1.505   1.367   3.224
 5882TIP3   OH217590   7.765   2.913   0.092
 5882TIP3    H117591   7.844   2.887   0.139
 5882TIP3    H217592   7.769   3.009   0.090
 5883TIP3   OH217593   4.139   6.611   2.538
 5883TIP3    H117594   4.071   6.621   2.604
 5883TIP3    H217595   4.219   6.595   2.588
 5884TIP3   OH217596   6.845   4.586   3.733
 5884TIP3    H117597   6.908   4.552   3.797
 5884TIP3    H217598   6.804   4.660   3.777
 5885TIP3   OH217599   0.936   1.638   2.978
 5885TIP3    H117600   0.912   1.727   2.952
 5885TIP3    H217601   1.031   1.636   2.971
 5886TIP3   OH217602   6.194   5.638   0.090
 5886TIP3    H117603   6.107   5.663   0.058
 5886TIP3    H217604   6.243   5.720   0.093
 5887TIP3   OH217605   2.711   2.818   3.474
 5887TIP3    H117606   2.644   2.878   3.441
 5887TIP3    H217607   2.666   2.734   3.482
 5888TIP3   OH217608   1.431   2.291   1.422
 5888TIP3    H117609   1.428   2.308   1.327
 5888TIP3    H217610   1.516   2.325   1.450
 5889TIP3   OH217611   1.567   3.113   5.060
 5889TIP3    H117612   1.658   3.109   5.088
 5889TIP3    H217613   1.570   3.146   4.970
 5890TIP3   OH217614   0.386   4.073   1.064
 5890TIP3    H117615   0.395   4.168   1.063
 5890TIP3    H217616   0.463   4.042   1.111
 5891TIP3   OH217617   7.446   3.775   3.157
 5891TIP3    H117618   7.496   3.819   3.089
 5891TIP3    H217619   7.492   3.794   3.238
 5892TIP3   OH217620   2.168   1.498   1.971
 5892TIP3    H117621   2.137   1.506   1.880
 5892TIP3    H217622   2.226   1.573   1.983
 5893TIP3   OH217623   0.174   6.239   6.261
 5893TIP3    H117624   0.162   6.334   6.269
 5893TIP3    H217625   0.096   6.202   6.303
 5894TIP3   OH217626   4.942   5.169   1.173
 5894TIP3    H117627   4.876   5.213   1.120
 5894TIP3    H217628   4.985   5.239   1.222
 5895TIP3   OH217629   7.173   5.458   1.109
 5895TIP3    H117630   7.130   5.517   1.171
 5895TIP3    H217631   7.236   5.514   1.063
 5896TIP3   OH217632   4.926   5.341   6.226
 5896TIP3    H117633   4.923   5.341   6.131
 5896TIP3    H217634   4.867   5.411   6.252
 5897TIP3   OH217635   1.275   3.080   2.599
 5897TIP3    H117636   1.305   3.041   2.681
 5897TIP3    H217637   1.276   3.008   2.536
 5898TIP3   OH217638   6.953   1.393   2.891
 5898TIP3    H117639   6.944   1.299   2.879
 5898TIP3    H217640   6.911   1.411   2.975
 5899TIP3   OH217641   7.896   3.553   2.916
 5899TIP3    H117642   7.809   3.522   2.891
 5899TIP3    H217643   7.954   3.518   2.848
 5900TIP3   OH217644   6.513   6.993   3.305
 5900TIP3    H117645   6.606   6.979   3.288
 5900TIP3    H217646   6.509   7.076   3.351
 5901TIP3   OH217647   6.407   4.973   6.180
 5901TIP3    H117648   6.365   5.043   6.130
 5901TIP3    H217649   6.412   4.899   6.120
 5902TIP3   OH217650   0.384   0.739   2.561
 5902TIP3    H117651   0.378   0.705   2.472
 5902TIP3    H217652   0.434   0.820   2.553
 5903TIP3   OH217653   6.487   4.031   6.194
 5903TIP3    H117654   6.443   4.110   6.162
 5903TIP3    H217655   6.418   3.980   6.236
 5904TIP3   OH217656   4.591   1.399   3.087
 5904TIP3    H117657   4.633   1.484   3.076
 5904TIP3    H217658   4.539   1.409   3.167
 5905TIP3   OH217659   0.835   1.899   2.970
 5905TIP3    H117660   0.860   1.955   3.043
 5905TIP3    H217661   0.742   1.881   2.984
 5906TIP3   OH217662   5.572   1.283   1.177
 5906TIP3    H117663   5.513   1.227   1.228
 5906TIP3    H217664   5.557   1.371   1.212
 5907TIP3   OH217665   7.230   7.322   4.352
 5907TIP3    H117666   7.190   7.285   4.273
 5907TIP3    H217667   7.298   7.381   4.319
 5908TIP3   OH217668   3.114   0.930   3.368
 5908TIP3    H117669   3.206   0.955   3.377
 5908TIP3    H217670   3.085   0.973   3.288
 5909TIP3   OH217671   7.290   6.083   2.579
 5909TIP3    H117672   7.242   6.096   2.497
 5909TIP3    H217673   7.371   6.132   2.568
 5910TIP3   OH217674   5.525   4.929   4.626
 5910TIP3    H117675   5.472   5.004   4.652
 5910TIP3    H217676   5.471   4.853   4.646
 5911TIP3   OH217677   8.082   5.438   6.304
 5911TIP3    H117678   7.998   5.426   6.347
 5911TIP3    H217679   8.073   5.521   6.258
 5912TIP3   OH217680   7.022   0.674   0.564
 5912TIP3    H117681   6.982   0.654   0.480
 5912TIP3    H217682   7.055   0.763   0.555
 5913TIP3   OH217683   4.321   5.651   3.433
 5913TIP3    H117684   4.262   5.611   3.497
 5913TIP3    H217685   4.309   5.745   3.444
 5914TIP3   OH217686   5.012   3.637   1.992
 5914TIP3    H117687   5.041   3.728   1.978
 5914TIP3    H217688   5.011   3.628   2.088
 5915TIP3   OH217689   6.970   0.512   5.787
 5915TIP3    H117690   6.995   0.527   5.696
 5915TIP3    H217691   6.957   0.417   5.793
 5916TIP3   OH217692   5.784   3.188   6.071
 5916TIP3    H117693   5.853   3.249   6.096
 5916TIP3    H217694   5.756   3.148   6.153
 5917TIP3   OH217695   3.697   0.295   3.373
 5917TIP3    H117696   3.724   0.219   3.425
 5917TIP3    H217697   3.774   0.319   3.322
 5918TIP3   OH217698   5.026   4.438   0.513
 5918TIP3    H117699   5.079   4.515   0.531
 5918TIP3    H217700   5.053   4.410   0.425
 5919TIP3   OH217701   0.975   0.382   5.137
 5919TIP3    H117702   0.989   0.294   5.102
 5919TIP3    H217703   0.897   0.374   5.191
 5920TIP3   OH217704   4.538   5.259   6.530
 5920TIP3    H117705   4.631   5.268   6.550
 5920TIP3    H217706   4.517   5.168   6.554
 5921TIP3   OH217707   0.285   0.518   0.618
 5921TIP3    H117708   0.256   0.595   0.668
 5921TIP3    H217709   0.299   0.451   0.684
 5922TIP3   OH217710   7.500   5.887   6.340
 5922TIP3    H117711   7.470   5.814   6.287
 5922TIP3    H217712   7.465   5.869   6.428
 5923TIP3   OH217713   5.502   6.520   4.017
 5923TIP3    H117714   5.553   6.596   3.991
 5923TIP3    H217715   5.480   6.535   4.109
 5924TIP3   OH217716   6.404   2.838   2.687
 5924TIP3    H117717   6.458   2.887   2.749
 5924TIP3    H217718   6.357   2.905   2.638
 5925TIP3   OH217719   4.002   1.131   2.656
 5925TIP3    H117720   4.082   1.087   2.683
 5925TIP3    H217721   4.028   1.221   2.640
 5926TIP3   OH217722   2.740   2.436   0.051
 5926TIP3    H117723   2.655   2.477   0.063
 5926TIP3    H217724   2.727   2.370  -0.017
 5927TIP3   OH217725   6.525   2.220   2.504
 5927TIP3    H117726   6.570   2.299   2.533
 5927TIP3    H217727   6.436   2.229   2.537
 5928TIP3   OH217728   1.114   5.549   2.193
 5928TIP3    H117729   1.176   5.477   2.176
 5928TIP3    H217730   1.170   5.623   2.215
 5929TIP3   OH217731   4.569   2.901   3.219
 5929TIP3    H117732   4.655   2.880   3.255
 5929TIP3    H217733   4.580   2.891   3.124
 5930TIP3   OH217734   2.422   7.507   3.658
 5930TIP3    H117735   2.346   7.563   3.643
 5930TIP3    H217736   2.392   7.419   3.634
 5931TIP3   OH217737   5.651   5.151   4.746
 5931TIP3    H117738   5.602   5.094   4.687
 5931TIP3    H217739   5.672   5.228   4.693
 5932TIP3   OH217740   5.391   2.695   2.967
 5932TIP3    H117741   5.391   2.686   3.062
 5932TIP3    H217742   5.476   2.734   2.946
 5933TIP3   OH217743   6.839   3.438   5.714
 5933TIP3    H117744   6.840   3.499   5.787
 5933TIP3    H217745   6.930   3.411   5.704
 5934TIP3   OH217746   4.356   4.858   4.153
 5934TIP3    H117747   4.281   4.831   4.207
 5934TIP3    H217748   4.390   4.936   4.196
 5935TIP3   OH217749   7.286   5.866   6.144
 5935TIP3    H117750   7.255   5.956   6.145
 5935TIP3    H217751   7.302   5.846   6.052
 5936TIP3   OH217752   4.622   1.450   0.546
 5936TIP3    H117753   4.715   1.462   0.528
 5936TIP3    H217754   4.606   1.356   0.536
 5937TIP3   OH217755   1.115   7.293   5.330
 5937TIP3    H117756   1.052   7.222   5.331
 5937TIP3    H217757   1.094   7.345   5.408
 5938TIP3   OH217758   0.533   5.003   2.067
 5938TIP3    H117759   0.490   5.065   2.008
 5938TIP3    H217760   0.610   5.050   2.099
 5939TIP3   OH217761   5.360   5.569   4.415
 5939TIP3    H117762   5.389   5.551   4.326
 5939TIP3    H217763   5.272   5.606   4.405
 5940TIP3   OH217764   3.414   2.585   5.132
 5940TIP3    H117765   3.497   2.545   5.160
 5940TIP3    H217766   3.411   2.571   5.037
 5941TIP3   OH217767   7.409   5.953   3.589
 5941TIP3    H117768   7.487   6.006   3.571
 5941TIP3    H217769   7.420   5.923   3.679
 5942TIP3   OH217770   4.411   6.788   4.206
 5942TIP3    H117771   4.368   6.847   4.143
 5942TIP3    H217772   4.362   6.706   4.199
 5943TIP3   OH217773   2.747   2.071   4.643
 5943TIP3    H117774   2.825   2.096   4.593
 5943TIP3    H217775   2.682   2.138   4.621
 5944TIP3   OH217776   6.386   5.307   5.051
 5944TIP3    H117777   6.383   5.327   4.958
 5944TIP3    H217778   6.306   5.257   5.067
 5945TIP3   OH217779   0.536   6.706   1.017
 5945TIP3    H117780   0.561   6.757   1.094
 5945TIP3    H217781   0.448   6.735   0.996
 5946TIP3   OH217782   4.354   7.253   0.195
 5946TIP3    H117783   4.367   7.164   0.231
 5946TIP3    H217784   4.442   7.281   0.171
 5947TIP3   OH217785   5.273   1.856   4.395
 5947TIP3    H117786   5.250   1.790   4.460
 5947TIP3    H217787   5.353   1.823   4.354
 5948TIP3   OH217788   2.497   4.502   5.859
 5948TIP3    H117789   2.583   4.525   5.892
 5948TIP3    H217790   2.512   4.425   5.804
 5949TIP3   OH217791   5.125   0.469   0.131
 5949TIP3    H117792   5.211   0.483   0.170
 5949TIP3    H217793   5.139   0.400   0.066
 5950TIP3   OH217794   7.567   1.755   0.910
 5950TIP3    H117795   7.490   1.801   0.878
 5950TIP3    H217796   7.591   1.695   0.839
 5951TIP3   OH217797   7.418   0.713   6.507
 5951TIP3    H117798   7.382   0.776   6.445
 5951TIP3    H217799   7.417   0.630   6.459
 5952TIP3   OH217800   3.229   5.703   5.149
 5952TIP3    H117801   3.235   5.798   5.148
 5952TIP3    H217802   3.221   5.680   5.241
 5953TIP3   OH217803   5.499   1.961   4.750
 5953TIP3    H117804   5.449   1.895   4.798
 5953TIP3    H217805   5.536   2.017   4.817
 5954TIP3   OH217806   5.104   3.652   4.378
 5954TIP3    H117807   5.023   3.633   4.425
 5954TIP3    H217808   5.155   3.705   4.439
 5955TIP3   OH217809   5.996   5.440   1.783
 5955TIP3    H117810   6.081   5.435   1.828
 5955TIP3    H217811   5.931   5.425   1.851
 5956TIP3   OH217812   6.246   4.160   0.143
 5956TIP3    H117813   6.192   4.219   0.091
 5956TIP3    H217814   6.218   4.175   0.234
 5957TIP3   OH217815   5.795   0.701   3.644
 5957TIP3    H117816   5.711   0.667   3.673
 5957TIP3    H217817   5.851   0.624   3.638
 5958TIP3   OH217818   6.830   5.143   3.253
 5958TIP3    H117819   6.920   5.147   3.286
 5958TIP3    H217820   6.812   5.232   3.222
 5959TIP3   OH217821   2.286   0.467   3.078
 5959TIP3    H117822   2.344   0.448   3.005
 5959TIP3    H217823   2.341   0.515   3.140
 5960TIP3   OH217824   3.914   4.001   3.645
 5960TIP3    H117825   3.953   4.036   3.566
 5960TIP3    H217826   3.956   3.916   3.658
 5961TIP3   OH217827   4.964   4.328   4.119
 5961TIP3    H117828   5.046   4.374   4.138
 5961TIP3    H217829   4.990   4.238   4.102
 5962TIP3   OH217830   5.381   0.496   0.281
 5962TIP3    H117831   5.417   0.582   0.302
 5962TIP3    H217832   5.442   0.459   0.218
 5963TIP3   OH217833   7.964   2.364   3.732
 5963TIP3    H117834   7.998   2.342   3.819
 5963TIP3    H217835   7.870   2.353   3.739
 5964TIP3   OH217836   3.899   7.479   0.443
 5964TIP3    H117837   3.986   7.462   0.479
 5964TIP3    H217838   3.878   7.400   0.393
 5965TIP3   OH217839   7.648   6.116   2.086
 5965TIP3    H117840   7.586   6.154   2.024
 5965TIP3    H217841   7.661   6.186   2.151
 5966TIP3   OH217842   8.256   1.863   4.984
 5966TIP3    H117843   8.237   1.814   5.063
 5966TIP3    H217844   8.196   1.828   4.918
 5967TIP3   OH217845   5.418   3.940   6.299
 5967TIP3    H117846   5.418   4.034   6.311
 5967TIP3    H217847   5.416   3.928   6.204
 5968TIP3   OH217848   2.739   3.538   1.028
 5968TIP3    H117849   2.690   3.510   1.105
 5968TIP3    H217850   2.697   3.620   1.001
 5969TIP3   OH217851   3.725   7.220   2.653
 5969TIP3    H117852   3.759   7.216   2.742
 5969TIP3    H217853   3.648   7.277   2.659
 5970TIP3   OH217854   0.088   1.623   1.912
 5970TIP3    H117855   0.014   1.565   1.932
 5970TIP3    H217856   0.120   1.594   1.827
 5971TIP3   OH217857   7.441   0.967   3.841
 5971TIP3    H117858   7.368   1.028   3.830
 5971TIP3    H217859   7.420   0.893   3.785
 5972TIP3   OH217860   5.779   4.426   1.148
 5972TIP3    H117861   5.857   4.480   1.136
 5972TIP3    H217862   5.767   4.421   1.243
 5973TIP3   OH217863   4.628   4.080   6.599
 5973TIP3    H117864   4.706   4.052   6.648
 5973TIP3    H217865   4.652   4.165   6.563
 5974TIP3   OH217866   0.790   3.375   2.950
 5974TIP3    H117867   0.776   3.444   2.885
 5974TIP3    H217868   0.882   3.351   2.941
 5975TIP3   OH217869   0.367   5.379   3.779
 5975TIP3    H117870   0.387   5.350   3.868
 5975TIP3    H217871   0.370   5.299   3.727
 5976TIP3   OH217872   6.429   4.624   6.777
 5976TIP3    H117873   6.434   4.712   6.814
 5976TIP3    H217874   6.373   4.633   6.701
 5977TIP3   OH217875   7.573  -0.029   3.925
 5977TIP3    H117876   7.640   0.023   3.879
 5977TIP3    H217877   7.501   0.033   3.939
 5978TIP3   OH217878   7.681   0.917   1.416
 5978TIP3    H117879   7.592   0.927   1.383
 5978TIP3    H217880   7.719   0.848   1.362
 5979TIP3   OH217881   3.117   4.713   3.973
 5979TIP3    H117882   3.155   4.796   4.003
 5979TIP3    H217883   3.155   4.647   4.030
 5980TIP3   OH217884   5.432   5.483   1.942
 5980TIP3    H117885   5.405   5.504   2.032
 5980TIP3    H217886   5.483   5.402   1.951
 5981TIP3   OH217887   2.743   7.015   3.298
 5981TIP3    H117888   2.688   6.943   3.268
 5981TIP3    H217889   2.753   7.072   3.222
 5982TIP3   OH217890   5.055   5.189   4.552
 5982TIP3    H117891   5.146   5.162   4.541
 5982TIP3    H217892   5.061   5.276   4.594
 5983TIP3   OH217893   0.748   1.544   1.286
 5983TIP3    H117894   0.763   1.560   1.192
 5983TIP3    H217895   0.828   1.575   1.328
 5984TIP3   OH217896   5.735   2.557   4.472
 5984TIP3    H117897   5.691   2.555   4.557
 5984TIP3    H217898   5.733   2.466   4.442
 5985TIP3   OH217899   0.323   2.120   4.394
 5985TIP3    H117900   0.267   2.142   4.319
 5985TIP3    H217901   0.262   2.115   4.467
 5986TIP3   OH217902   1.457   1.110   1.040
 5986TIP3    H117903   1.380   1.166   1.044
 5986TIP3    H217904   1.429   1.028   1.080
 5987TIP3   OH217905   4.822   5.933   2.519
 5987TIP3    H117906   4.814   6.027   2.537
 5987TIP3    H217907   4.815   5.892   2.605
 5988TIP3   OH217908   4.230   1.586   6.667
 5988TIP3    H117909   4.142   1.621   6.659
 5988TIP3    H217910   4.259   1.613   6.754
 5989TIP3   OH217911   3.476   1.406   6.356
 5989TIP3    H117912   3.553   1.350   6.360
 5989TIP3    H217913   3.485   1.452   6.272
 5990TIP3   OH217914   4.881   1.506   2.700
 5990TIP3    H117915   4.914   1.500   2.610
 5990TIP3    H217916   4.894   1.417   2.735
 5991TIP3   OH217917   4.528   5.873   3.536
 5991TIP3    H117918   4.623   5.881   3.543
 5991TIP3    H217919   4.499   5.857   3.625
 5992TIP3   OH217920   4.700   7.143   2.546
 5992TIP3    H117921   4.711   7.077   2.478
 5992TIP3    H217922   4.611   7.175   2.535
 5993TIP3   OH217923   2.494   5.098   3.599
 5993TIP3    H117924   2.447   5.022   3.564
 5993TIP3    H217925   2.446   5.173   3.564
 5994TIP3   OH217926   1.201   3.978   0.713
 5994TIP3    H117927   1.116   3.934   0.708
 5994TIP3    H217928   1.204   4.033   0.635
 5995TIP3   OH217929   1.495   7.588   2.938
 5995TIP3    H117930   1.547   7.509   2.956
 5995TIP3    H217931   1.541   7.631   2.866
 5996TIP3   OH217932   8.111   3.595   1.249
 5996TIP3    H117933   8.131   3.683   1.280
 5996TIP3    H217934   8.166   3.583   1.172
 5997TIP3   OH217935   3.643   4.994   3.848
 5997TIP3    H117936   3.685   5.036   3.773
 5997TIP3    H217937   3.656   5.056   3.920
 5998TIP3   OH217938   5.910   0.227   2.636
 5998TIP3    H117939   5.941   0.315   2.615
 5998TIP3    H217940   5.842   0.240   2.702
 5999TIP3   OH217941   4.132   1.325   5.471
 5999TIP3    H117942   4.122   1.415   5.503
 5999TIP3    H217943   4.043   1.289   5.474
 6000TIP3   OH217944   7.861   6.708   5.945
 6000TIP3    H117945   7.888   6.787   5.898
 6000TIP3    H217946   7.942   6.667   5.974
 6001TIP3   OH217947   4.859   3.658   4.875
 6001TIP3    H117948   4.937   3.603   4.866
 6001TIP3    H217949   4.804   3.634   4.801
 6002TIP3   OH217950   6.899   3.819   1.523
 6002TIP3    H117951   6.872   3.730   1.498
 6002TIP3    H217952   6.829   3.875   1.490
 6003TIP3   OH217953   2.868   6.331   2.382
 6003TIP3    H117954   2.933   6.355   2.448
 6003TIP3    H217955   2.846   6.240   2.402
 6004TIP3   OH217956   4.807   4.346   3.503
 6004TIP3    H117957   4.775   4.292   3.575
 6004TIP3    H217958   4.769   4.307   3.425
 6005TIP3   OH217959   7.659   3.606   1.213
 6005TIP3    H117960   7.633   3.545   1.282
 6005TIP3    H217961   7.718   3.668   1.257
 6006TIP3   OH217962   1.782   2.358   3.346
 6006TIP3    H117963   1.698   2.339   3.388
 6006TIP3    H217964   1.765   2.343   3.253
 6007TIP3   OH217965   3.305   0.753   2.531
 6007TIP3    H117966   3.250   0.830   2.544
 6007TIP3    H217967   3.276   0.716   2.448
 6008TIP3   OH217968   5.376   0.479   4.741
 6008TIP3    H117969   5.337   0.393   4.760
 6008TIP3    H217970   5.375   0.525   4.825
 6009TIP3   OH217971   1.030   5.517   5.983
 6009TIP3    H117972   1.080   5.536   5.903
 6009TIP3    H217973   0.953   5.573   5.977
 6010TIP3   OH217974   4.814   6.312   6.055
 6010TIP3    H117975   4.871   6.242   6.088
 6010TIP3    H217976   4.804   6.371   6.129
 6011TIP3   OH217977   6.021   4.323   6.170
 6011TIP3    H117978   6.063   4.355   6.250
 6011TIP3    H217979   6.039   4.389   6.104
 6012TIP3   OH217980   5.936   7.360   2.558
 6012TIP3    H117981   5.997   7.418   2.604
 6012TIP3    H217982   5.961   7.366   2.466
 6013TIP3   OH217983   5.579   5.711   2.205
 6013TIP3    H117984   5.642   5.773   2.168
 6013TIP3    H217985   5.630   5.631   2.219
 6014TIP3   OH217986   3.370   2.295   0.598
 6014TIP3    H117987   3.359   2.312   0.504
 6014TIP3    H217988   3.339   2.206   0.610
 6015TIP3   OH217989   2.724   2.864   0.738
 6015TIP3    H117990   2.753   2.779   0.769
 6015TIP3    H217991   2.683   2.905   0.814
 6016TIP3   OH217992   6.676   2.670   4.375
 6016TIP3    H117993   6.770   2.686   4.383
 6016TIP3    H217994   6.659   2.676   4.281
 6017TIP3   OH217995   0.759   6.011   2.124
 6017TIP3    H117996   0.797   5.992   2.209
 6017TIP3    H217997   0.821   6.071   2.083
 6018TIP3   OH217998   4.078   4.815   0.165
 6018TIP3    H117999   4.116   4.735   0.129
 6018TIP3    H218000   4.033   4.856   0.091
 6019TIP3   OH218001   1.469   7.831   2.692
 6019TIP3    H118002   1.374   7.821   2.696
 6019TIP3    H218003   1.498   7.761   2.634
 6020TIP3   OH218004   0.127   2.781   3.487
 6020TIP3    H118005   0.114   2.720   3.560
 6020TIP3    H218006   0.177   2.731   3.423
 6021TIP3   OH218007   7.550   0.650   4.546
 6021TIP3    H118008   7.529   0.618   4.458
 6021TIP3    H218009   7.643   0.672   4.541
 6022TIP3   OH218010   1.666   0.837   2.987
 6022TIP3    H118011   1.659   0.769   3.054
 6022TIP3    H218012   1.723   0.903   3.026
 6023TIP3   OH218013   6.547   7.195   1.841
 6023TIP3    H118014   6.469   7.231   1.798
 6023TIP3    H218015   6.518   7.171   1.929
 6024TIP3   OH218016   6.102   7.486   6.105
 6024TIP3    H118017   6.131   7.426   6.036
 6024TIP3    H218018   6.173   7.486   6.169
 6025TIP3   OH218019   2.955   1.477   5.659
 6025TIP3    H118020   2.999   1.524   5.588
 6025TIP3    H218021   2.914   1.402   5.615
 6026TIP3   OH218022   7.162   4.646   5.555
 6026TIP3    H118023   7.067   4.651   5.550
 6026TIP3    H218024   7.186   4.573   5.499
 6027TIP3   OH218025   0.704   0.309   3.041
 6027TIP3    H118026   0.735   0.329   2.952
 6027TIP3    H218027   0.778   0.331   3.098
 6028TIP3   OH218028   7.095   5.385   0.607
 6028TIP3    H118029   7.121   5.449   0.541
 6028TIP3    H218030   7.031   5.330   0.563
 6029TIP3   OH218031   8.271   5.006   1.625
 6029TIP3    H118032   8.349   5.060   1.609
 6029TIP3    H218033   8.278   4.934   1.562
 6030TIP3   OH218034   0.671   7.353   5.054
 6030TIP3    H118035   0.591   7.300   5.047
 6030TIP3    H218036   0.686   7.361   5.148
 6031TIP3   OH218037   8.182   2.250   6.016
 6031TIP3    H118038   8.245   2.181   6.035
 6031TIP3    H218039   8.192   2.312   6.089
 6032TIP3   OH218040   7.022   6.005   3.480
 6032TIP3    H118041   7.036   6.070   3.411
 6032TIP3    H218042   7.075   5.930   3.453
 6033TIP3   OH218043   5.367   5.622   3.576
 6033TIP3    H118044   5.336   5.631   3.666
 6033TIP3    H218045   5.289   5.596   3.527
 6034TIP3   OH218046   6.533   2.930   1.022
 6034TIP3    H118047   6.614   2.910   0.976
 6034TIP3    H218048   6.531   2.870   1.097
 6035TIP3   OH218049   5.383   2.687   5.726
 6035TIP3    H118050   5.437   2.611   5.703
 6035TIP3    H218051   5.294   2.652   5.733
 6036TIP3   OH218052   0.257   7.258   0.343
 6036TIP3    H118053   0.297   7.207   0.273
 6036TIP3    H218054   0.204   7.324   0.297
 6037TIP3   OH218055   6.509   0.128   3.412
 6037TIP3    H118056   6.482   0.173   3.493
 6037TIP3    H218057   6.572   0.062   3.442
 6038TIP3   OH218058   6.581   7.596   4.542
 6038TIP3    H118059   6.513   7.598   4.611
 6038TIP3    H218060   6.644   7.532   4.573
 6039TIP3   OH218061   7.566   3.512   4.658
 6039TIP3    H118062   7.646   3.465   4.634
 6039TIP3    H218063   7.559   3.583   4.593
 6040TIP3   OH218064   5.143   7.609   1.513
 6040TIP3    H118065   5.109   7.558   1.439
 6040TIP3    H218066   5.194   7.546   1.564
 6041TIP3   OH218067   4.274   5.150   2.327
 6041TIP3    H118068   4.338   5.217   2.304
 6041TIP3    H218069   4.262   5.159   2.421
 6042TIP3   OH218070   7.815   2.584   2.269
 6042TIP3    H118071   7.753   2.654   2.246
 6042TIP3    H218072   7.789   2.511   2.213
 6043TIP3   OH218073   4.730   4.078   3.953
 6043TIP3    H118074   4.797   4.020   3.988
 6043TIP3    H218075   4.672   4.096   4.027
 6044TIP3   OH218076   2.117   3.719   4.100
 6044TIP3    H118077   2.029   3.684   4.114
 6044TIP3    H218078   2.137   3.765   4.182
 6045TIP3   OH218079   3.004   4.484   4.605
 6045TIP3    H118080   2.957   4.493   4.522
 6045TIP3    H218081   3.096   4.496   4.583
 6046TIP3   OH218082   1.928   5.189   1.805
 6046TIP3    H118083   1.986   5.265   1.797
 6046TIP3    H218084   1.864   5.201   1.735
 6047TIP3   OH218085   5.926   2.419   2.951
 6047TIP3    H118086   5.847   2.377   2.987
 6047TIP3    H218087   5.940   2.375   2.867
 6048TIP3   OH218088   2.780   3.422   3.735
 6048TIP3    H118089   2.701   3.457   3.776
 6048TIP3    H218090   2.830   3.500   3.710
 6049TIP3   OH218091   2.711   0.114   5.501
 6049TIP3    H118092   2.649   0.187   5.504
 6049TIP3    H218093   2.657   0.036   5.505
 6050TIP3   OH218094   1.060   3.103   1.906
 6050TIP3    H118095   1.041   3.153   1.986
 6050TIP3    H218096   1.015   3.020   1.918
 6051TIP3   OH218097   6.555   3.330   2.288
 6051TIP3    H118098   6.538   3.424   2.278
 6051TIP3    H218099   6.647   3.325   2.313
 6052TIP3   OH218100   4.801   2.080   4.642
 6052TIP3    H118101   4.829   2.142   4.709
 6052TIP3    H218102   4.711   2.057   4.666
 6053TIP3   OH218103   0.381   2.610   3.757
 6053TIP3    H118104   0.443   2.557   3.707
 6053TIP3    H218105   0.309   2.551   3.777
 6054TIP3   OH218106   4.541   6.783   0.242
 6054TIP3    H118107   4.576   6.726   0.174
 6054TIP3    H218108   4.618   6.807   0.295
 6055TIP3   OH218109   3.337   1.089   1.865
 6055TIP3    H118110   3.295   1.038   1.796
 6055TIP3    H218111   3.398   1.028   1.906
 6056TIP3   OH218112   3.470   4.849   2.881
 6056TIP3    H118113   3.526   4.889   2.814
 6056TIP3    H218114   3.492   4.756   2.879
 6057TIP3   OH218115   1.965   1.641   3.236
 6057TIP3    H118116   2.010   1.560   3.259
 6057TIP3    H218117   2.030   1.710   3.250
 6058TIP3   OH218118   1.187   1.132   6.016
 6058TIP3    H118119   1.129   1.138   6.091
 6058TIP3    H218120   1.264   1.183   6.040
 6059TIP3   OH218121   7.025   4.901   1.998
 6059TIP3    H118122   7.107   4.868   2.036
 6059TIP3    H218123   7.052   4.943   1.916
 6060TIP3   OH218124   4.079   7.084   1.906
 6060TIP3    H118125   4.077   7.004   1.852
 6060TIP3    H218126   4.009   7.070   1.970
 6061TIP3   OH218127   3.837   4.230   1.859
 6061TIP3    H118128   3.749   4.191   1.857
 6061TIP3    H218129   3.827   4.309   1.913
 6062TIP3   OH218130   4.404   3.504   5.299
 6062TIP3    H118131   4.323   3.531   5.343
 6062TIP3    H218132   4.383   3.512   5.206
 6063TIP3   OH218133   0.264   7.331   4.669
 6063TIP3    H118134   0.323   7.287   4.607
 6063TIP3    H218135   0.320   7.356   4.742
 6064TIP3   OH218136   5.743   7.283   6.536
 6064TIP3    H118137   5.733   7.219   6.608
 6064TIP3    H218138   5.659   7.279   6.490
 6065TIP3   OH218139   0.772   3.895   0.245
 6065TIP3    H118140   0.859   3.863   0.223
 6065TIP3    H218141   0.762   3.975   0.193
 6066TIP3   OH218142   8.052   6.576   6.569
 6066TIP3    H118143   8.023   6.491   6.535
 6066TIP3    H218144   8.012   6.582   6.656
 6067TIP3   OH218145   0.061   3.185   3.873
 6067TIP3    H118146   0.105   3.179   3.958
 6067TIP3    H218147  -0.014   3.126   3.880
 6068TIP3   OH218148   8.225   3.925   5.637
 6068TIP3    H118149   8.213   4.014   5.672
 6068TIP3    H218150   8.282   3.937   5.561
 6069TIP3   OH218151   6.379   0.709   5.938
 6069TIP3    H118152   6.299   0.701   5.885
 6069TIP3    H218153   6.353   0.678   6.025
 6070TIP3   OH218154   6.939   2.414   0.541
 6070TIP3    H118155   7.021   2.371   0.564
 6070TIP3    H218156   6.917   2.466   0.618
 6071TIP3   OH218157   3.615   6.123   4.376
 6071TIP3    H118158   3.531   6.130   4.421
 6071TIP3    H218159   3.595   6.143   4.284
 6072TIP3   OH218160   6.326   2.954   4.215
 6072TIP3    H118161   6.397   3.004   4.255
 6072TIP3    H218162   6.292   2.900   4.286
 6073TIP3   OH218163   2.593   7.734   0.827
 6073TIP3    H118164   2.530   7.759   0.895
 6073TIP3    H218165   2.662   7.800   0.832
 6074TIP3   OH218166   2.796   0.576   3.232
 6074TIP3    H118167   2.840   0.635   3.293
 6074TIP3    H218168   2.746   0.634   3.174
 6075TIP3   OH218169   1.206   6.429   6.108
 6075TIP3    H118170   1.186   6.522   6.114
 6075TIP3    H218171   1.164   6.400   6.027
 6076TIP3   OH218172   7.402   5.071   6.195
 6076TIP3    H118173   7.457   5.007   6.149
 6076TIP3    H218174   7.405   5.044   6.286
 6077TIP3   OH218175   7.815   6.475   5.321
 6077TIP3    H118176   7.733   6.426   5.311
 6077TIP3    H218177   7.805   6.551   5.263
 6078TIP3   OH218178   4.925   3.471   5.577
 6078TIP3    H118179   4.838   3.454   5.613
 6078TIP3    H218180   4.910   3.535   5.507
 6079TIP3   OH218181   2.361   5.500   3.304
 6079TIP3    H118182   2.387   5.551   3.228
 6079TIP3    H218183   2.299   5.556   3.351
 6080TIP3   OH218184   3.836   6.540   5.590
 6080TIP3    H118185   3.847   6.573   5.680
 6080TIP3    H218186   3.773   6.468   5.599
 6081TIP3   OH218187   7.032   3.354   6.457
 6081TIP3    H118188   7.024   3.290   6.386
 6081TIP3    H218189   6.971   3.424   6.432
 6082TIP3   OH218190   1.355   1.560   5.285
 6082TIP3    H118191   1.382   1.516   5.365
 6082TIP3    H218192   1.397   1.646   5.289
 6083TIP3   OH218193   2.810   0.938   1.561
 6083TIP3    H118194   2.780   0.850   1.538
 6083TIP3    H218195   2.748   0.968   1.627
 6084TIP3   OH218196   4.188   6.702   0.543
 6084TIP3    H118197   4.220   6.674   0.457
 6084TIP3    H218198   4.246   6.774   0.568
 6085TIP3   OH218199   7.845   6.220   3.218
 6085TIP3    H118200   7.837   6.238   3.124
 6085TIP3    H218201   7.906   6.147   3.223
 6086TIP3   OH218202   1.430   5.187   2.923
 6086TIP3    H118203   1.400   5.244   2.852
 6086TIP3    H218204   1.505   5.140   2.887
 6087TIP3   OH218205   1.413   5.904   1.329
 6087TIP3    H118206   1.418   5.992   1.293
 6087TIP3    H218207   1.339   5.864   1.284
 6088TIP3   OH218208   7.031   1.685   6.482
 6088TIP3    H118209   7.123   1.709   6.468
 6088TIP3    H218210   6.992   1.763   6.521
 6089TIP3   OH218211   1.812   6.056   4.662
 6089TIP3    H118212   1.784   6.147   4.667
 6089TIP3    H218213   1.756   6.018   4.593
 6090TIP3   OH218214   5.022   5.610   0.229
 6090TIP3    H118215   5.087   5.635   0.294
 6090TIP3    H218216   4.938   5.633   0.269
 6091TIP3   OH218217   4.789   1.042   5.371
 6091TIP3    H118218   4.770   1.127   5.410
 6091TIP3    H218219   4.743   1.044   5.287
 6092TIP3   OH218220   2.451   2.392   3.259
 6092TIP3    H118221   2.384   2.346   3.209
 6092TIP3    H218222   2.490   2.454   3.197
 6093TIP3   OH218223   3.173   4.242   0.818
 6093TIP3    H118224   3.188   4.287   0.735
 6093TIP3    H218225   3.108   4.174   0.797
 6094TIP3   OH218226   4.633   0.191   5.120
 6094TIP3    H118227   4.643   0.216   5.212
 6094TIP3    H218228   4.539   0.180   5.108
 6095TIP3   OH218229   6.918   2.304   4.981
 6095TIP3    H118230   6.997   2.271   4.939
 6095TIP3    H218231   6.931   2.286   5.074
 6096TIP3   OH218232   6.056   1.864   6.414
 6096TIP3    H118233   6.126   1.884   6.352
 6096TIP3    H218234   5.981   1.914   6.383
 6097TIP3   OH218235   6.843   0.158   1.939
 6097TIP3    H118236   6.810   0.220   2.005
 6097TIP3    H218237   6.899   0.099   1.989
 6098TIP3   OH218238   2.423   7.389   1.857
 6098TIP3    H118239   2.443   7.297   1.878
 6098TIP3    H218240   2.328   7.393   1.857
 6099TIP3   OH218241   6.537   2.807   3.647
 6099TIP3    H118242   6.546   2.872   3.716
 6099TIP3    H218243   6.510   2.857   3.570
 6100TIP3   OH218244   0.843   6.069   0.649
 6100TIP3    H118245   0.882   6.111   0.725
 6100TIP3    H218246   0.832   5.977   0.674
 6101TIP3   OH218247   8.068   7.190   2.458
 6101TIP3    H118248   8.086   7.105   2.418
 6101TIP3    H218249   8.154   7.220   2.490
 6102TIP3   OH218250   6.151   7.488   2.684
 6102TIP3    H118251   6.239   7.456   2.703
 6102TIP3    H218252   6.147   7.574   2.726
 6103TIP3   OH218253   2.402   6.640   0.848
 6103TIP3    H118254   2.371   6.722   0.809
 6103TIP3    H218255   2.387   6.575   0.779
 6104TIP3   OH218256   5.217   0.082   3.474
 6104TIP3    H118257   5.281   0.147   3.504
 6104TIP3    H218258   5.263  -0.002   3.481
 6105TIP3   OH218259   5.912   5.775   2.622
 6105TIP3    H118260   5.973   5.813   2.685
 6105TIP3    H218261   5.893   5.846   2.560
 6106TIP3   OH218262   1.738   7.587   3.155
 6106TIP3    H118263   1.785   7.606   3.236
 6106TIP3    H218264   1.801   7.608   3.085
 6107TIP3   OH218265   6.660   0.200   2.449
 6107TIP3    H118266   6.742   0.155   2.470
 6107TIP3    H218267   6.625   0.226   2.534
 6108TIP3   OH218268   1.662   0.373   1.517
 6108TIP3    H118269   1.672   0.284   1.552
 6108TIP3    H218270   1.645   0.359   1.424
 6109TIP3   OH218271   4.891   0.470   6.426
 6109TIP3    H118272   4.946   0.397   6.456
 6109TIP3    H218273   4.812   0.428   6.391
 6110TIP3   OH218274   0.892   7.400   3.442
 6110TIP3    H118275   0.905   7.345   3.365
 6110TIP3    H218276   0.942   7.357   3.511
 6111TIP3   OH218277   1.226   4.215   2.067
 6111TIP3    H118278   1.178   4.189   2.146
 6111TIP3    H218279   1.276   4.292   2.094
 6112TIP3   OH218280   5.775   0.947   5.508
 6112TIP3    H118281   5.834   0.961   5.582
 6112TIP3    H218282   5.697   0.999   5.528
 6113TIP3   OH218283   6.025   1.450   1.788
 6113TIP3    H118284   6.001   1.502   1.711
 6113TIP3    H218285   5.947   1.454   1.844
 6114TIP3   OH218286   3.298   3.829   5.258
 6114TIP3    H118287   3.251   3.857   5.337
 6114TIP3    H218288   3.313   3.735   5.270
 6115TIP3   OH218289   7.959   2.181   5.576
 6115TIP3    H118290   7.886   2.232   5.542
 6115TIP3    H218291   7.918   2.114   5.630
 6116TIP3   OH218292   4.393   5.102   3.429
 6116TIP3    H118293   4.424   5.061   3.509
 6116TIP3    H218294   4.370   5.191   3.454
 6117TIP3   OH218295   2.421   6.078   0.226
 6117TIP3    H118296   2.477   6.066   0.150
 6117TIP3    H218297   2.453   6.158   0.267
 6118TIP3   OH218298   5.067   3.470   3.457
 6118TIP3    H118299   5.035   3.550   3.415
 6118TIP3    H218300   5.000   3.448   3.522
 6119TIP3   OH218301   4.572   3.498   1.263
 6119TIP3    H118302   4.483   3.496   1.300
 6119TIP3    H218303   4.559   3.482   1.169
 6120TIP3   OH218304   7.691   4.692   0.923
 6120TIP3    H118305   7.715   4.764   0.982
 6120TIP3    H218306   7.771   4.676   0.873
 6121TIP3   OH218307   1.048   2.097   5.315
 6121TIP3    H118308   0.960   2.112   5.350
 6121TIP3    H218309   1.049   2.144   5.231
 6122TIP3   OH218310   1.489   3.161   2.233
 6122TIP3    H118311   1.494   3.251   2.201
 6122TIP3    H218312   1.401   3.132   2.209
 6123TIP3   OH218313   7.761   2.835   1.894
 6123TIP3    H118314   7.739   2.907   1.834
 6123TIP3    H218315   7.844   2.801   1.862
 6124TIP3   OH218316   6.146   7.152   3.644
 6124TIP3    H118317   6.204   7.132   3.571
 6124TIP3    H218318   6.097   7.229   3.615
 6125TIP3   OH218319   3.630   5.226   4.828
 6125TIP3    H118320   3.606   5.149   4.776
 6125TIP3    H218321   3.601   5.301   4.776
 6126TIP3   OH218322   3.150   4.689   5.779
 6126TIP3    H118323   3.151   4.675   5.685
 6126TIP3    H218324   3.106   4.610   5.814
 6127TIP3   OH218325   2.670   5.526   2.974
 6127TIP3    H118326   2.670   5.564   2.886
 6127TIP3    H218327   2.759   5.538   3.005
 6128TIP3   OH218328   4.673   4.779   3.083
 6128TIP3    H118329   4.648   4.842   3.016
 6128TIP3    H218330   4.603   4.782   3.148
 6129TIP3   OH218331   8.017   4.591   0.789
 6129TIP3    H118332   8.061   4.647   0.725
 6129TIP3    H218333   8.086   4.563   0.849
 6130TIP3   OH218334   5.231   6.072   6.540
 6130TIP3    H118335   5.165   6.013   6.576
 6130TIP3    H218336   5.207   6.082   6.448
 6131TIP3   OH218337   7.659   0.732   3.791
 6131TIP3    H118338   7.592   0.667   3.772
 6131TIP3    H218339   7.668   0.730   3.887
 6132TIP3   OH218340   5.690   6.505   3.716
 6132TIP3    H118341   5.737   6.431   3.679
 6132TIP3    H218342   5.604   6.470   3.740
 6133TIP3   OH218343   0.056   4.802   1.032
 6133TIP3    H118344   0.051   4.845   1.118
 6133TIP3    H218345   0.096   4.717   1.050
 6134TIP3   OH218346   4.950   2.061   0.363
 6134TIP3    H118347   4.895   2.112   0.303
 6134TIP3    H218348   4.933   1.970   0.339
 6135TIP3   OH218349   7.907   5.824   5.782
 6135TIP3    H118350   7.978   5.813   5.719
 6135TIP3    H218351   7.844   5.882   5.739
 6136TIP3   OH218352   6.560   4.506   2.680
 6136TIP3    H118353   6.523   4.579   2.731
 6136TIP3    H218354   6.596   4.447   2.746
 6137TIP3   OH218355   4.813   2.915   0.455
 6137TIP3    H118356   4.846   2.825   0.448
 6137TIP3    H218357   4.866   2.965   0.393
 6138TIP3   OH218358   0.865   6.288   6.239
 6138TIP3    H118359   0.826   6.351   6.299
 6138TIP3    H218360   0.859   6.329   6.153
 6139TIP3   OH218361   4.746   2.832   5.396
 6139TIP3    H118362   4.686   2.807   5.326
 6139TIP3    H218363   4.724   2.923   5.415
 6140TIP3   OH218364   2.129   4.565   3.081
 6140TIP3    H118365   2.187   4.641   3.081
 6140TIP3    H218366   2.081   4.572   3.164
 6141TIP3   OH218367   4.251   4.868   2.050
 6141TIP3    H118368   4.284   4.799   2.108
 6141TIP3    H218369   4.296   4.947   2.078
 6142TIP3   OH218370   5.544   3.340   4.165
 6142TIP3    H118371   5.575   3.368   4.079
 6142TIP3    H218372   5.480   3.406   4.190
 6143TIP3   OH218373   4.015   4.505   0.414
 6143TIP3    H118374   4.028   4.418   0.451
 6143TIP3    H218375   4.099   4.527   0.374
 6144TIP3   OH218376   2.968   2.187   6.452
 6144TIP3    H118377   2.920   2.257   6.496
 6144TIP3    H218378   3.038   2.163   6.513
 6145TIP3   OH218379   4.852   1.728   1.704
 6145TIP3    H118380   4.777   1.752   1.650
 6145TIP3    H218381   4.915   1.692   1.641
 6146TIP3   OH218382   7.008   2.962   1.308
 6146TIP3    H118383   6.960   3.036   1.344
 6146TIP3    H218384   7.031   2.989   1.219
 6147TIP3   OH218385   2.486   2.940   5.193
 6147TIP3    H118386   2.484   2.869   5.256
 6147TIP3    H218387   2.468   3.019   5.244
 6148TIP3   OH218388   5.770   1.962   0.913
 6148TIP3    H118389   5.678   1.976   0.934
 6148TIP3    H218390   5.805   1.914   0.988
 6149TIP3   OH218391   4.512   2.689   1.671
 6149TIP3    H118392   4.420   2.714   1.663
 6149TIP3    H218393   4.556   2.734   1.599
 6150TIP3   OH218394   0.807   2.485   5.501
 6150TIP3    H118395   0.863   2.530   5.437
 6150TIP3    H218396   0.729   2.540   5.508
 6151TIP3   OH218397   4.795   6.009   1.133
 6151TIP3    H118398   4.787   6.084   1.192
 6151TIP3    H218399   4.880   5.971   1.154
 6152TIP3   OH218400   6.442   4.865   1.501
 6152TIP3    H118401   6.350   4.840   1.489
 6152TIP3    H218402   6.465   4.914   1.422
 6153TIP3   OH218403   4.251   6.244   5.029
 6153TIP3    H118404   4.259   6.185   4.954
 6153TIP3    H218405   4.157   6.257   5.039
 6154TIP3   OH218406   0.028   7.449   6.426
 6154TIP3    H118407   0.060   7.441   6.516
 6154TIP3    H218408  -0.038   7.518   6.430
 6155TIP3   OH218409   7.523   3.979   5.113
 6155TIP3    H118410   7.518   4.075   5.114
 6155TIP3    H218411   7.543   3.955   5.204
 6156TIP3   OH218412   6.448   7.131   2.396
 6156TIP3    H118413   6.409   7.044   2.395
 6156TIP3    H218414   6.379   7.188   2.431
 6157TIP3   OH218415   0.227   6.777   0.487
 6157TIP3    H118416   0.279   6.837   0.541
 6157TIP3    H218417   0.203   6.829   0.410
 6158TIP3   OH218418   2.469   5.056   2.579
 6158TIP3    H118419   2.434   5.000   2.649
 6158TIP3    H218420   2.559   5.075   2.606
 6159TIP3   OH218421   4.031   0.498   2.122
 6159TIP3    H118422   4.051   0.587   2.093
 6159TIP3    H218423   4.098   0.444   2.081
 6160TIP3   OH218424   3.295   6.674   0.352
 6160TIP3    H118425   3.346   6.754   0.338
 6160TIP3    H218426   3.312   6.650   0.443
 6161TIP3   OH218427   1.518   3.164   4.071
 6161TIP3    H118428   1.525   3.202   3.984
 6161TIP3    H218429   1.609   3.158   4.102
 6162TIP3   OH218430   0.250   0.406   4.263
 6162TIP3    H118431   0.215   0.483   4.218
 6162TIP3    H218432   0.335   0.391   4.222
 6163TIP3   OH218433   2.974   0.767   2.662
 6163TIP3    H118434   3.013   0.854   2.659
 6163TIP3    H218435   2.885   0.780   2.631
 6164TIP3   OH218436   6.635   6.472   1.020
 6164TIP3    H118437   6.573   6.409   0.982
 6164TIP3    H218438   6.699   6.487   0.950
 6165TIP3   OH218439   6.864   3.268   1.771
 6165TIP3    H118440   6.893   3.272   1.862
 6165TIP3    H218441   6.789   3.207   1.773
 6166TIP3   OH218442   5.132   6.509   0.402
 6166TIP3    H118443   5.118   6.598   0.369
 6166TIP3    H218444   5.044   6.479   0.427
 6167TIP3   OH218445   7.457   2.628   6.538
 6167TIP3    H118446   7.479   2.682   6.613
 6167TIP3    H218447   7.513   2.551   6.546
 6168TIP3   OH218448   0.258   1.179   4.947
 6168TIP3    H118449   0.303   1.200   5.029
 6168TIP3    H218450   0.251   1.263   4.901
 6169TIP3   OH218451   6.134   0.236   0.723
 6169TIP3    H118452   6.125   0.330   0.741
 6169TIP3    H218453   6.098   0.193   0.800
 6170TIP3   OH218454   2.346   3.357   6.680
 6170TIP3    H118455   2.292   3.281   6.661
 6170TIP3    H218456   2.432   3.321   6.704
 6171TIP3   OH218457   0.245   6.573   1.705
 6171TIP3    H118458   0.210   6.513   1.639
 6171TIP3    H218459   0.274   6.516   1.776
 6172TIP3   OH218460   2.985   5.150   4.034
 6172TIP3    H118461   2.937   5.151   3.951
 6172TIP3    H218462   3.017   5.240   4.044
 6173TIP3   OH218463   6.344   6.380   3.156
 6173TIP3    H118464   6.285   6.305   3.145
 6173TIP3    H218465   6.297   6.441   3.211
 6174TIP3   OH218466   2.720   7.672   2.433
 6174TIP3    H118467   2.708   7.581   2.405
 6174TIP3    H218468   2.790   7.667   2.498
 6175TIP3   OH218469   7.816   3.441   5.333
 6175TIP3    H118470   7.868   3.362   5.322
 6175TIP3    H218471   7.857   3.505   5.275
 6176TIP3   OH218472   2.663   0.917   1.937
 6176TIP3    H118473   2.749   0.958   1.946
 6176TIP3    H218474   2.620   0.966   1.867
 6177TIP3   OH218475   3.796   2.262   3.482
 6177TIP3    H118476   3.706   2.234   3.500
 6177TIP3    H218477   3.818   2.321   3.554
 6178TIP3   OH218478   0.973   6.853   1.118
 6178TIP3    H118479   0.912   6.793   1.076
 6178TIP3    H218480   0.956   6.843   1.211
 6179TIP3   OH218481   2.075   0.980   4.234
 6179TIP3    H118482   2.093   1.008   4.324
 6179TIP3    H218483   1.993   0.931   4.240
 6180TIP3   OH218484   7.461   6.876   2.144
 6180TIP3    H118485   7.516   6.823   2.087
 6180TIP3    H218486   7.436   6.817   2.215
 6181TIP3   OH218487   4.055   6.271   0.668
 6181TIP3    H118488   4.135   6.301   0.626
 6181TIP3    H218489   3.985   6.300   0.610
 6182TIP3   OH218490   2.046   3.699   5.534
 6182TIP3    H118491   2.013   3.788   5.549
 6182TIP3    H218492   2.043   3.657   5.619
 6183TIP3   OH218493   5.655   2.037   4.348
 6183TIP3    H118494   5.560   2.052   4.354
 6183TIP3    H218495   5.674   1.979   4.422
 6184TIP3   OH218496   6.570   5.058   3.672
 6184TIP3    H118497   6.532   4.970   3.672
 6184TIP3    H218498   6.662   5.044   3.650
 6185TIP3   OH218499   0.857   0.632   0.107
 6185TIP3    H118500   0.881   0.540   0.118
 6185TIP3    H218501   0.762   0.633   0.118
 6186TIP3   OH218502   2.590   3.283   5.718
 6186TIP3    H118503   2.578   3.219   5.648
 6186TIP3    H218504   2.684   3.301   5.720
 6187TIP3   OH218505   5.477   4.645   1.178
 6187TIP3    H118506   5.475   4.549   1.182
 6187TIP3    H218507   5.491   4.672   1.269
 6188TIP3   OH218508   3.705   5.167   4.119
 6188TIP3    H118509   3.792   5.129   4.108
 6188TIP3    H218510   3.715   5.231   4.189
 6189TIP3   OH218511   2.775   3.389   0.477
 6189TIP3    H118512   2.832   3.436   0.417
 6189TIP3    H218513   2.755   3.452   0.546
 6190TIP3   OH218514   0.809   7.347   1.121
 6190TIP3    H118515   0.879   7.407   1.096
 6190TIP3    H218516   0.795   7.363   1.214
 6191TIP3   OH218517   8.112   0.210   2.754
 6191TIP3    H118518   8.182   0.261   2.796
 6191TIP3    H218519   8.060   0.275   2.706
 6192TIP3   OH218520   1.550   7.360   4.403
 6192TIP3    H118521   1.492   7.353   4.327
 6192TIP3    H218522   1.632   7.394   4.368
 6193TIP3   OH218523   4.769   0.315   5.636
 6193TIP3    H118524   4.776   0.381   5.567
 6193TIP3    H218525   4.675   0.311   5.654
 6194TIP3   OH218526   5.668   7.426   2.629
 6194TIP3    H118527   5.757   7.404   2.603
 6194TIP3    H218528   5.649   7.508   2.584
 6195TIP3   OH218529   7.590   6.144   0.467
 6195TIP3    H118530   7.598   6.200   0.544
 6195TIP3    H218531   7.520   6.082   0.491
 6196TIP3   OH218532   0.605   4.751   4.726
 6196TIP3    H118533   0.511   4.761   4.746
 6196TIP3    H218534   0.644   4.834   4.750
 6197TIP3   OH218535   8.103   7.224   1.709
 6197TIP3    H118536   8.124   7.130   1.713
 6197TIP3    H218537   8.161   7.264   1.775
 6198TIP3   OH218538   5.177   6.433   2.713
 6198TIP3    H118539   5.207   6.524   2.714
 6198TIP3    H218540   5.231   6.390   2.779
 6199TIP3   OH218541   0.256   0.774   6.070
 6199TIP3    H118542   0.337   0.796   6.025
 6199TIP3    H218543   0.188   0.781   6.003
 6200TIP3   OH218544   6.947   4.421   4.297
 6200TIP3    H118545   6.886   4.470   4.241
 6200TIP3    H218546   7.034   4.450   4.270
 6201TIP3   OH218547   1.834   2.152   6.162
 6201TIP3    H118548   1.844   2.179   6.071
 6201TIP3    H218549   1.908   2.093   6.177
 6202TIP3   OH218550   5.827   4.525   1.740
 6202TIP3    H118551   5.816   4.441   1.784
 6202TIP3    H218552   5.751   4.577   1.767
 6203TIP3   OH218553   2.282   2.674   1.329
 6203TIP3    H118554   2.259   2.581   1.331
 6203TIP3    H218555   2.209   2.716   1.283
 6204TIP3   OH218556   1.257   6.095   6.011
 6204TIP3    H118557   1.232   6.121   6.099
 6204TIP3    H218558   1.287   6.004   6.020
 6205TIP3   OH218559   7.870   6.602   2.072
 6205TIP3    H118560   7.785   6.640   2.052
 6205TIP3    H218561   7.872   6.598   2.168
 6206TIP3   OH218562   3.267   6.925   4.819
 6206TIP3    H118563   3.201   6.905   4.752
 6206TIP3    H218564   3.350   6.902   4.777
 6207TIP3   OH218565   7.653   5.436   2.312
 6207TIP3    H118566   7.731   5.393   2.277
 6207TIP3    H218567   7.581   5.379   2.287
 6208TIP3   OH218568   5.614   0.679   2.885
 6208TIP3    H118569   5.631   0.611   2.820
 6208TIP3    H218570   5.686   0.673   2.947
 6209TIP3   OH218571   3.718   2.884   5.708
 6209TIP3    H118572   3.711   2.971   5.669
 6209TIP3    H218573   3.628   2.862   5.733
 6210TIP3   OH218574   3.447   0.619   4.630
 6210TIP3    H118575   3.523   0.628   4.572
 6210TIP3    H218576   3.401   0.702   4.623
 6211TIP3   OH218577   5.889   7.038   2.413
 6211TIP3    H118578   5.795   7.053   2.411
 6211TIP3    H218579   5.910   7.005   2.326
 6212TIP3   OH218580   2.196   0.853   4.023
 6212TIP3    H118581   2.251   0.918   3.980
 6212TIP3    H218582   2.181   0.888   4.111
 6213TIP3   OH218583   2.718   0.384   2.424
 6213TIP3    H118584   2.753   0.317   2.483
 6213TIP3    H218585   2.730   0.346   2.337
 6214TIP3   OH218586   7.830   1.232   1.801
 6214TIP3    H118587   7.740   1.263   1.815
 6214TIP3    H218588   7.863   1.285   1.729
 6215TIP3   OH218589   0.389   4.989   3.380
 6215TIP3    H118590   0.389   4.922   3.449
 6215TIP3    H218591   0.359   4.942   3.302
 6216TIP3   OH218592   2.118   1.058   4.495
 6216TIP3    H118593   2.043   1.106   4.462
 6216TIP3    H218594   2.156   1.116   4.561
 6217TIP3   OH218595   1.410   7.728   1.568
 6217TIP3    H118596   1.320   7.732   1.601
 6217TIP3    H218597   1.465   7.737   1.646
 6218TIP3   OH218598   4.944   7.426   0.559
 6218TIP3    H118599   4.895   7.481   0.498
 6218TIP3    H218600   5.003   7.375   0.504
 6219TIP3   OH218601   0.709   4.756   0.869
 6219TIP3    H118602   0.712   4.711   0.784
 6219TIP3    H218603   0.620   4.739   0.902
 6220TIP3   OH218604   0.335   0.683   3.860
 6220TIP3    H118605   0.359   0.741   3.932
 6220TIP3    H218606   0.271   0.733   3.809
 6221TIP3   OH218607   2.507   2.506   4.224
 6221TIP3    H118608   2.560   2.520   4.302
 6221TIP3    H218609   2.562   2.456   4.164
 6222TIP3   OH218610   3.606   2.956   4.008
 6222TIP3    H118611   3.594   3.018   3.936
 6222TIP3    H218612   3.639   3.008   4.080
 6223TIP3   OH218613   6.939   5.084   4.984
 6223TIP3    H118614   6.848   5.094   4.959
 6223TIP3    H218615   6.961   4.994   4.960
 6224TIP3   OH218616   6.976   3.919   1.109
 6224TIP3    H118617   6.887   3.892   1.084
 6224TIP3    H218618   6.963   3.981   1.181
 6225TIP3   OH218619   5.803   6.017   0.995
 6225TIP3    H118620   5.845   5.935   1.020
 6225TIP3    H218621   5.712   5.992   0.978
 6226TIP3   OH218622   7.328   2.370   1.212
 6226TIP3    H118623   7.334   2.280   1.181
 6226TIP3    H218624   7.416   2.393   1.240
 6227TIP3   OH218625   6.821   3.356   3.858
 6227TIP3    H118626   6.838   3.431   3.802
 6227TIP3    H218627   6.809   3.283   3.798
 6228TIP3   OH218628   7.371   4.503   0.590
 6228TIP3    H118629   7.395   4.576   0.646
 6228TIP3    H218630   7.393   4.425   0.640
 6229TIP3   OH218631   0.566   5.433   4.528
 6229TIP3    H118632   0.660   5.445   4.521
 6229TIP3    H218633   0.555   5.343   4.560
 6230TIP3   OH218634   0.182   1.692   0.615
 6230TIP3    H118635   0.165   1.608   0.572
 6230TIP3    H218636   0.100   1.712   0.659
 6231TIP3   OH218637   3.830   7.581   1.067
 6231TIP3    H118638   3.875   7.582   1.151
 6231TIP3    H218639   3.875   7.647   1.015
 6232TIP3   OH218640   0.174   1.242   2.935
 6232TIP3    H118641   0.202   1.327   2.902
 6232TIP3    H218642   0.137   1.197   2.859
 6233TIP3   OH218643   4.419   7.575   0.083
 6233TIP3    H118644   4.510   7.592   0.106
 6233TIP3    H218645   4.371   7.590   0.164
 6234TIP3   OH218646   0.955   4.738   2.669
 6234TIP3    H118647   0.869   4.747   2.710
 6234TIP3    H218648   1.013   4.790   2.725
 6235TIP3   OH218649   3.987   4.202   1.586
 6235TIP3    H118650   4.019   4.265   1.521
 6235TIP3    H218651   3.929   4.253   1.643
 6236TIP3   OH218652   6.564   3.017   2.838
 6236TIP3    H118653   6.579   3.111   2.825
 6236TIP3    H218654   6.512   3.011   2.918
 6237TIP3   OH218655   3.128   0.997   2.492
 6237TIP3    H118656   3.132   1.056   2.566
 6237TIP3    H218657   3.051   1.025   2.443
 6238TIP3   OH218658   2.269   3.239   4.204
 6238TIP3    H118659   2.295   3.187   4.280
 6238TIP3    H218660   2.192   3.288   4.234
 6239TIP3   OH218661   3.193   4.724   2.134
 6239TIP3    H118662   3.142   4.700   2.212
 6239TIP3    H218663   3.141   4.793   2.092
 6240TIP3   OH218664   6.629   1.281   4.753
 6240TIP3    H118665   6.567   1.227   4.802
 6240TIP3    H218666   6.604   1.371   4.773
 6241TIP3   OH218667   6.854   2.306   1.386
 6241TIP3    H118668   6.899   2.257   1.318
 6241TIP3    H218669   6.798   2.242   1.431
 6242TIP3   OH218670   7.130   2.320   3.446
 6242TIP3    H118671   7.067   2.383   3.481
 6242TIP3    H218672   7.172   2.282   3.523
 6243TIP3   OH218673   5.244   2.162   4.945
 6243TIP3    H118674   5.290   2.086   4.980
 6243TIP3    H218675   5.196   2.129   4.869
 6244TIP3   OH218676   8.123   3.754   3.202
 6244TIP3    H118677   8.128   3.850   3.203
 6244TIP3    H218678   8.214   3.725   3.202
 6245TIP3   OH218679   0.098   3.205   0.650
 6245TIP3    H118680   0.130   3.161   0.571
 6245TIP3    H218681   0.169   3.194   0.714
 6246TIP3   OH218682   2.304   0.005   0.395
 6246TIP3    H118683   2.325  -0.047   0.473
 6246TIP3    H218684   2.209   0.011   0.395
 6247TIP3   OH218685   4.548   2.116   0.807
 6247TIP3    H118686   4.494   2.070   0.871
 6247TIP3    H218687   4.535   2.069   0.725
 6248TIP3   OH218688   3.559   3.408   1.244
 6248TIP3    H118689   3.503   3.485   1.252
 6248TIP3    H218690   3.523   3.360   1.169
 6249TIP3   OH218691   6.448   2.340   4.934
 6249TIP3    H118692   6.416   2.428   4.911
 6249TIP3    H218693   6.523   2.326   4.876
 6250TIP3   OH218694   3.523   7.732   1.333
 6250TIP3    H118695   3.599   7.765   1.381
 6250TIP3    H218696   3.448   7.770   1.379
 6251TIP3   OH218697   4.068   2.910   0.063
 6251TIP3    H118698   4.000   2.843   0.065
 6251TIP3    H218699   4.149   2.861   0.048
 6252TIP3   OH218700   2.966   0.425   0.289
 6252TIP3    H118701   2.929   0.367   0.222
 6252TIP3    H218702   2.955   0.377   0.371
 6253TIP3   OH218703   0.905   2.871   4.971
 6253TIP3    H118704   0.892   2.914   4.887
 6253TIP3    H218705   0.999   2.857   4.978
 6254TIP3   OH218706   2.200   7.780   1.912
 6254TIP3    H118707   2.248   7.811   1.989
 6254TIP3    H218708   2.192   7.858   1.857
 6255TIP3   OH218709   8.010   1.510   5.292
 6255TIP3    H118710   7.944   1.521   5.223
 6255TIP3    H218711   8.016   1.595   5.334
 6256TIP3   OH218712   5.260   2.738   2.303
 6256TIP3    H118713   5.321   2.723   2.375
 6256TIP3    H218714   5.257   2.833   2.293
 6257TIP3   OH218715   8.256   7.658   5.830
 6257TIP3    H118716   8.197   7.731   5.814
 6257TIP3    H218717   8.206   7.581   5.802
 6258TIP3   OH218718   4.612   2.096   5.260
 6258TIP3    H118719   4.629   2.185   5.290
 6258TIP3    H218720   4.545   2.062   5.319
 6259TIP3   OH218721   4.930   1.948   1.507
 6259TIP3    H118722   5.023   1.925   1.502
 6259TIP3    H218723   4.924   2.006   1.583
 6260TIP3   OH218724   6.371   4.619   5.752
 6260TIP3    H118725   6.362   4.652   5.662
 6260TIP3    H218726   6.458   4.645   5.779
 6261TIP3   OH218727   4.396   1.963   5.113
 6261TIP3    H118728   4.464   2.030   5.116
 6261TIP3    H218729   4.415   1.913   5.033
 6262TIP3   OH218730   7.948   2.756   0.961
 6262TIP3    H118731   7.887   2.780   0.891
 6262TIP3    H218732   8.034   2.768   0.922
 6263TIP3   OH218733   0.254   6.602   2.153
 6263TIP3    H118734   0.189   6.656   2.108
 6263TIP3    H218735   0.261   6.523   2.100
 6264TIP3   OH218736   4.573   7.749   5.758
 6264TIP3    H118737   4.525   7.709   5.830
 6264TIP3    H218738   4.633   7.810   5.800
 6265TIP3   OH218739   7.847   2.491   4.333
 6265TIP3    H118740   7.892   2.536   4.261
 6265TIP3    H218741   7.875   2.400   4.324
 6266TIP3   OH218742   3.869   5.119   2.308
 6266TIP3    H118743   3.775   5.102   2.313
 6266TIP3    H218744   3.905   5.072   2.383
 6267TIP3   OH218745   8.083   7.438   5.738
 6267TIP3    H118746   7.989   7.447   5.726
 6267TIP3    H218747   8.107   7.362   5.684
 6268TIP3   OH218748   5.027   2.146   4.254
 6268TIP3    H118749   4.960   2.124   4.189
 6268TIP3    H218750   5.083   2.210   4.210
 6269TIP3   OH218751   3.201   0.212   2.298
 6269TIP3    H118752   3.116   0.206   2.343
 6269TIP3    H218753   3.255   0.145   2.340
 6270TIP3   OH218754   3.010   7.432   4.018
 6270TIP3    H118755   2.937   7.457   3.961
 6270TIP3    H218756   2.983   7.460   4.105
 6271TIP3   OH218757   8.147   2.727   4.445
 6271TIP3    H118758   8.142   2.806   4.498
 6271TIP3    H218759   8.061   2.720   4.404
 6272TIP3   OH218760   5.608   1.691   3.063
 6272TIP3    H118761   5.574   1.725   3.146
 6272TIP3    H218762   5.572   1.603   3.057
 6273TIP3   OH218763   2.688   5.665   0.521
 6273TIP3    H118764   2.613   5.636   0.573
 6273TIP3    H218765   2.655   5.665   0.431
 6274TIP3   OH218766   2.379   4.431   4.017
 6274TIP3    H118767   2.329   4.426   3.936
 6274TIP3    H218768   2.455   4.485   3.996
 6275TIP3   OH218769   1.645   6.253   5.245
 6275TIP3    H118770   1.558   6.213   5.250
 6275TIP3    H218771   1.688   6.209   5.172
 6276TIP3   OH218772   5.613   0.155   4.048
 6276TIP3    H118773   5.546   0.161   4.117
 6276TIP3    H218774   5.649   0.243   4.042
 6277TIP3   OH218775   0.000   3.145   2.492
 6277TIP3    H118776   0.039   3.068   2.450
 6277TIP3    H218777   0.030   3.219   2.439
 6278TIP3   OH218778   5.847   3.416   3.903
 6278TIP3    H118779   5.758   3.450   3.908
 6278TIP3    H218780   5.842   3.341   3.845
 6279TIP3   OH218781   6.348   7.435   4.262
 6279TIP3    H118782   6.292   7.502   4.301
 6279TIP3    H218783   6.410   7.484   4.209
 6280TIP3   OH218784   3.381   0.317   5.668
 6280TIP3    H118785   3.301   0.265   5.666
 6280TIP3    H218786   3.356   0.398   5.714
 6281TIP3   OH218787   4.179   1.901   6.336
 6281TIP3    H118788   4.142   1.989   6.341
 6281TIP3    H218789   4.220   1.897   6.250
 6282TIP3   OH218790   7.562   5.611   1.748
 6282TIP3    H118791   7.502   5.665   1.696
 6282TIP3    H218792   7.535   5.521   1.731
 6283TIP3   OH218793   7.950   1.017   3.003
 6283TIP3    H118794   8.040   1.025   3.033
 6283TIP3    H218795   7.918   1.107   2.999
 6284TIP3   OH218796   5.484   1.999   3.543
 6284TIP3    H118797   5.390   1.999   3.561
 6284TIP3    H218798   5.515   2.083   3.578
 6285TIP3   OH218799   7.066   7.250   2.995
 6285TIP3    H118800   7.085   7.340   3.021
 6285TIP3    H218801   7.099   7.243   2.905
 6286TIP3   OH218802   0.228   2.305   1.061
 6286TIP3    H118803   0.315   2.306   1.100
 6286TIP3    H218804   0.232   2.370   0.991
 6287TIP3   OH218805   6.814   5.770   5.132
 6287TIP3    H118806   6.781   5.838   5.073
 6287TIP3    H218807   6.741   5.709   5.140
 6288TIP3   OH218808   0.802   1.029   1.901
 6288TIP3    H118809   0.765   1.019   1.813
 6288TIP3    H218810   0.866   1.100   1.892
 6289TIP3   OH218811   3.917   0.467   3.704
 6289TIP3    H118812   3.830   0.479   3.666
 6289TIP3    H218813   3.957   0.554   3.698
 6290TIP3   OH218814   2.721   6.080   2.347
 6290TIP3    H118815   2.658   6.098   2.416
 6290TIP3    H218816   2.683   6.118   2.269
 6291TIP3   OH218817   2.694   2.384   6.380
 6291TIP3    H118818   2.643   2.374   6.299
 6291TIP3    H218819   2.766   2.442   6.356
 6292TIP3   OH218820   0.343   3.399   1.913
 6292TIP3    H118821   0.351   3.345   1.835
 6292TIP3    H218822   0.377   3.485   1.887
 6293TIP3   OH218823   4.571   2.411   1.580
 6293TIP3    H118824   4.496   2.417   1.639
 6293TIP3    H218825   4.648   2.426   1.635
 6294TIP3   OH218826   2.534   7.478   4.155
 6294TIP3    H118827   2.546   7.551   4.215
 6294TIP3    H218828   2.623   7.449   4.135
 6295TIP3   OH218829   4.622   0.744   5.197
 6295TIP3    H118830   4.544   0.693   5.217
 6295TIP3    H218831   4.598   0.834   5.216
 6296TIP3   OH218832   5.151   3.887   1.059
 6296TIP3    H118833   5.103   3.842   1.129
 6296TIP3    H218834   5.143   3.980   1.080
 6297TIP3   OH218835   4.221   6.955   6.369
 6297TIP3    H118836   4.237   6.909   6.287
 6297TIP3    H218837   4.207   6.886   6.433
 6298TIP3   OH218838   4.850   6.944   1.633
 6298TIP3    H118839   4.871   6.852   1.615
 6298TIP3    H218840   4.868   6.956   1.726
 6299TIP3   OH218841   1.143   4.026   4.347
 6299TIP3    H118842   1.166   4.094   4.410
 6299TIP3    H218843   1.190   4.050   4.267
 6300TIP3   OH218844   3.303   4.950   1.952
 6300TIP3    H118845   3.297   5.018   1.885
 6300TIP3    H218846   3.213   4.933   1.977
 6301TIP3   OH218847   0.902   3.623   0.769
 6301TIP3    H118848   0.813   3.599   0.796
 6301TIP3    H218849   0.956   3.548   0.797
 6302TIP3   OH218850   6.117   3.474   4.286
 6302TIP3    H118851   6.094   3.429   4.367
 6302TIP3    H218852   6.206   3.506   4.301
 6303TIP3   OH218853   5.223   2.414   4.388
 6303TIP3    H118854   5.178   2.460   4.459
 6303TIP3    H218855   5.284   2.356   4.433
 6304TIP3   OH218856   5.747   1.041   5.237
 6304TIP3    H118857   5.742   1.010   5.328
 6304TIP3    H218858   5.823   1.100   5.237
 6305TIP3   OH218859   4.333   2.784   2.502
 6305TIP3    H118860   4.331   2.809   2.594
 6305TIP3    H218861   4.403   2.719   2.496
 6306TIP3   OH218862   0.559   1.182   1.715
 6306TIP3    H118863   0.560   1.106   1.657
 6306TIP3    H218864   0.480   1.171   1.767
 6307TIP3   OH218865   5.693   5.281   6.534
 6307TIP3    H118866   5.707   5.306   6.442
 6307TIP3    H218867   5.766   5.222   6.554
 6308TIP3   OH218868   0.640   5.724   0.833
 6308TIP3    H118869   0.580   5.660   0.871
 6308TIP3    H218870   0.599   5.749   0.750
 6309TIP3   OH218871   6.617   5.383   2.483
 6309TIP3    H118872   6.591   5.465   2.442
 6309TIP3    H218873   6.546   5.363   2.544
 6310TIP3   OH218874   2.267   0.889   2.503
 6310TIP3    H118875   2.278   0.794   2.495
 6310TIP3    H218876   2.201   0.911   2.437
 6311TIP3   OH218877   6.723   5.814   3.035
 6311TIP3    H118878   6.785   5.742   3.022
 6311TIP3    H218879   6.777   5.893   3.036
 6312TIP3   OH218880   6.065   2.483   4.080
 6312TIP3    H118881   6.158   2.462   4.071
 6312TIP3    H218882   6.039   2.513   3.993
 6313TIP3   OH218883   2.019   3.213   5.662
 6313TIP3    H118884   1.965   3.290   5.642
 6313TIP3    H218885   1.971   3.139   5.624
 6314TIP3   OH218886   0.131   5.458   1.019
 6314TIP3    H118887   0.079   5.382   1.044
 6314TIP3    H218888   0.101   5.481   0.931
 6315TIP3   OH218889   7.658   6.750   2.792
 6315TIP3    H118890   7.750   6.758   2.765
 6315TIP3    H218891   7.627   6.840   2.797
 6316TIP3   OH218892   0.387   5.497   4.325
 6316TIP3    H118893   0.437   5.504   4.406
 6316TIP3    H218894   0.434   5.431   4.273
 6317TIP3   OH218895   3.869   4.172   0.247
 6317TIP3    H118896   3.811   4.171   0.322
 6317TIP3    H218897   3.950   4.130   0.278
 6318TIP3   OH218898   4.584   6.336   6.522
 6318TIP3    H118899   4.652   6.393   6.559
 6318TIP3    H218900   4.527   6.317   6.596
 6319TIP3   OH218901   6.358   2.865   6.014
 6319TIP3    H118902   6.349   2.824   6.099
 6319TIP3    H218903   6.431   2.926   6.023
 6320TIP3   OH218904   6.780   4.598   6.752
 6320TIP3    H118905   6.698   4.554   6.731
 6320TIP3    H218906   6.818   4.621   6.668
 6321TIP3   OH218907   0.758   4.913   0.400
 6321TIP3    H118908   0.692   4.849   0.374
 6321TIP3    H218909   0.834   4.894   0.345
 6322TIP3   OH218910   5.161   1.419   0.990
 6322TIP3    H118911   5.076   1.377   1.001
 6322TIP3    H218912   5.194   1.430   1.079
 6323TIP3   OH218913   7.212   5.569   2.011
 6323TIP3    H118914   7.172   5.534   1.931
 6323TIP3    H218915   7.238   5.491   2.061
 6324TIP3   OH218916   0.430   7.087   3.552
 6324TIP3    H118917   0.395   7.034   3.624
 6324TIP3    H218918   0.468   7.164   3.595
 6325TIP3   OH218919   1.030   4.460   2.626
 6325TIP3    H118920   1.122   4.458   2.652
 6325TIP3    H218921   1.009   4.553   2.623
 6326TIP3   OH218922   3.705   1.070   1.625
 6326TIP3    H118923   3.630   1.010   1.624
 6326TIP3    H218924   3.684   1.134   1.557
 6327TIP3   OH218925   1.498   0.468   3.068
 6327TIP3    H118926   1.548   0.526   3.124
 6327TIP3    H218927   1.408   0.476   3.100
 6328TIP3   OH218928   3.021   5.675   3.308
 6328TIP3    H118929   2.946   5.725   3.341
 6328TIP3    H218930   3.048   5.621   3.382
 6329TIP3   OH218931   8.243   1.700   0.798
 6329TIP3    H118932   8.205   1.655   0.873
 6329TIP3    H218933   8.171   1.708   0.735
 6330TIP3   OH218934   1.085   0.001   5.880
 6330TIP3    H118935   1.171   0.032   5.911
 6330TIP3    H218936   1.070   0.050   5.799
 6331TIP3   OH218937   8.098   6.146   1.976
 6331TIP3    H118938   8.085   6.182   1.888
 6331TIP3    H218939   8.059   6.059   1.972
 6332TIP3   OH218940   7.171   0.964   0.799
 6332TIP3    H118941   7.201   1.010   0.720
 6332TIP3    H218942   7.186   0.872   0.780
 6333TIP3   OH218943   0.308   5.862   1.577
 6333TIP3    H118944   0.268   5.941   1.541
 6333TIP3    H218945   0.368   5.893   1.645
 6334TIP3   OH218946   5.408   7.714   6.806
 6334TIP3    H118947   5.341   7.677   6.749
 6334TIP3    H218948   5.487   7.664   6.787
 6335TIP3   OH218949   3.718   7.630   5.283
 6335TIP3    H118950   3.668   7.587   5.352
 6335TIP3    H218951   3.653   7.653   5.217
 6336TIP3   OH218952   7.402   7.587   4.285
 6336TIP3    H118953   7.420   7.616   4.196
 6336TIP3    H218954   7.488   7.585   4.327
 6337TIP3   OH218955   0.942   0.998   3.662
 6337TIP3    H118956   0.942   0.976   3.755
 6337TIP3    H218957   0.850   1.003   3.638
 6338TIP3   OH218958   2.130   5.893   6.318
 6338TIP3    H118959   2.162   5.818   6.267
 6338TIP3    H218960   2.069   5.938   6.259
 6339TIP3   OH218961   2.198   3.800  -0.014
 6339TIP3    H118962   2.192   3.786   0.080
 6339TIP3    H218963   2.188   3.712  -0.052
 6340TIP3   OH218964   5.510   7.448   5.974
 6340TIP3    H118965   5.422   7.473   5.945
 6340TIP3    H218966   5.496   7.404   6.058
 6341TIP3   OH218967   6.647   6.578   6.133
 6341TIP3    H118968   6.717   6.621   6.181
 6341TIP3    H218969   6.692   6.527   6.066
 6342TIP3   OH218970   0.955   0.096   1.482
 6342TIP3    H118971   0.873   0.142   1.461
 6342TIP3    H218972   0.938   0.057   1.568
 6343TIP3   OH218973   5.324   5.642   5.568
 6343TIP3    H118974   5.385   5.609   5.633
 6343TIP3    H218975   5.282   5.564   5.532
 6344TIP3   OH218976   0.022   1.244   5.581
 6344TIP3    H118977  -0.005   1.247   5.673
 6344TIP3    H218978   0.113   1.275   5.583
 6345TIP3   OH218979   4.102   3.565   3.716
 6345TIP3    H118980   4.054   3.485   3.737
 6345TIP3    H218981   4.039   3.635   3.732
 6346TIP3   OH218982   1.631   1.737   5.870
 6346TIP3    H118983   1.598   1.820   5.906
 6346TIP3    H218984   1.704   1.763   5.814
 6347TIP3   OH218985   4.720   7.644   6.576
 6347TIP3    H118986   4.682   7.648   6.663
 6347TIP3    H218987   4.764   7.728   6.565
 6348TIP3   OH218988   1.310   1.432   1.375
 6348TIP3    H118989   1.289   1.483   1.453
 6348TIP3    H218990   1.251   1.467   1.308
 6349TIP3   OH218991   7.447   1.845   3.119
 6349TIP3    H118992   7.395   1.770   3.149
 6349TIP3    H218993   7.487   1.880   3.199
 6350TIP3   OH218994   4.055   7.299   2.347
 6350TIP3    H118995   4.000   7.359   2.297
 6350TIP3    H218996   3.992   7.243   2.394
 6351TIP3   OH218997   4.643   4.374   0.447
 6351TIP3    H118998   4.647   4.458   0.493
 6351TIP3    H218999   4.553   4.371   0.413
 6352TIP3   OH219000   3.867   2.694   6.077
 6352TIP3    H119001   3.853   2.761   6.144
 6352TIP3    H219002   3.837   2.613   6.119
 6353TIP3   OH219003   6.668   2.136   3.831
 6353TIP3    H119004   6.655   2.115   3.924
 6353TIP3    H219005   6.670   2.052   3.787
 6354TIP3   OH219006   2.464   1.561   6.289
 6354TIP3    H119007   2.437   1.600   6.205
 6354TIP3    H219008   2.495   1.635   6.341
 6355TIP3   OH219009   5.013   1.617   1.511
 6355TIP3    H119010   5.078   1.552   1.535
 6355TIP3    H219011   5.062   1.686   1.467
 6356TIP3   OH219012   7.086   6.018   4.075
 6356TIP3    H119013   7.098   6.102   4.120
 6356TIP3    H219014   7.111   5.952   4.140
 6357TIP3   OH219015   2.432   0.983   3.247
 6357TIP3    H119016   2.505   0.977   3.309
 6357TIP3    H219017   2.469   1.029   3.171
 6358TIP3   OH219018   7.929   6.015   4.916
 6358TIP3    H119019   7.838   6.039   4.898
 6358TIP3    H219020   7.960   5.974   4.836
 6359TIP3   OH219021   4.309   7.533   3.784
 6359TIP3    H119022   4.334   7.545   3.692
 6359TIP3    H219023   4.217   7.510   3.781
 6360TIP3   OH219024   7.442   4.246   4.733
 6360TIP3    H119025   7.384   4.221   4.804
 6360TIP3    H219026   7.530   4.222   4.764
 6361TIP3   OH219027   3.983   7.756   4.586
 6361TIP3    H119028   4.078   7.755   4.585
 6361TIP3    H219029   3.960   7.777   4.677
 6362TIP3   OH219030   0.615   6.993   3.853
 6362TIP3    H119031   0.660   6.951   3.779
 6362TIP3    H219032   0.662   7.076   3.865
 6363TIP3   OH219033   7.093   6.747   3.948
 6363TIP3    H119034   7.074   6.786   4.033
 6363TIP3    H219035   7.076   6.817   3.885
 6364TIP3   OH219036   6.544   6.441   3.426
 6364TIP3    H119037   6.478   6.385   3.385
 6364TIP3    H219038   6.533   6.526   3.384
 6365TIP3   OH219039   1.747   2.265   1.800
 6365TIP3    H119040   1.684   2.215   1.852
 6365TIP3    H219041   1.812   2.201   1.772
 6366TIP3   OH219042   6.401   4.162   2.997
 6366TIP3    H119043   6.471   4.099   2.980
 6366TIP3    H219044   6.389   4.159   3.092
 6367TIP3   OH219045   1.341   2.054   3.410
 6367TIP3    H119046   1.336   1.966   3.374
 6367TIP3    H219047   1.433   2.066   3.433
 6368TIP3   OH219048   0.814   1.941   6.153
 6368TIP3    H119049   0.802   2.026   6.112
 6368TIP3    H219050   0.727   1.901   6.152
 6369TIP3   OH219051   2.173   6.484   4.559
 6369TIP3    H119052   2.191   6.575   4.536
 6369TIP3    H219053   2.226   6.468   4.638
 6370TIP3   OH219054   1.031   6.213   4.496
 6370TIP3    H119055   1.007   6.130   4.456
 6370TIP3    H219056   1.036   6.194   4.590
 6371TIP3   OH219057   1.893   4.634   5.592
 6371TIP3    H119058   1.903   4.577   5.668
 6371TIP3    H219059   1.916   4.721   5.625
 6372TIP3   OH219060   5.751   2.836   4.488
 6372TIP3    H119061   5.759   2.741   4.493
 6372TIP3    H219062   5.678   2.857   4.546
 6373TIP3   OH219063   7.783   2.886   3.100
 6373TIP3    H119064   7.796   2.955   3.035
 6373TIP3    H219065   7.791   2.931   3.185
 6374TIP3   OH219066   4.326   3.238   3.201
 6374TIP3    H119067   4.280   3.185   3.266
 6374TIP3    H219068   4.275   3.227   3.121
 6375TIP3   OH219069   6.859   3.068   2.016
 6375TIP3    H119070   6.797   2.996   2.010
 6375TIP3    H219071   6.943   3.026   2.037
 6376TIP3   OH219072   4.733   0.818   5.507
 6376TIP3    H119073   4.641   0.838   5.526
 6376TIP3    H219074   4.768   0.898   5.469
 6377TIP3   OH219075   7.383   0.663   5.825
 6377TIP3    H119076   7.317   0.732   5.826
 6377TIP3    H219077   7.347   0.596   5.767
 6378TIP3   OH219078   2.828   1.965   5.917
 6378TIP3    H119079   2.843   1.940   5.826
 6378TIP3    H219080   2.732   1.972   5.924
 6379TIP3   OH219081   3.737   5.036   1.480
 6379TIP3    H119082   3.796   5.010   1.410
 6379TIP3    H219083   3.788   5.098   1.532
 6380TIP3   OH219084   1.707   7.196   2.427
 6380TIP3    H119085   1.792   7.156   2.442
 6380TIP3    H219086   1.678   7.225   2.513
 6381TIP3   OH219087   3.490   5.002   4.185
 6381TIP3    H119088   3.509   4.909   4.198
 6381TIP3    H219089   3.576   5.044   4.182
 6382TIP3   OH219090   5.048   2.208   6.169
 6382TIP3    H119091   4.988   2.135   6.153
 6382TIP3    H219092   5.085   2.190   6.255
 6383TIP3   OH219093   1.337   4.604   1.645
 6383TIP3    H119094   1.322   4.588   1.738
 6383TIP3    H219095   1.269   4.666   1.619
 6384TIP3   OH219096   2.175   6.494   1.786
 6384TIP3    H119097   2.122   6.573   1.775
 6384TIP3    H219098   2.161   6.444   1.705
 6385TIP3   OH219099   0.131   4.535   1.080
 6385TIP3    H119100   0.140   4.484   0.999
 6385TIP3    H219101   0.205   4.507   1.134
 6386TIP3   OH219102   6.974   4.929   2.911
 6386TIP3    H119103   6.886   4.941   2.947
 6386TIP3    H219104   7.021   4.879   2.977
 6387TIP3   OH219105   0.394   5.960   2.882
 6387TIP3    H119106   0.482   5.925   2.899
 6387TIP3    H219107   0.391   5.974   2.788
 6388TIP3   OH219108   1.966   6.897   4.894
 6388TIP3    H119109   1.907   6.934   4.961
 6388TIP3    H219110   2.029   6.846   4.944
 6389TIP3   OH219111   1.341   5.151   0.012
 6389TIP3    H119112   1.397   5.095  -0.042
 6389TIP3    H219113   1.388   5.234   0.017
 6390TIP3   OH219114   2.783   4.091   3.975
 6390TIP3    H119115   2.872   4.062   3.996
 6390TIP3    H219116   2.758   4.037   3.900
 6391TIP3   OH219117   8.310   7.232   1.123
 6391TIP3    H119118   8.223   7.204   1.095
 6391TIP3    H219119   8.320   7.320   1.089
 6392TIP3   OH219120   3.990   4.928   0.426
 6392TIP3    H119121   3.932   4.975   0.366
 6392TIP3    H219122   4.057   4.889   0.369
 6393TIP3   OH219123   3.971   7.453   5.731
 6393TIP3    H119124   3.933   7.372   5.765
 6393TIP3    H219125   4.019   7.490   5.805
 6394TIP3   OH219126   1.484   3.980   6.565
 6394TIP3    H119127   1.569   3.943   6.542
 6394TIP3    H219128   1.464   3.942   6.651
 6395TIP3   OH219129   4.108   4.156   0.960
 6395TIP3    H119130   4.179   4.112   0.912
 6395TIP3    H219131   4.103   4.243   0.921
 6396TIP3   OH219132   3.734   3.947   1.543
 6396TIP3    H119133   3.732   3.948   1.448
 6396TIP3    H219134   3.827   3.944   1.566
 6397TIP3   OH219135   4.706   5.734   0.068
 6397TIP3    H119136   4.732   5.703  -0.019
 6397TIP3    H219137   4.627   5.786   0.052
 6398TIP3   OH219138   0.541   5.111   5.395
 6398TIP3    H119139   0.590   5.043   5.441
 6398TIP3    H219140   0.459   5.120   5.444
 6399TIP3   OH219141   1.421   4.761   2.983
 6399TIP3    H119142   1.508   4.742   3.019
 6399TIP3    H219143   1.392   4.838   3.032
 6400TIP3   OH219144   2.163   3.431   4.692
 6400TIP3    H119145   2.076   3.414   4.729
 6400TIP3    H219146   2.222   3.378   4.746
 6401TIP3   OH219147   0.299   6.824   3.407
 6401TIP3    H119148   0.355   6.799   3.333
 6401TIP3    H219149   0.350   6.802   3.485
 6402TIP3   OH219150   3.828   2.184   4.032
 6402TIP3    H119151   3.769   2.134   4.088
 6402TIP3    H219152   3.881   2.237   4.092
 6403TIP3   OH219153   1.385   5.219   2.355
 6403TIP3    H119154   1.384   5.127   2.328
 6403TIP3    H219155   1.340   5.220   2.439
 6404TIP3   OH219156   7.575   6.428   1.486
 6404TIP3    H119157   7.607   6.342   1.512
 6404TIP3    H219158   7.480   6.420   1.486
 6405TIP3   OH219159   3.843   7.713   0.806
 6405TIP3    H119160   3.797   7.669   0.734
 6405TIP3    H219161   3.777   7.769   0.846
 6406TIP3   OH219162   8.189   5.853   3.808
 6406TIP3    H119163   8.234   5.937   3.804
 6406TIP3    H219164   8.230   5.808   3.882
 6407TIP3   OH219165   5.088   5.581   2.821
 6407TIP3    H119166   5.031   5.622   2.755
 6407TIP3    H219167   5.102   5.492   2.788
 6408TIP3   OH219168   3.424   0.546   5.053
 6408TIP3    H119169   3.468   0.628   5.030
 6408TIP3    H219170   3.472   0.514   5.129
 6409TIP3   OH219171   5.792   7.687   4.688
 6409TIP3    H119172   5.724   7.662   4.626
 6409TIP3    H219173   5.760   7.655   4.773
 6410TIP3   OH219174   5.363   5.165   3.419
 6410TIP3    H119175   5.401   5.099   3.360
 6410TIP3    H219176   5.281   5.190   3.377
 6411TIP3   OH219177   1.542   0.815   3.833
 6411TIP3    H119178   1.451   0.827   3.862
 6411TIP3    H219179   1.573   0.739   3.883
 6412TIP3   OH219180   1.967   4.143   2.339
 6412TIP3    H119181   2.059   4.162   2.321
 6412TIP3    H219182   1.964   4.048   2.347
 6413TIP3   OH219183   4.344   7.608   0.354
 6413TIP3    H119184   4.389   7.570   0.430
 6413TIP3    H219185   4.317   7.695   0.383
 6414TIP3   OH219186   6.100   5.358   5.119
 6414TIP3    H119187   6.017   5.388   5.157
 6414TIP3    H219188   6.113   5.414   5.043
 6415TIP3   OH219189   0.413   6.965   0.616
 6415TIP3    H119190   0.482   6.957   0.682
 6415TIP3    H219191   0.439   7.041   0.564
 6416TIP3   OH219192   0.923   6.207   2.031
 6416TIP3    H119193   0.987   6.274   2.055
 6416TIP3    H219194   0.848   6.256   1.997
 6417TIP3   OH219195   7.731   2.368   2.905
 6417TIP3    H119196   7.712   2.384   2.812
 6417TIP3    H219197   7.810   2.420   2.922
 6418TIP3   OH219198   1.713   3.264   3.352
 6418TIP3    H119199   1.662   3.192   3.390
 6418TIP3    H219200   1.725   3.326   3.424
 6419TIP3   OH219201   2.909   1.437   6.406
 6419TIP3    H119202   2.853   1.503   6.364
 6419TIP3    H219203   2.998   1.467   6.390
 6420TIP3   OH219204   3.862   3.113   1.600
 6420TIP3    H119205   3.920   3.039   1.621
 6420TIP3    H219206   3.918   3.190   1.606
 6421TIP3   OH219207   3.776   1.708   4.128
 6421TIP3    H119208   3.739   1.639   4.074
 6421TIP3    H219209   3.866   1.681   4.144
 6422TIP3   OH219210   4.505   0.688   4.517
 6422TIP3    H119211   4.446   0.726   4.582
 6422TIP3    H219212   4.466   0.711   4.433
 6423TIP3   OH219213   6.297   3.398   5.544
 6423TIP3    H119214   6.232   3.372   5.608
 6423TIP3    H219215   6.286   3.493   5.536
 6424TIP3   OH219216   3.176   4.857   6.413
 6424TIP3    H119217   3.204   4.930   6.359
 6424TIP3    H219218   3.118   4.805   6.357
 6425TIP3   OH219219   4.274   7.135   2.323
 6425TIP3    H119220   4.225   7.057   2.298
 6425TIP3    H219221   4.209   7.205   2.328
 6426TIP3   OH219222   0.718   3.579   1.277
 6426TIP3    H119223   0.688   3.624   1.198
 6426TIP3    H219224   0.652   3.512   1.292
 6427TIP3   OH219225   7.224   7.708   6.208
 6427TIP3    H119226   7.284   7.634   6.220
 6427TIP3    H219227   7.275   7.785   6.232
 6428TIP3   OH219228   3.444   5.569   2.704
 6428TIP3    H119229   3.442   5.494   2.763
 6428TIP3    H219230   3.484   5.536   2.624
 6429TIP3   OH219231   3.859   0.004   6.421
 6429TIP3    H119232   3.907   0.086   6.408
 6429TIP3    H219233   3.856  -0.006   6.516
 6430TIP3   OH219234   7.230   0.649   0.744
 6430TIP3    H119235   7.252   0.575   0.799
 6430TIP3    H219236   7.143   0.630   0.710
 6431TIP3   OH219237   1.132   6.301   3.572
 6431TIP3    H119238   1.107   6.298   3.479
 6431TIP3    H219239   1.227   6.304   3.571
 6432TIP3   OH219240   8.120   4.580   2.127
 6432TIP3    H119241   8.213   4.567   2.111
 6432TIP3    H219242   8.115   4.612   2.217
 6433TIP3   OH219243   4.548   0.786   1.500
 6433TIP3    H119244   4.579   0.783   1.409
 6433TIP3    H219245   4.554   0.878   1.524
 6434TIP3   OH219246   1.706   0.078   1.141
 6434TIP3    H119247   1.740   0.012   1.081
 6434TIP3    H219248   1.783   0.113   1.185
 6435TIP3   OH219249   0.819   3.075   5.457
 6435TIP3    H119250   0.750   3.009   5.459
 6435TIP3    H219251   0.799   3.129   5.381
 6436TIP3   OH219252   5.668   1.557   2.795
 6436TIP3    H119253   5.605   1.490   2.821
 6436TIP3    H219254   5.616   1.637   2.785
 6437TIP3   OH219255   1.330   2.969   4.600
 6437TIP3    H119256   1.246   2.923   4.607
 6437TIP3    H219257   1.322   3.022   4.521
 6438TIP3   OH219258   6.089   1.002   5.193
 6438TIP3    H119259   6.050   1.077   5.147
 6438TIP3    H219260   6.180   1.028   5.208
 6439TIP3   OH219261   4.207   3.447   6.081
 6439TIP3    H119262   4.281   3.467   6.139
 6439TIP3    H219263   4.225   3.498   6.002
 6440TIP3   OH219264   0.971   6.242   0.882
 6440TIP3    H119265   0.953   6.326   0.839
 6440TIP3    H219266   0.977   6.264   0.975
 6441TIP3   OH219267   2.066   0.422   1.700
 6441TIP3    H119268   2.069   0.447   1.608
 6441TIP3    H219269   1.981   0.453   1.731
 6442TIP3   OH219270   6.048   3.624   3.788
 6442TIP3    H119271   6.095   3.611   3.870
 6442TIP3    H219272   6.033   3.536   3.755
 6443TIP3   OH219273   5.341   5.267   4.555
 6443TIP3    H119274   5.376   5.347   4.594
 6443TIP3    H219275   5.343   5.283   4.461
 6444TIP3   OH219276   7.779   6.904   1.328
 6444TIP3    H119277   7.781   6.916   1.233
 6444TIP3    H219278   7.689   6.874   1.346
 6445TIP3   OH219279   1.679   1.523   2.218
 6445TIP3    H119280   1.739   1.455   2.187
 6445TIP3    H219281   1.596   1.477   2.233
 6446TIP3   OH219282   6.310   7.385   2.035
 6446TIP3    H119283   6.247   7.325   1.996
 6446TIP3    H219284   6.306   7.463   1.980
 6447TIP3   OH219285   7.588   7.611   4.665
 6447TIP3    H119286   7.628   7.696   4.652
 6447TIP3    H219287   7.592   7.569   4.579
 6448TIP3   OH219288   8.204   5.152   2.026
 6448TIP3    H119289   8.174   5.234   2.067
 6448TIP3    H219290   8.198   5.169   1.932
 6449TIP3   OH219291   7.797   7.273   1.326
 6449TIP3    H119292   7.799   7.215   1.250
 6449TIP3    H219293   7.770   7.358   1.291
 6450TIP3   OH219294   8.011   7.723   3.565
 6450TIP3    H119295   7.934   7.738   3.621
 6450TIP3    H219296   7.993   7.639   3.522
 6451TIP3   OH219297   6.133   2.511   2.509
 6451TIP3    H119298   6.111   2.577   2.575
 6451TIP3    H219299   6.091   2.543   2.429
 6452TIP3   OH219300   6.381   0.790   1.096
 6452TIP3    H119301   6.462   0.744   1.075
 6452TIP3    H219302   6.333   0.793   1.013
 6453TIP3   OH219303   1.982   0.904   2.130
 6453TIP3    H119304   2.075   0.894   2.108
 6453TIP3    H219305   1.949   0.968   2.067
 6454TIP3   OH219306   0.884   7.533   0.485
 6454TIP3    H119307   0.825   7.572   0.549
 6454TIP3    H219308   0.856   7.441   0.479
 6455TIP3   OH219309   1.917   3.645   6.018
 6455TIP3    H119310   1.961   3.727   5.995
 6455TIP3    H219311   1.844   3.672   6.074
 6456TIP3   OH219312   4.189   0.953   6.039
 6456TIP3    H119313   4.267   0.971   6.091
 6456TIP3    H219314   4.158   1.040   6.012
 6457TIP3   OH219315   6.485   4.556   6.175
 6457TIP3    H119316   6.542   4.491   6.218
 6457TIP3    H219317   6.469   4.622   6.243
 6458TIP3   OH219318   4.726   2.080   3.602
 6458TIP3    H119319   4.788   2.084   3.529
 6458TIP3    H219320   4.689   2.168   3.605
 6459TIP3   OH219321   2.825   3.013   0.391
 6459TIP3    H119322   2.881   3.083   0.425
 6459TIP3    H219323   2.798   3.044   0.305
 6460TIP3   OH219324   1.187   3.333   4.856
 6460TIP3    H119325   1.244   3.256   4.845
 6460TIP3    H219326   1.245   3.408   4.846
 6461TIP3   OH219327   7.080   4.560   0.562
 6461TIP3    H119328   7.130   4.559   0.480
 6461TIP3    H219329   7.129   4.503   0.621
 6462TIP3   OH219330   2.291   0.909   1.651
 6462TIP3    H119331   2.220   0.930   1.590
 6462TIP3    H219332   2.266   0.826   1.690
 6463TIP3   OH219333   1.495   1.738   0.082
 6463TIP3    H119334   1.427   1.799   0.053
 6463TIP3    H219335   1.542   1.786   0.151
 6464TIP3   OH219336   3.758   1.012   5.856
 6464TIP3    H119337   3.810   0.965   5.791
 6464TIP3    H219338   3.776   0.968   5.939
 6465TIP3   OH219339   1.413   6.557   1.499
 6465TIP3    H119340   1.450   6.473   1.472
 6465TIP3    H219341   1.363   6.538   1.578
 6466TIP3   OH219342   2.302   2.551   6.491
 6466TIP3    H119343   2.327   2.498   6.415
 6466TIP3    H219344   2.338   2.503   6.566
 6467TIP3   OH219345   1.196   6.502   6.584
 6467TIP3    H119346   1.253   6.437   6.544
 6467TIP3    H219347   1.255   6.572   6.613
 6468TIP3   OH219348   5.808   5.581   3.773
 6468TIP3    H119349   5.902   5.593   3.756
 6468TIP3    H219350   5.768   5.661   3.738
 6469TIP3   OH219351   6.210   5.762   2.491
 6469TIP3    H119352   6.154   5.769   2.414
 6469TIP3    H219353   6.218   5.851   2.523
 6470TIP3   OH219354   2.561   2.304   4.660
 6470TIP3    H119355   2.567   2.335   4.751
 6470TIP3    H219356   2.472   2.267   4.654
 6471TIP3   OH219357   2.299   1.916   3.560
 6471TIP3    H119358   2.249   1.947   3.484
 6471TIP3    H219359   2.373   1.869   3.522
 6472TIP3   OH219360   0.888   0.885   5.171
 6472TIP3    H119361   0.839   0.808   5.199
 6472TIP3    H219362   0.963   0.889   5.231
 6473TIP3   OH219363   7.915   6.185   2.678
 6473TIP3    H119364   7.913   6.199   2.583
 6473TIP3    H219365   7.870   6.102   2.691
 6474TIP3   OH219366   5.029   4.714   6.046
 6474TIP3    H119367   5.017   4.647   6.114
 6474TIP3    H219368   5.046   4.794   6.095
 6475TIP3   OH219369   4.683   3.986   1.344
 6475TIP3    H119370   4.749   4.011   1.409
 6475TIP3    H219371   4.671   3.892   1.357
 6476TIP3   OH219372   1.830   1.769   6.357
 6476TIP3    H119373   1.840   1.771   6.261
 6476TIP3    H219374   1.832   1.676   6.379
 6477TIP3   OH219375   7.662   6.473   1.792
 6477TIP3    H119376   7.694   6.422   1.867
 6477TIP3    H219377   7.569   6.488   1.811
 6478TIP3   OH219378   7.420   5.977   4.419
 6478TIP3    H119379   7.437   5.886   4.394
 6478TIP3    H219380   7.482   6.027   4.366
 6479TIP3   OH219381   2.530   6.287   6.151
 6479TIP3    H119382   2.439   6.260   6.165
 6479TIP3    H219383   2.580   6.205   6.157
 6480TIP3   OH219384   2.312   3.023   2.099
 6480TIP3    H119385   2.348   3.061   2.179
 6480TIP3    H219386   2.343   3.080   2.029
 6481TIP3   OH219387   4.450   2.485   0.864
 6481TIP3    H119388   4.526   2.463   0.811
 6481TIP3    H219389   4.412   2.561   0.820
 6482TIP3   OH219390   2.322   7.738   3.275
 6482TIP3    H119391   2.387   7.699   3.333
 6482TIP3    H219392   2.370   7.808   3.230
 6483TIP3   OH219393   1.964   4.529   1.918
 6483TIP3    H119394   1.982   4.546   2.011
 6483TIP3    H219395   2.018   4.593   1.871
 6484TIP3   OH219396   0.360   4.036   2.744
 6484TIP3    H119397   0.280   4.053   2.793
 6484TIP3    H219398   0.350   4.086   2.663
 6485TIP3   OH219399   5.706   5.115   3.545
 6485TIP3    H119400   5.719   5.118   3.450
 6485TIP3    H219401   5.709   5.207   3.573
 6486TIP3   OH219402   4.534   4.074   0.685
 6486TIP3    H119403   4.591   4.039   0.754
 6486TIP3    H219404   4.585   4.063   0.605
 6487TIP3   OH219405   5.784   2.711   0.145
 6487TIP3    H119406   5.756   2.780   0.206
 6487TIP3    H219407   5.745   2.631   0.180
 6488TIP3   OH219408   5.832   7.037   0.355
 6488TIP3    H119409   5.764   7.061   0.418
 6488TIP3    H219410   5.786   6.989   0.286
 6489TIP3   OH219411   7.105   6.841   0.483
 6489TIP3    H119412   7.199   6.824   0.494
 6489TIP3    H219413   7.073   6.768   0.431
 6490TIP3   OH219414   4.312   4.021   6.412
 6490TIP3    H119415   4.398   4.049   6.383
 6490TIP3    H219416   4.320   4.012   6.507
 6491TIP3   OH219417   2.626   3.480   6.317
 6491TIP3    H119418   2.683   3.412   6.353
 6491TIP3    H219419   2.635   3.553   6.378
 6492TIP3   OH219420   4.006   5.458   0.211
 6492TIP3    H119421   4.086   5.488   0.255
 6492TIP3    H219422   3.977   5.533   0.160
 6493TIP3   OH219423   3.236   7.393   6.760
 6493TIP3    H119424   3.287   7.474   6.752
 6493TIP3    H219425   3.275   7.347   6.834
 6494TIP3   OH219426   5.826   4.028   3.086
 6494TIP3    H119427   5.909   4.075   3.081
 6494TIP3    H219428   5.848   3.938   3.064
 6495TIP3   OH219429   2.346   2.472   2.974
 6495TIP3    H119430   2.352   2.395   2.918
 6495TIP3    H219431   2.405   2.536   2.934
 6496TIP3   OH219432   4.092   5.440   1.330
 6496TIP3    H119433   4.005   5.429   1.294
 6496TIP3    H219434   4.125   5.521   1.291
 6497TIP3   OH219435   0.504  -0.020   6.387
 6497TIP3    H119436   0.511   0.075   6.375
 6497TIP3    H219437   0.441  -0.047   6.320
 6498TIP3   OH219438   4.249   2.949   4.991
 6498TIP3    H119439   4.167   2.934   4.944
 6498TIP3    H219440   4.227   2.931   5.082
 6499TIP3   OH219441   0.386   4.007   5.632
 6499TIP3    H119442   0.411   4.006   5.539
 6499TIP3    H219443   0.325   3.934   5.642
 6500TIP3   OH219444   6.255   6.156   2.067
 6500TIP3    H119445   6.296   6.150   1.981
 6500TIP3    H219446   6.321   6.198   2.122
 6501TIP3   OH219447   4.685   5.141   4.348
 6501TIP3    H119448   4.759   5.084   4.372
 6501TIP3    H219449   4.703   5.223   4.393
 6502TIP3   OH219450   1.035   0.671   6.143
 6502TIP3    H119451   0.987   0.733   6.088
 6502TIP3    H219452   0.997   0.682   6.230
 6503TIP3   OH219453   1.199   7.130   6.641
 6503TIP3    H119454   1.115   7.102   6.604
 6503TIP3    H219455   1.246   7.167   6.566
 6504TIP3   OH219456   4.091   4.291   4.649
 6504TIP3    H119457   4.093   4.237   4.728
 6504TIP3    H219458   4.058   4.376   4.679
 6505TIP3   OH219459   4.395   4.312   0.646
 6505TIP3    H119460   4.448   4.233   0.637
 6505TIP3    H219461   4.377   4.340   0.556
 6506TIP3   OH219462   1.256   0.581   3.903
 6506TIP3    H119463   1.163   0.562   3.903
 6506TIP3    H219464   1.291   0.532   3.829
 6507TIP3   OH219465   7.608   2.267   0.076
 6507TIP3    H119466   7.544   2.213   0.122
 6507TIP3    H219467   7.563   2.294  -0.004
 6508TIP3   OH219468   2.176   5.884   4.179
 6508TIP3    H119469   2.132   5.869   4.263
 6508TIP3    H219470   2.151   5.972   4.154
 6509TIP3   OH219471   4.681   0.590   5.740
 6509TIP3    H119472   4.685   0.518   5.802
 6509TIP3    H219473   4.769   0.628   5.740
 6510TIP3   OH219474   5.283   0.227   5.059
 6510TIP3    H119475   5.378   0.222   5.046
 6510TIP3    H219476   5.261   0.318   5.040
 6511TIP3   OH219477   1.613   7.772   3.577
 6511TIP3    H119478   1.670   7.820   3.517
 6511TIP3    H219479   1.671   7.711   3.622
 6512TIP3   OH219480   5.951   4.275   3.469
 6512TIP3    H119481   5.964   4.197   3.523
 6512TIP3    H219482   6.039   4.312   3.458
 6513TIP3   OH219483   4.360   4.345   2.967
 6513TIP3    H119484   4.427   4.353   2.899
 6513TIP3    H219485   4.340   4.252   2.970
 6514TIP3   OH219486   2.012   2.403   2.650
 6514TIP3    H119487   1.969   2.440   2.727
 6514TIP3    H219488   2.105   2.423   2.663
 6515TIP3   OH219489   8.273   1.120   0.890
 6515TIP3    H119490   8.232   1.080   0.813
 6515TIP3    H219491   8.255   1.214   0.882
 6516TIP3   OH219492   4.894   0.780   1.339
 6516TIP3    H119493   4.816   0.742   1.299
 6516TIP3    H219494   4.925   0.843   1.274
 6517TIP3   OH219495   0.999   1.464   4.204
 6517TIP3    H119496   0.903   1.468   4.209
 6517TIP3    H219497   1.028   1.506   4.285
 6518TIP3   OH219498   3.586   0.079   1.325
 6518TIP3    H119499   3.570   0.126   1.406
 6518TIP3    H219500   3.630  -0.002   1.352
 6519TIP3   OH219501   7.103   7.017   3.164
 6519TIP3    H119502   7.101   7.091   3.103
 6519TIP3    H219503   7.130   6.943   3.111
 6520TIP3   OH219504   0.157   1.295   5.290
 6520TIP3    H119505   0.249   1.277   5.269
 6520TIP3    H219506   0.135   1.230   5.357
 6521TIP3   OH219507   7.036   2.315   2.851
 6521TIP3    H119508   7.013   2.388   2.793
 6521TIP3    H219509   6.990   2.240   2.814
 6522TIP3   OH219510   5.328   7.347   0.788
 6522TIP3    H119511   5.237   7.341   0.757
 6522TIP3    H219512   5.320   7.366   0.881
 6523TIP3   OH219513   3.432   3.475   1.784
 6523TIP3    H119514   3.429   3.381   1.764
 6523TIP3    H219515   3.484   3.513   1.714
 6524TIP3   OH219516   8.115   1.941   2.158
 6524TIP3    H119517   8.192   1.994   2.138
 6524TIP3    H219518   8.064   1.941   2.077
 6525TIP3   OH219519   5.320   4.514   5.106
 6525TIP3    H119520   5.401   4.551   5.139
 6525TIP3    H219521   5.340   4.422   5.089
 6526TIP3   OH219522   1.911   4.381   1.300
 6526TIP3    H119523   1.939   4.291   1.288
 6526TIP3    H219524   1.847   4.396   1.230
 6527TIP3   OH219525   7.609   1.255   3.376
 6527TIP3    H119526   7.529   1.221   3.415
 6527TIP3    H219527   7.669   1.180   3.375
 6528TIP3   OH219528   6.573   5.604   5.709
 6528TIP3    H119529   6.569   5.537   5.641
 6528TIP3    H219530   6.631   5.566   5.776
 6529TIP3   OH219531   4.814   2.775   2.811
 6529TIP3    H119532   4.832   2.757   2.903
 6529TIP3    H219533   4.807   2.689   2.770
 6530TIP3   OH219534   7.234   3.732   4.486
 6530TIP3    H119535   7.175   3.658   4.472
 6530TIP3    H219536   7.184   3.809   4.458
 6531TIP3   OH219537   6.688   3.751   0.406
 6531TIP3    H119538   6.681   3.659   0.431
 6531TIP3    H219539   6.716   3.749   0.315
 6532TIP3   OH219540   0.789   0.739   2.528
 6532TIP3    H119541   0.841   0.805   2.481
 6532TIP3    H219542   0.773   0.778   2.614
 6533TIP3   OH219543   6.842   5.968   6.183
 6533TIP3    H119544   6.821   6.051   6.227
 6533TIP3    H219545   6.790   5.969   6.103
 6534TIP3   OH219546   6.954   1.850   1.816
 6534TIP3    H119547   6.999   1.874   1.897
 6534TIP3    H219548   6.900   1.775   1.840
 6535TIP3   OH219549   1.160   2.407   3.465
 6535TIP3    H119550   1.069   2.422   3.441
 6535TIP3    H219551   1.158   2.332   3.524
 6536TIP3   OH219552   5.512   1.736   6.680
 6536TIP3    H119553   5.552   1.683   6.611
 6536TIP3    H219554   5.431   1.689   6.702
 6537TIP3   OH219555   3.595   1.230   1.375
 6537TIP3    H119556   3.625   1.175   1.303
 6537TIP3    H219557   3.500   1.232   1.366
 6538TIP3   OH219558   7.481   2.390   5.702
 6538TIP3    H119559   7.453   2.424   5.617
 6538TIP3    H219560   7.543   2.454   5.735
 6539TIP3   OH219561   2.899   3.628   3.636
 6539TIP3    H119562   2.955   3.668   3.703
 6539TIP3    H219563   2.929   3.668   3.554
 6540TIP3   OH219564   1.955   6.656   6.251
 6540TIP3    H119565   1.881   6.717   6.252
 6540TIP3    H219566   2.022   6.701   6.199
 6541TIP3   OH219567   5.989   5.359   0.142
 6541TIP3    H119568   6.059   5.403   0.093
 6541TIP3    H219569   5.975   5.414   0.219
 6542TIP3   OH219570   6.460   7.193   2.122
 6542TIP3    H119571   6.426   7.193   2.212
 6542TIP3    H219572   6.410   7.262   2.078
 6543TIP3   OH219573   0.424   2.979   0.490
 6543TIP3    H119574   0.453   2.897   0.451
 6543TIP3    H219575   0.386   3.028   0.417
 6544TIP3   OH219576   6.113   4.951   4.327
 6544TIP3    H119577   6.180   4.885   4.309
 6544TIP3    H219578   6.042   4.929   4.267
 6545TIP3   OH219579   2.403   5.002   5.558
 6545TIP3    H119580   2.483   5.027   5.604
 6545TIP3    H219581   2.416   4.911   5.533
 6546TIP3   OH219582   0.753   0.901   3.230
 6546TIP3    H119583   0.736   0.911   3.324
 6546TIP3    H219584   0.843   0.870   3.225
 6547TIP3   OH219585   3.889   1.206   5.600
 6547TIP3    H119586   3.820   1.247   5.547
 6547TIP3    H219587   3.884   1.252   5.684
 6548TIP3   OH219588   2.134   7.028   4.576
 6548TIP3    H119589   2.116   7.060   4.664
 6548TIP3    H219590   2.190   7.096   4.537
 6549TIP3   OH219591   4.161   6.746   6.578
 6549TIP3    H119592   4.098   6.722   6.646
 6549TIP3    H219593   4.147   6.681   6.508
 6550TIP3   OH219594   1.538   4.918   2.133
 6550TIP3    H119595   1.488   4.894   2.211
 6550TIP3    H219596   1.481   4.894   2.060
 6551TIP3   OH219597   3.958   0.039   5.717
 6551TIP3    H119598   3.870   0.002   5.721
 6551TIP3    H219599   3.946   0.132   5.737
 6552TIP3   OH219600   5.238   3.352   1.233
 6552TIP3    H119601   5.258   3.314   1.318
 6552TIP3    H219602   5.305   3.418   1.220
 6553TIP3   OH219603   0.938   2.876   0.311
 6553TIP3    H119604   1.015   2.864   0.368
 6553TIP3    H219605   0.975   2.893   0.225
 6554TIP3   OH219606   4.098   2.579   5.246
 6554TIP3    H119607   4.157   2.641   5.204
 6554TIP3    H219608   4.148   2.545   5.320
 6555TIP3   OH219609   0.201   7.565   3.636
 6555TIP3    H119610   0.226   7.500   3.569
 6555TIP3    H219611   0.121   7.530   3.674
 6556TIP3   OH219612   0.331   1.417   5.814
 6556TIP3    H119613   0.408   1.398   5.867
 6556TIP3    H219614   0.300   1.502   5.846
 6557TIP3   OH219615   8.240   1.488   0.556
 6557TIP3    H119616   8.265   1.531   0.474
 6557TIP3    H219617   8.215   1.399   0.530
 6558TIP3   OH219618   6.507   3.122   4.341
 6558TIP3    H119619   6.470   3.183   4.405
 6558TIP3    H219620   6.598   3.152   4.330
 6559TIP3   OH219621   6.784   5.295   6.107
 6559TIP3    H119622   6.729   5.218   6.095
 6559TIP3    H219623   6.734   5.351   6.168
 6560TIP3   OH219624   4.093   7.363   0.222
 6560TIP3    H119625   4.065   7.415   0.147
 6560TIP3    H219626   4.174   7.322   0.194
 6561TIP3   OH219627   6.064   2.194   3.679
 6561TIP3    H119628   6.123   2.175   3.752
 6561TIP3    H219629   6.091   2.281   3.650
 6562TIP3   OH219630   4.042   6.938   2.663
 6562TIP3    H119631   4.086   6.870   2.715
 6562TIP3    H219632   4.048   7.017   2.717
 6563TIP3   OH219633   6.503   1.884   5.496
 6563TIP3    H119634   6.473   1.877   5.586
 6563TIP3    H219635   6.463   1.964   5.463
 6564TIP3   OH219636   3.648   7.304   3.756
 6564TIP3    H119637   3.719   7.262   3.708
 6564TIP3    H219638   3.577   7.239   3.756
 6565TIP3   OH219639   3.082   1.865   3.466
 6565TIP3    H119640   3.122   1.910   3.540
 6565TIP3    H219641   3.035   1.934   3.418
 6566TIP3   OH219642   7.783   6.016   5.349
 6566TIP3    H119643   7.740   6.083   5.295
 6566TIP3    H219644   7.820   5.955   5.286
 6567TIP3   OH219645   1.457   3.130   3.787
 6567TIP3    H119646   1.447   3.044   3.828
 6567TIP3    H219647   1.418   3.121   3.700
 6568TIP3   OH219648   5.578   0.784   1.248
 6568TIP3    H119649   5.648   0.807   1.309
 6568TIP3    H219650   5.498   0.812   1.292
 6569TIP3   OH219651   1.540   6.713   3.091
 6569TIP3    H119652   1.583   6.690   3.174
 6569TIP3    H219653   1.492   6.794   3.111
 6570TIP3   OH219654   5.429   1.835   2.304
 6570TIP3    H119655   5.445   1.745   2.276
 6570TIP3    H219656   5.348   1.830   2.355
 6571TIP3   OH219657   6.970   0.315   0.673
 6571TIP3    H119658   7.025   0.353   0.605
 6571TIP3    H219659   6.881   0.340   0.649
 6572TIP3   OH219660   4.795   2.836   0.920
 6572TIP3    H119661   4.794   2.770   0.851
 6572TIP3    H219662   4.755   2.793   0.995
 6573TIP3   OH219663   7.597   6.912   1.692
 6573TIP3    H119664   7.596   6.974   1.618
 6573TIP3    H219665   7.533   6.948   1.753
 6574TIP3   OH219666   2.225   6.180   1.094
 6574TIP3    H119667   2.208   6.167   1.001
 6574TIP3    H219668   2.252   6.272   1.101
 6575TIP3   OH219669   5.868   1.865   0.020
 6575TIP3    H119670   5.827   1.780   0.007
 6575TIP3    H219671   5.824   1.923  -0.043
 6576TIP3   OH219672   2.025   3.127   3.915
 6576TIP3    H119673   2.120   3.132   3.924
 6576TIP3    H219674   1.995   3.093   3.999
 6577TIP3   OH219675   1.711   2.001   6.750
 6577TIP3    H119676   1.668   2.085   6.736
 6577TIP3    H219677   1.648   1.936   6.718
 6578TIP3   OH219678   2.877   3.766   2.337
 6578TIP3    H119679   2.888   3.685   2.387
 6578TIP3    H219680   2.907   3.835   2.396
 6579TIP3   OH219681   8.018   1.448   5.720
 6579TIP3    H119682   7.957   1.443   5.646
 6579TIP3    H219683   8.011   1.538   5.751
 6580TIP3   OH219684   5.918   1.439   0.387
 6580TIP3    H119685   5.890   1.489   0.310
 6580TIP3    H219686   6.009   1.467   0.401
 6581TIP3   OH219687   7.317   4.928   0.651
 6581TIP3    H119688   7.243   4.918   0.591
 6581TIP3    H219689   7.326   5.022   0.663
 6582TIP3   OH219690   6.113   4.240   0.379
 6582TIP3    H119691   6.094   4.334   0.378
 6582TIP3    H219692   6.159   4.226   0.462
 6583TIP3   OH219693   1.328   7.371   0.287
 6583TIP3    H119694   1.413   7.413   0.302
 6583TIP3    H219695   1.269   7.414   0.350
 6584TIP3   OH219696   2.295   0.192   5.218
 6584TIP3    H119697   2.306   0.098   5.203
 6584TIP3    H219698   2.304   0.231   5.131
 6585TIP3   OH219699   7.367   7.416   0.219
 6585TIP3    H119700   7.328   7.495   0.255
 6585TIP3    H219701   7.399   7.368   0.295
 6586TIP3   OH219702   5.747   3.242   3.258
 6586TIP3    H119703   5.823   3.184   3.256
 6586TIP3    H219704   5.757   3.292   3.339
 6587TIP3   OH219705   5.883   4.697   1.552
 6587TIP3    H119706   5.925   4.651   1.479
 6587TIP3    H219707   5.875   4.631   1.621
 6588TIP3   OH219708   2.383   4.700   1.413
 6588TIP3    H119709   2.353   4.609   1.410
 6588TIP3    H219710   2.431   4.712   1.332
 6589TIP3   OH219711   2.626   3.576   4.945
 6589TIP3    H119712   2.565   3.518   4.990
 6589TIP3    H219713   2.690   3.600   5.011
 6590TIP3   OH219714   1.487   4.136   5.407
 6590TIP3    H119715   1.464   4.063   5.465
 6590TIP3    H219716   1.474   4.102   5.319
 6591TIP3   OH219717   2.642   7.175   5.085
 6591TIP3    H119718   2.563   7.138   5.046
 6591TIP3    H219719   2.656   7.257   5.037
 6592TIP3   OH219720   1.171   7.004   2.210
 6592TIP3    H119721   1.194   6.917   2.242
 6592TIP3    H219722   1.088   6.991   2.164
 6593TIP3   OH219723   3.870   2.902   4.622
 6593TIP3    H119724   3.800   2.925   4.684
 6593TIP3    H219725   3.823   2.872   4.544
 6594TIP3   OH219726   6.214   7.796   3.756
 6594TIP3    H119727   6.137   7.835   3.797
 6594TIP3    H219728   6.181   7.719   3.710
 6595TIP3   OH219729   4.358   0.137   2.065
 6595TIP3    H119730   4.287   0.073   2.068
 6595TIP3    H219731   4.416   0.106   1.995
 6596TIP3   OH219732   5.254   1.957   1.811
 6596TIP3    H119733   5.193   1.897   1.854
 6596TIP3    H219734   5.299   2.002   1.883
 6597TIP3   OH219735   4.252   0.374   5.767
 6597TIP3    H119736   4.324   0.411   5.818
 6597TIP3    H219737   4.256   0.280   5.784
 6598TIP3   OH219738   7.454   0.311   2.449
 6598TIP3    H119739   7.419   0.381   2.393
 6598TIP3    H219740   7.548   0.330   2.455
 6599TIP3   OH219741   1.454   5.734   5.337
 6599TIP3    H119742   1.494   5.764   5.256
 6599TIP3    H219743   1.413   5.650   5.314
 6600TIP3   OH219744   1.431   1.967   0.677
 6600TIP3    H119745   1.423   1.932   0.588
 6600TIP3    H219746   1.492   2.040   0.669
 6601TIP3   OH219747   5.186   5.340   3.870
 6601TIP3    H119748   5.142   5.328   3.786
 6601TIP3    H219749   5.190   5.252   3.908
 6602TIP3   OH219750   8.224   5.524   5.902
 6602TIP3    H119751   8.163   5.450   5.911
 6602TIP3    H219752   8.178   5.598   5.942
 6603TIP3   OH219753   1.523   0.265   0.248
 6603TIP3    H119754   1.526   0.270   0.153
 6603TIP3    H219755   1.440   0.307   0.271
 6604TIP3   OH219756   7.159   1.690   4.252
 6604TIP3    H119757   7.101   1.738   4.193
 6604TIP3    H219758   7.113   1.609   4.270
 6605TIP3   OH219759   6.758   2.430   1.166
 6605TIP3    H119760   6.849   2.420   1.139
 6605TIP3    H219761   6.762   2.433   1.262
 6606TIP3   OH219762   7.876   6.036   3.607
 6606TIP3    H119763   7.932   5.965   3.574
 6606TIP3    H219764   7.900   6.045   3.699
 6607TIP3   OH219765   2.264   2.637   3.844
 6607TIP3    H119766   2.303   2.584   3.774
 6607TIP3    H219767   2.233   2.573   3.908
 6608TIP3   OH219768   3.936   1.173   1.769
 6608TIP3    H119769   3.867   1.137   1.713
 6608TIP3    H219770   3.994   1.219   1.708
 6609TIP3   OH219771   6.613   4.763   5.725
 6609TIP3    H119772   6.686   4.776   5.786
 6609TIP3    H219773   6.629   4.827   5.655
 6610TIP3   OH219774   2.069   2.519   2.122
 6610TIP3    H119775   2.022   2.487   2.045
 6610TIP3    H219776   2.087   2.611   2.102
 6611TIP3   OH219777   1.850   6.399   6.257
 6611TIP3    H119778   1.879   6.489   6.268
 6611TIP3    H219779   1.833   6.390   6.163
 6612TIP3   OH219780   6.883   3.599   3.749
 6612TIP3    H119781   6.967   3.602   3.795
 6612TIP3    H219782   6.839   3.680   3.774
 6613TIP3   OH219783   6.769   4.530   0.350
 6613TIP3    H119784   6.675   4.544   0.338
 6613TIP3    H219785   6.777   4.436   0.369
 6614TIP3   OH219786   2.677   6.844   3.031
 6614TIP3    H119787   2.730   6.918   3.003
 6614TIP3    H219788   2.724   6.767   3.000
 6615TIP3   OH219789   1.170   7.527   5.973
 6615TIP3    H119790   1.164   7.590   6.045
 6615TIP3    H219791   1.105   7.558   5.909
 6616TIP3   OH219792   7.281   0.184   4.417
 6616TIP3    H119793   7.230   0.247   4.468
 6616TIP3    H219794   7.217   0.141   4.360
 6617TIP3   OH219795   3.411   2.882   1.303
 6617TIP3    H119796   3.493   2.930   1.293
 6617TIP3    H219797   3.364   2.896   1.221
 6618TIP3   OH219798   6.139   3.081   5.977
 6618TIP3    H119799   6.216   3.050   5.931
 6618TIP3    H219800   6.070   3.084   5.911
 6619TIP3   OH219801   0.683   4.806   5.084
 6619TIP3    H119802   0.767   4.842   5.112
 6619TIP3    H219803   0.652   4.756   5.160
 6620TIP3   OH219804   4.471   4.845   1.348
 6620TIP3    H119805   4.409   4.772   1.341
 6620TIP3    H219806   4.547   4.816   1.297
 6621TIP3   OH219807   4.741   6.364   0.998
 6621TIP3    H119808   4.748   6.302   1.070
 6621TIP3    H219809   4.799   6.328   0.931
 6622TIP3   OH219810   0.132   6.544   5.325
 6622TIP3    H119811   0.047   6.545   5.368
 6622TIP3    H219812   0.134   6.460   5.278
 6623TIP3   OH219813   8.000   4.428   6.039
 6623TIP3    H119814   8.026   4.405   6.129
 6623TIP3    H219815   8.079   4.465   6.001
 6624TIP3   OH219816   7.016   2.354   2.276
 6624TIP3    H119817   7.060   2.434   2.303
 6624TIP3    H219818   6.942   2.383   2.222
 6625TIP3   OH219819   6.577   4.390   0.795
 6625TIP3    H119820   6.581   4.485   0.780
 6625TIP3    H219821   6.647   4.373   0.857
 6626TIP3   OH219822   4.357   2.507   1.946
 6626TIP3    H119823   4.303   2.546   1.878
 6626TIP3    H219824   4.304   2.514   2.026
 6627TIP3   OH219825   5.354   5.990   0.626
 6627TIP3    H119826   5.329   5.985   0.534
 6627TIP3    H219827   5.424   5.926   0.636
 6628TIP3   OH219828   6.693   2.855   0.824
 6628TIP3    H119829   6.789   2.850   0.828
 6628TIP3    H219830   6.667   2.769   0.789
 6629TIP3   OH219831   5.728   4.320   5.670
 6629TIP3    H119832   5.725   4.333   5.575
 6629TIP3    H219833   5.663   4.381   5.705
 6630TIP3   OH219834   3.253   7.652   2.036
 6630TIP3    H119835   3.271   7.596   1.960
 6630TIP3    H219836   3.181   7.708   2.008
 6631TIP3   OH219837   7.289   4.073   1.980
 6631TIP3    H119838   7.197   4.079   2.006
 6631TIP3    H219839   7.337   4.109   2.055
 6632TIP3   OH219840   3.101   1.610   2.297
 6632TIP3    H119841   3.014   1.586   2.266
 6632TIP3    H219842   3.153   1.530   2.287
 6633TIP3   OH219843   2.539   1.470   0.328
 6633TIP3    H119844   2.460   1.516   0.355
 6633TIP3    H219845   2.529   1.382   0.364
 6634TIP3   OH219846   0.164   1.405   2.449
 6634TIP3    H119847   0.091   1.376   2.394
 6634TIP3    H219848   0.242   1.391   2.395
 6635TIP3   OH219849   5.943   7.707   3.475
 6635TIP3    H119850   6.016   7.647   3.487
 6635TIP3    H219851   5.914   7.693   3.385
 6636TIP3   OH219852   1.751   7.347   6.187
 6636TIP3    H119853   1.803   7.330   6.108
 6636TIP3    H219854   1.758   7.267   6.239
 6637TIP3   OH219855   1.790   4.386   1.762
 6637TIP3    H119856   1.852   4.438   1.813
 6637TIP3    H219857   1.763   4.444   1.690
 6638TIP3   OH219858   2.093   5.421   5.743
 6638TIP3    H119859   2.135   5.351   5.692
 6638TIP3    H219860   2.157   5.492   5.742
 6639TIP3   OH219861   3.744   3.269   0.671
 6639TIP3    H119862   3.650   3.266   0.652
 6639TIP3    H219863   3.777   3.185   0.640
 6640TIP3   OH219864   0.021   3.852   6.321
 6640TIP3    H119865  -0.041   3.802   6.268
 6640TIP3    H219866  -0.004   3.943   6.306
 6641TIP3   OH219867   7.576   2.801   6.720
 6641TIP3    H119868   7.625   2.825   6.799
 6641TIP3    H219869   7.631   2.831   6.647
 6642TIP3   OH219870   6.404   1.330   0.210
 6642TIP3    H119871   6.407   1.289   0.123
 6642TIP3    H219872   6.377   1.259   0.269
 6643TIP3   OH219873   2.712   0.488   0.834
 6643TIP3    H119874   2.718   0.399   0.801
 6643TIP3    H219875   2.643   0.529   0.781
 6644TIP3   OH219876   3.709   0.851   5.411
 6644TIP3    H119877   3.785   0.907   5.428
 6644TIP3    H219878   3.641   0.887   5.469
 6645TIP3   OH219879   1.065   4.445   1.983
 6645TIP3    H119880   0.991   4.401   1.942
 6645TIP3    H219881   1.113   4.375   2.027
 6646TIP3   OH219882   4.164   6.075   6.218
 6646TIP3    H119883   4.220   6.002   6.244
 6646TIP3    H219884   4.146   6.060   6.125
 6647TIP3   OH219885   6.016   2.737   5.712
 6647TIP3    H119886   6.055   2.751   5.799
 6647TIP3    H219887   6.080   2.774   5.651
 6648TIP3   OH219888   0.479   1.210   3.796
 6648TIP3    H119889   0.530   1.264   3.855
 6648TIP3    H219890   0.388   1.226   3.822
 6649TIP3   OH219891   0.088   3.041   6.186
 6649TIP3    H119892   0.080   3.124   6.232
 6649TIP3    H219893   0.038   2.979   6.239
 6650TIP3   OH219894   5.925   2.334  -0.024
 6650TIP3    H119895   5.980   2.376   0.043
 6650TIP3    H219896   5.952   2.243  -0.023
 6651TIP3   OH219897   2.708   6.881   1.560
 6651TIP3    H119898   2.725   6.876   1.654
 6651TIP3    H219899   2.793   6.864   1.519
 6652TIP3   OH219900   1.163   4.849   6.155
 6652TIP3    H119901   1.178   4.940   6.180
 6652TIP3    H219902   1.241   4.825   6.105
 6653TIP3   OH219903   7.430   4.615   2.750
 6653TIP3    H119904   7.414   4.577   2.836
 6653TIP3    H219905   7.430   4.710   2.765
 6654TIP3   OH219906   6.228   6.039   4.276
 6654TIP3    H119907   6.253   6.080   4.193
 6654TIP3    H219908   6.211   6.112   4.335
 6655TIP3   OH219909   2.400   4.760   1.702
 6655TIP3    H119910   2.468   4.827   1.692
 6655TIP3    H219911   2.383   4.729   1.613
 6656TIP3   OH219912   1.150   4.940   4.385
 6656TIP3    H119913   1.079   4.975   4.331
 6656TIP3    H219914   1.129   4.847   4.395
 6657TIP3   OH219915   2.492   4.440   4.479
 6657TIP3    H119916   2.528   4.528   4.482
 6657TIP3    H219917   2.439   4.438   4.400
 6658TIP3   OH219918   0.276   4.340   1.242
 6658TIP3    H119919   0.278   4.371   1.333
 6658TIP3    H219920   0.203   4.277   1.241
 6659TIP3   OH219921   2.414   0.462   5.277
 6659TIP3    H119922   2.439   0.487   5.366
 6659TIP3    H219923   2.422   0.367   5.275
 6660TIP3   OH219924   1.957   6.562   1.549
 6660TIP3    H119925   1.970   6.502   1.476
 6660TIP3    H219926   1.987   6.647   1.515
 6661TIP3   OH219927   5.348   2.064   3.157
 6661TIP3    H119928   5.333   2.111   3.239
 6661TIP3    H219929   5.397   2.126   3.103
 6662TIP3   OH219930   5.102   5.237   3.314
 6662TIP3    H119931   5.040   5.307   3.297
 6662TIP3    H219932   5.080   5.170   3.250
 6663TIP3   OH219933   2.654   2.761   0.986
 6663TIP3    H119934   2.591   2.771   1.057
 6663TIP3    H219935   2.738   2.749   1.029
 6664TIP3   OH219936   6.445   2.154   0.604
 6664TIP3    H119937   6.388   2.124   0.675
 6664TIP3    H219938   6.496   2.077   0.580
 6665TIP3   OH219939   1.329   0.256   4.057
 6665TIP3    H119940   1.352   0.186   4.118
 6665TIP3    H219941   1.318   0.212   3.973
 6666TIP3   OH219942   2.524   3.100   6.269
 6666TIP3    H119943   2.525   3.125   6.362
 6666TIP3    H219944   2.574   3.169   6.226
 6667TIP3   OH219945   2.532   0.363   3.040
 6667TIP3    H119946   2.520   0.283   2.988
 6667TIP3    H219947   2.612   0.402   3.005
 6668TIP3   OH219948   3.579   5.692   5.433
 6668TIP3    H119949   3.656   5.648   5.397
 6668TIP3    H219950   3.607   5.783   5.443
 6669TIP3   OH219951   0.254   2.145   6.580
 6669TIP3    H119952   0.327   2.206   6.567
 6669TIP3    H219953   0.189   2.171   6.515
 6670TIP3   OH219954   1.469   5.733   3.914
 6670TIP3    H119955   1.562   5.755   3.921
 6670TIP3    H219956   1.428   5.814   3.883
 6671TIP3   OH219957   5.298   2.223   3.360
 6671TIP3    H119958   5.223   2.254   3.411
 6671TIP3    H219959   5.370   2.281   3.386
 6672TIP3   OH219960   0.747   2.324   3.399
 6672TIP3    H119961   0.748   2.230   3.415
 6672TIP3    H219962   0.748   2.364   3.487
 6673TIP3   OH219963   2.051   7.595   0.562
 6673TIP3    H119964   2.114   7.576   0.492
 6673TIP3    H219965   2.100   7.650   0.623
 6674TIP3   OH219966   1.560   7.114   1.582
 6674TIP3    H119967   1.644   7.068   1.587
 6674TIP3    H219968   1.543   7.122   1.488
 6675TIP3   OH219969   1.684   6.634   4.959
 6675TIP3    H119970   1.722   6.600   4.878
 6675TIP3    H219971   1.759   6.651   5.016
 6676TIP3   OH219972   0.274   6.582   0.706
 6676TIP3    H119973   0.255   6.625   0.622
 6676TIP3    H219974   0.310   6.652   0.761
 6677TIP3   OH219975   3.783   2.639   1.680
 6677TIP3    H119976   3.744   2.591   1.607
 6677TIP3    H219977   3.748   2.727   1.673
 6678TIP3   OH219978   8.177   0.704   4.372
 6678TIP3    H119979   8.272   0.714   4.379
 6678TIP3    H219980   8.141   0.776   4.425
 6679TIP3   OH219981   6.733   2.769   3.170
 6679TIP3    H119982   6.669   2.754   3.101
 6679TIP3    H219983   6.730   2.864   3.185
 6680TIP3   OH219984   4.570   4.006   5.868
 6680TIP3    H119985   4.538   4.085   5.823
 6680TIP3    H219986   4.589   3.945   5.797
 6681TIP3   OH219987   5.309   3.983   4.403
 6681TIP3    H119988   5.315   3.986   4.308
 6681TIP3    H219989   5.219   4.011   4.422
 6682TIP3   OH219990   4.238   3.500   3.326
 6682TIP3    H119991   4.250   3.411   3.292
 6682TIP3    H219992   4.215   3.487   3.418
 6683TIP3   OH219993   1.123   0.682   2.815
 6683TIP3    H119994   1.111   0.728   2.732
 6683TIP3    H219995   1.212   0.647   2.811
 6684TIP3   OH219996   4.370   5.536   4.846
 6684TIP3    H119997   4.348   5.628   4.862
 6684TIP3    H219998   4.286   5.493   4.835
 6685TIP3   OH219999   1.752   1.637   1.653
 6685TIP3    H120000   1.764   1.669   1.564
 6685TIP3    H220001   1.681   1.691   1.688
 6686TIP3   OH220002   1.656   6.894   4.667
 6686TIP3    H120003   1.650   6.965   4.732
 6686TIP3    H220004   1.749   6.885   4.650
 6687TIP3   OH220005   4.999   6.477   0.764
 6687TIP3    H120006   4.961   6.419   0.829
 6687TIP3    H220007   5.025   6.419   0.692
 6688TIP3   OH220008   4.275   2.266   0.686
 6688TIP3    H120009   4.337   2.313   0.742
 6688TIP3    H220010   4.274   2.177   0.720
 6689TIP3   OH220011   6.629   2.641   4.998
 6689TIP3    H120012   6.564   2.685   5.053
 6689TIP3    H220013   6.625   2.687   4.915
 6690TIP3   OH220014   1.800   7.454   2.250
 6690TIP3    H120015   1.741   7.528   2.235
 6690TIP3    H220016   1.781   7.394   2.179
 6691TIP3   OH220017   6.447   0.500   3.723
 6691TIP3    H120018   6.415   0.516   3.634
 6691TIP3    H220019   6.372   0.519   3.779
 6692TIP3   OH220020   3.668   0.361   2.065
 6692TIP3    H120021   3.700   0.383   2.153
 6692TIP3    H220022   3.747   0.348   2.013
 6693TIP3   OH220023   5.217   6.916   4.845
 6693TIP3    H120024   5.239   7.002   4.881
 6693TIP3    H220025   5.177   6.868   4.918
 6694TIP3   OH220026   2.083   3.271   0.384
 6694TIP3    H120027   2.160   3.279   0.329
 6694TIP3    H220028   2.061   3.178   0.382
 6695TIP3   OH220029   6.346   7.140   4.767
 6695TIP3    H120030   6.373   7.054   4.736
 6695TIP3    H220031   6.426   7.192   4.765
 6696TIP3   OH220032   4.170   6.559   5.466
 6696TIP3    H120033   4.148   6.472   5.433
 6696TIP3    H220034   4.235   6.544   5.534
 6697TIP3   OH220035   2.270   0.779   1.375
 6697TIP3    H120036   2.333   0.722   1.419
 6697TIP3    H220037   2.215   0.719   1.324
 6698TIP3   OH220038   6.527   7.523   1.832
 6698TIP3    H120039   6.558   7.575   1.906
 6698TIP3    H220040   6.564   7.436   1.846
 6699TIP3   OH220041   2.939   3.775   5.767
 6699TIP3    H120042   2.915   3.850   5.823
 6699TIP3    H220043   3.028   3.794   5.740
 6700TIP3   OH220044   7.102   5.339   0.871
 6700TIP3    H120045   7.154   5.389   0.934
 6700TIP3    H220046   7.104   5.392   0.791
 6701TIP3   OH220047   7.830   7.093   3.537
 6701TIP3    H120048   7.915   7.128   3.510
 6701TIP3    H220049   7.776   7.170   3.556
 6702TIP3   OH220050   2.973   0.298   0.566
 6702TIP3    H120051   3.049   0.240   0.560
 6702TIP3    H220052   2.898   0.239   0.573
 6703TIP3   OH220053   0.045   0.600   0.489
 6703TIP3    H120054   0.126   0.645   0.514
 6703TIP3    H220055   0.025   0.633   0.402
 6704TIP3   OH220056   1.980   4.390   2.525
 6704TIP3    H120057   1.974   4.341   2.443
 6704TIP3    H220058   2.036   4.337   2.581
 6705TIP3   OH220059   0.698   7.340   6.094
 6705TIP3    H120060   0.652   7.313   6.173
 6705TIP3    H220061   0.629   7.349   6.028
 6706TIP3   OH220062   0.052   3.438   3.451
 6706TIP3    H120063   0.057   3.365   3.512
 6706TIP3    H220064   0.116   3.416   3.383
 6707TIP3   OH220065   3.885   2.715   3.226
 6707TIP3    H120066   3.852   2.780   3.289
 6707TIP3    H220067   3.842   2.738   3.144
 6708TIP3   OH220068   6.950   7.709   6.382
 6708TIP3    H120069   7.001   7.759   6.318
 6708TIP3    H220070   6.922   7.630   6.334
 6709TIP3   OH220071   3.692   2.122   5.788
 6709TIP3    H120072   3.776   2.148   5.826
 6709TIP3    H220073   3.629   2.134   5.859
 6710TIP3   OH220074   7.352   4.643   0.170
 6710TIP3    H120075   7.337   4.619   0.078
 6710TIP3    H220076   7.376   4.561   0.213
 6711TIP3   OH220077   4.172   1.472   3.312
 6711TIP3    H120078   4.128   1.529   3.376
 6711TIP3    H220079   4.264   1.476   3.337
 6712TIP3   OH220080   7.703   5.509   5.867
 6712TIP3    H120081   7.737   5.588   5.909
 6712TIP3    H220082   7.620   5.493   5.912
 6713TIP3   OH220083   1.390   6.200   0.511
 6713TIP3    H120084   1.345   6.210   0.595
 6713TIP3    H220085   1.456   6.269   0.511
 6714TIP3   OH220086   8.051   1.963   4.603
 6714TIP3    H120087   7.983   1.940   4.665
 6714TIP3    H220088   8.078   1.880   4.565
 6715TIP3   OH220089   3.363   3.001   6.444
 6715TIP3    H120090   3.297   2.933   6.455
 6715TIP3    H220091   3.361   3.051   6.526
 6716TIP3   OH220092   5.611   0.409   1.737
 6716TIP3    H120093   5.606   0.379   1.827
 6716TIP3    H220094   5.680   0.355   1.697
 6717TIP3   OH220095   6.194   0.699   3.223
 6717TIP3    H120096   6.140   0.759   3.171
 6717TIP3    H220097   6.149   0.695   3.308
 6718TIP3   OH220098   7.884   1.522   4.705
 6718TIP3    H120099   7.830   1.577   4.648
 6718TIP3    H220100   7.973   1.536   4.674
 6719TIP3   OH220101   6.195   5.481   1.578
 6719TIP3    H120102   6.111   5.491   1.622
 6719TIP3    H220103   6.260   5.516   1.640
 6720TIP3   OH220104   0.845   3.279   5.218
 6720TIP3    H120105   0.891   3.311   5.140
 6720TIP3    H220106   0.756   3.264   5.189
 6721TIP3   OH220107   2.345   0.378   3.491
 6721TIP3    H120108   2.340   0.447   3.558
 6721TIP3    H220109   2.271   0.397   3.433
 6722TIP3   OH220110   5.142   6.016   4.528
 6722TIP3    H120111   5.147   5.990   4.620
 6722TIP3    H220112   5.231   6.040   4.504
 6723TIP3   OH220113   2.834   5.602   2.371
 6723TIP3    H120114   2.791   5.526   2.409
 6723TIP3    H220115   2.766   5.670   2.372
 6724TIP3   OH220116   3.463   3.384   0.079
 6724TIP3    H120117   3.383   3.419   0.118
 6724TIP3    H220118   3.534   3.422   0.130
 6725TIP3   OH220119   1.507   5.054   2.652
 6725TIP3    H120120   1.545   5.125   2.601
 6725TIP3    H220121   1.415   5.077   2.661
 6726TIP3   OH220122   7.608   4.356   0.320
 6726TIP3    H120123   7.595   4.278   0.265
 6726TIP3    H220124   7.640   4.321   0.404
 6727TIP3   OH220125   6.694   2.267   4.798
 6727TIP3    H120126   6.705   2.187   4.746
 6727TIP3    H220127   6.779   2.279   4.841
 6728TIP3   OH220128   0.490   0.384   6.651
 6728TIP3    H120129   0.563   0.322   6.644
 6728TIP3    H220130   0.509   0.450   6.584
 6729TIP3   OH220131   3.405   0.184   2.051
 6729TIP3    H120132   3.348   0.231   2.111
 6729TIP3    H220133   3.452   0.253   2.004
 6730TIP3   OH220134   3.962   3.751   0.644
 6730TIP3    H120135   3.916   3.671   0.621
 6730TIP3    H220136   4.041   3.750   0.590
 6731TIP3   OH220137   6.453   7.586   0.067
 6731TIP3    H120138   6.488   7.570  -0.020
 6731TIP3    H220139   6.468   7.503   0.114
 6732TIP3   OH220140   6.109   2.969   4.922
 6732TIP3    H120141   6.108   2.897   4.985
 6732TIP3    H220142   6.085   2.929   4.838
 6733TIP3   OH220143   2.910   2.435   0.250
 6733TIP3    H120144   2.843   2.417   0.184
 6733TIP3    H220145   2.871   2.500   0.307
 6734TIP3   OH220146   5.187   0.069   5.712
 6734TIP3    H120147   5.139   0.022   5.643
 6734TIP3    H220148   5.169   0.161   5.695
 6735TIP3   OH220149   0.523   3.110   4.817
 6735TIP3    H120150   0.531   3.080   4.726
 6735TIP3    H220151   0.435   3.083   4.843
 6736TIP3   OH220152   5.107   2.924   0.423
 6736TIP3    H120153   5.149   2.877   0.495
 6736TIP3    H220154   5.104   3.015   0.452
 6737TIP3   OH220155   1.352   5.530   4.070
 6737TIP3    H120156   1.262   5.500   4.082
 6737TIP3    H220157   1.344   5.613   4.024
 6738TIP3   OH220158   8.063   0.372   5.971
 6738TIP3    H120159   8.027   0.285   5.952
 6738TIP3    H220160   8.039   0.388   6.062
 6739TIP3   OH220161   8.164   1.356   2.891
 6739TIP3    H120162   8.157   1.428   2.828
 6739TIP3    H220163   8.149   1.277   2.840
 6740TIP3   OH220164   3.400   1.145   4.897
 6740TIP3    H120165   3.439   1.076   4.842
 6740TIP3    H220166   3.473   1.202   4.919
 6741TIP3   OH220167   1.219   2.702   4.271
 6741TIP3    H120168   1.286   2.635   4.286
 6741TIP3    H220169   1.238   2.735   4.183
 6742TIP3   OH220170   4.802   2.589   3.419
 6742TIP3    H120171   4.820   2.675   3.458
 6742TIP3    H220172   4.706   2.584   3.417
 6743TIP3   OH220173   5.233   7.802   6.428
 6743TIP3    H120174   5.193   7.846   6.503
 6743TIP3    H220175   5.166   7.739   6.399
 6744TIP3   OH220176   6.474   6.391   0.170
 6744TIP3    H120177   6.563   6.408   0.139
 6744TIP3    H220178   6.419   6.447   0.115
 6745TIP3   OH220179   1.841   4.023   5.044
 6745TIP3    H120180   1.888   4.097   5.081
 6745TIP3    H220181   1.807   3.976   5.120
 6746TIP3   OH220182   3.665   4.858   2.643
 6746TIP3    H120183   3.579   4.869   2.602
 6746TIP3    H220184   3.696   4.774   2.609
 6747TIP3   OH220185   6.853   6.679   6.300
 6747TIP3    H120186   6.917   6.748   6.318
 6747TIP3    H220187   6.905   6.604   6.274
 6748TIP3   OH220188   7.616   3.921   6.384
 6748TIP3    H120189   7.591   3.993   6.325
 6748TIP3    H220190   7.563   3.847   6.355
 6749TIP3   OH220191   4.281   2.778   3.555
 6749TIP3    H120192   4.189   2.761   3.574
 6749TIP3    H220193   4.284   2.798   3.462
 6750TIP3   OH220194   5.353   1.628   5.430
 6750TIP3    H120195   5.434   1.635   5.379
 6750TIP3    H220196   5.288   1.596   5.367
 6751TIP3   OH220197   2.675   4.944   1.189
 6751TIP3    H120198   2.595   4.896   1.213
 6751TIP3    H220199   2.741   4.913   1.250
 6752TIP3   OH220200   1.996   0.900   0.978
 6752TIP3    H120201   1.985   0.873   1.069
 6752TIP3    H220202   1.907   0.904   0.943
 6753TIP3   OH220203   5.469   5.226   5.196
 6753TIP3    H120204   5.547   5.171   5.204
 6753TIP3    H220205   5.413   5.179   5.135
 6754TIP3   OH220206   4.123   0.028   0.509
 6754TIP3    H120207   4.212   0.060   0.520
 6754TIP3    H220208   4.091   0.071   0.430
 6755TIP3   OH220209   6.428   4.130   2.271
 6755TIP3    H120210   6.377   4.186   2.329
 6755TIP3    H220211   6.447   4.184   2.195
 6756TIP3   OH220212   6.180   2.332   3.073
 6756TIP3    H120213   6.095   2.351   3.035
 6756TIP3    H220214   6.238   2.321   2.998
 6757TIP3   OH220215   4.429   4.039   3.653
 6757TIP3    H120216   4.470   4.008   3.573
 6757TIP3    H220217   4.378   3.965   3.685
 6758TIP3   OH220218   3.861   0.247   5.098
 6758TIP3    H120219   3.924   0.199   5.152
 6758TIP3    H220220   3.905   0.258   5.014
 6759TIP3   OH220221   2.985   6.329   2.086
 6759TIP3    H120222   3.052   6.396   2.073
 6759TIP3    H220223   2.968   6.330   2.180
 6760TIP3   OH220224   7.564   4.625   4.091
 6760TIP3    H120225   7.577   4.684   4.165
 6760TIP3    H220226   7.570   4.537   4.129
 6761TIP3   OH220227   2.323   3.632   4.553
 6761TIP3    H120228   2.383   3.669   4.617
 6761TIP3    H220229   2.286   3.555   4.595
 6762TIP3   OH220230   3.815   3.334   6.570
 6762TIP3    H120231   3.853   3.421   6.579
 6762TIP3    H220232   3.720   3.350   6.567
 6763TIP3   OH220233   0.172   6.408   0.883
 6763TIP3    H120234   0.137   6.463   0.953
 6763TIP3    H220235   0.195   6.470   0.814
 6764TIP3   OH220236   0.209   5.789   4.809
 6764TIP3    H120237   0.251   5.703   4.801
 6764TIP3    H220238   0.279   5.852   4.791
 6765TIP3   OH220239   2.106   7.200   6.294
 6765TIP3    H120240   2.131   7.278   6.245
 6765TIP3    H220241   2.114   7.226   6.386
 6766TIP3   OH220242   7.699   4.828   4.318
 6766TIP3    H120243   7.754   4.777   4.377
 6766TIP3    H220244   7.700   4.917   4.354
 6767TIP3   OH220245   0.129   5.087   2.414
 6767TIP3    H120246   0.127   5.050   2.325
 6767TIP3    H220247   0.133   5.181   2.400
 6768TIP3   OH220248   3.182   3.905   2.365
 6768TIP3    H120249   3.099   3.926   2.407
 6768TIP3    H220250   3.220   3.990   2.341
 6769TIP3   OH220251   3.963   2.499   5.876
 6769TIP3    H120252   3.962   2.547   5.959
 6769TIP3    H220253   3.956   2.567   5.809
 6770TIP3   OH220254   3.197   2.468   2.060
 6770TIP3    H120255   3.155   2.505   2.139
 6770TIP3    H220256   3.268   2.529   2.040
 6771TIP3   OH220257   3.222   3.723   0.335
 6771TIP3    H120258   3.191   3.722   0.426
 6771TIP3    H220259   3.295   3.784   0.335
 6772TIP3   OH220260   5.353   1.922   1.548
 6772TIP3    H120261   5.307   1.926   1.632
 6772TIP3    H220262   5.428   1.865   1.565
 6773TIP3   OH220263   5.900   1.573   2.982
 6773TIP3    H120264   5.838   1.584   2.909
 6773TIP3    H220265   5.961   1.506   2.952
 6774TIP3   OH220266   3.570   4.593   2.843
 6774TIP3    H120267   3.537   4.541   2.916
 6774TIP3    H220268   3.659   4.618   2.870
 6775TIP3   OH220269   5.874   5.953   3.200
 6775TIP3    H120270   5.898   5.990   3.115
 6775TIP3    H220271   5.778   5.954   3.201
 6776TIP3   OH220272   7.512   5.670   6.765
 6776TIP3    H120273   7.563   5.589   6.776
 6776TIP3    H220274   7.423   5.646   6.790
 6777TIP3   OH220275   0.618   7.450   3.070
 6777TIP3    H120276   0.699   7.497   3.092
 6777TIP3    H220277   0.631   7.361   3.101
 6778TIP3   OH220278   6.571   6.941   1.081
 6778TIP3    H120279   6.607   6.860   1.119
 6778TIP3    H220280   6.547   6.916   0.992
 6779TIP3   OH220281   1.264   6.215   5.722
 6779TIP3    H120282   1.319   6.237   5.797
 6779TIP3    H220283   1.222   6.133   5.745
 6780TIP3   OH220284   0.565   1.788   2.948
 6780TIP3    H120285   0.493   1.826   2.897
 6780TIP3    H220286   0.594   1.713   2.896
 6781TIP3   OH220287   4.282   6.949   2.814
 6781TIP3    H120288   4.295   6.854   2.820
 6781TIP3    H220289   4.265   6.977   2.904
 6782TIP3   OH220290   5.398   6.256   0.089
 6782TIP3    H120291   5.307   6.235   0.109
 6782TIP3    H220292   5.420   6.327   0.149
 6783TIP3   OH220293   4.672   2.994   6.063
 6783TIP3    H120294   4.761   2.980   6.095
 6783TIP3    H220295   4.649   2.911   6.022
 6784TIP3   OH220296   4.992   5.854   3.437
 6784TIP3    H120297   5.036   5.939   3.437
 6784TIP3    H220298   4.987   5.830   3.530
 6785TIP3   OH220299   6.475   2.785   5.500
 6785TIP3    H120300   6.473   2.771   5.594
 6785TIP3    H220301   6.428   2.868   5.487
 6786TIP3   OH220302   5.586   7.412   4.675
 6786TIP3    H120303   5.560   7.333   4.722
 6786TIP3    H220304   5.631   7.465   4.741
 6787TIP3   OH220305   6.787   0.524   5.076
 6787TIP3    H120306   6.830   0.497   4.994
 6787TIP3    H220307   6.705   0.563   5.048
 6788TIP3   OH220308   4.717   0.340   6.665
 6788TIP3    H120309   4.713   0.321   6.571
 6788TIP3    H220310   4.801   0.382   6.678
 6789TIP3   OH220311   2.048   7.706   3.271
 6789TIP3    H120312   2.016   7.774   3.212
 6789TIP3    H220313   2.143   7.720   3.274
 6790TIP3   OH220314   7.148   4.048   2.751
 6790TIP3    H120315   7.161   4.116   2.685
 6790TIP3    H220316   7.096   4.091   2.819
 6791TIP3   OH220317   6.653   0.653   5.892
 6791TIP3    H120318   6.690   0.605   5.966
 6791TIP3    H220319   6.563   0.671   5.917
 6792TIP3   OH220320   1.979   5.717   2.112
 6792TIP3    H120321   1.916   5.691   2.180
 6792TIP3    H220322   2.042   5.772   2.158
 6793TIP3   OH220323   2.931   2.622   4.718
 6793TIP3    H120324   2.930   2.686   4.647
 6793TIP3    H220325   2.989   2.552   4.688
 6794TIP3   OH220326   5.314   1.146   4.403
 6794TIP3    H120327   5.281   1.087   4.471
 6794TIP3    H220328   5.387   1.099   4.363
 6795TIP3   OH220329   6.074   7.625   6.598
 6795TIP3    H120330   5.999   7.613   6.657
 6795TIP3    H220331   6.041   7.685   6.531
 6796TIP3   OH220332   0.360   3.735   1.414
 6796TIP3    H120333   0.327   3.823   1.431
 6796TIP3    H220334   0.455   3.743   1.423
 6797TIP3   OH220335   5.850   7.364   0.083
 6797TIP3    H120336   5.815   7.425   0.147
 6797TIP3    H220337   5.926   7.324   0.127
 6798TIP3   OH220338   7.248   7.776   3.777
 6798TIP3    H120339   7.299   7.714   3.725
 6798TIP3    H220340   7.193   7.721   3.833
 6799TIP3   OH220341   5.353   0.939   5.533
 6799TIP3    H120342   5.335   0.861   5.585
 6799TIP3    H220343   5.279   0.946   5.473
 6800TIP3   OH220344   7.825   3.736   3.123
 6800TIP3    H120345   7.861   3.702   3.205
 6800TIP3    H220346   7.873   3.689   3.054
 6801TIP3   OH220347   3.966   5.886   2.865
 6801TIP3    H120348   4.038   5.858   2.808
 6801TIP3    H220349   3.935   5.968   2.826
 6802TIP3   OH220350   2.320   4.874   5.966
 6802TIP3    H120351   2.395   4.918   5.925
 6802TIP3    H220352   2.271   4.945   6.008
 6803TIP3   OH220353   0.511   6.058   0.316
 6803TIP3    H120354   0.558   6.139   0.296
 6803TIP3    H220355   0.578   5.990   0.309
 6804TIP3   OH220356   4.745   6.428   5.551
 6804TIP3    H120357   4.689   6.407   5.476
 6804TIP3    H220358   4.755   6.345   5.598
 6805TIP3   OH220359   4.489   1.225   3.290
 6805TIP3    H120360   4.559   1.161   3.276
 6805TIP3    H220361   4.451   1.200   3.374
 6806TIP3   OH220362   2.297   0.752   4.790
 6806TIP3    H120363   2.385   0.714   4.793
 6806TIP3    H220364   2.310   0.842   4.821
 6807TIP3   OH220365   1.970   0.709   2.801
 6807TIP3    H120366   2.031   0.724   2.874
 6807TIP3    H220367   1.962   0.614   2.795
 6808TIP3   OH220368   5.435   1.862   5.763
 6808TIP3    H120369   5.504   1.925   5.744
 6808TIP3    H220370   5.472   1.806   5.831
 6809TIP3   OH220371   2.689   7.290   2.472
 6809TIP3    H120372   2.653   7.214   2.518
 6809TIP3    H220373   2.615   7.327   2.425
 6810TIP3   OH220374   4.700   3.177   6.342
 6810TIP3    H120375   4.736   3.244   6.400
 6810TIP3    H220376   4.621   3.218   6.306
 6811TIP3   OH220377   1.703   5.172   0.555
 6811TIP3    H120378   1.791   5.180   0.518
 6811TIP3    H220379   1.688   5.078   0.561
 6812TIP3   OH220380   5.471   7.766   2.668
 6812TIP3    H120381   5.401   7.829   2.654
 6812TIP3    H220382   5.542   7.817   2.706
 6813TIP3   OH220383   2.529   1.450   0.639
 6813TIP3    H120384   2.618   1.449   0.604
 6813TIP3    H220385   2.522   1.534   0.684
 6814TIP3   OH220386   0.300   6.905   3.724
 6814TIP3    H120387   0.243   6.944   3.791
 6814TIP3    H220388   0.378   6.878   3.772
 6815TIP3   OH220389   1.492   1.832   3.205
 6815TIP3    H120390   1.576   1.789   3.189
 6815TIP3    H220391   1.449   1.832   3.119
 6816TIP3   OH220392   3.430   6.350   1.456
 6816TIP3    H120393   3.387   6.335   1.540
 6816TIP3    H220394   3.358   6.376   1.397
 6817TIP3   OH220395   3.343   5.243   4.481
 6817TIP3    H120396   3.303   5.254   4.566
 6817TIP3    H220397   3.275   5.204   4.426
 6818TIP3   OH220398   6.449   3.006   4.946
 6818TIP3    H120399   6.414   2.930   4.900
 6818TIP3    H220400   6.464   2.976   5.035
 6819TIP3   OH220401   6.031   2.710   1.946
 6819TIP3    H120402   6.103   2.772   1.960
 6819TIP3    H220403   6.058   2.659   1.870
 6820TIP3   OH220404   6.548   5.447   3.344
 6820TIP3    H120405   6.554   5.398   3.426
 6820TIP3    H220406   6.463   5.491   3.348
 6821TIP3   OH220407   7.484   3.938   6.611
 6821TIP3    H120408   7.527   3.958   6.528
 6821TIP3    H220409   7.518   3.852   6.636
 6822TIP3   OH220410   5.059   2.560   3.363
 6822TIP3    H120411   5.095   2.492   3.420
 6822TIP3    H220412   4.968   2.570   3.391
 6823TIP3   OH220413   2.737   4.984   0.900
 6823TIP3    H120414   2.657   5.036   0.896
 6823TIP3    H220415   2.781   5.014   0.980
 6824TIP3   OH220416   0.926   7.049   0.710
 6824TIP3    H120417   0.861   7.028   0.643
 6824TIP3    H220418   0.884   7.116   0.764
 6825TIP3   OH220419   1.873   4.144   0.428
 6825TIP3    H120420   1.867   4.083   0.501
 6825TIP3    H220421   1.886   4.089   0.351
 6826TIP3   OH220422   7.567   1.258   1.957
 6826TIP3    H120423   7.582   1.336   1.903
 6826TIP3    H220424   7.472   1.249   1.963
 6827TIP3   OH220425   4.489   4.642   3.429
 6827TIP3    H120426   4.436   4.692   3.492
 6827TIP3    H220427   4.576   4.639   3.468
 6828TIP3   OH220428   4.855   3.315   6.528
 6828TIP3    H120429   4.948   3.333   6.514
 6828TIP3    H220430   4.819   3.397   6.562
 6829TIP3   OH220431   3.258   6.322   5.904
 6829TIP3    H120432   3.211   6.335   5.987
 6829TIP3    H220433   3.273   6.411   5.871
 6830TIP3   OH220434   1.977   1.009   2.824
 6830TIP3    H120435   1.929   1.015   2.906
 6830TIP3    H220436   2.002   0.917   2.817
 6831TIP3   OH220437   3.244   4.235   3.222
 6831TIP3    H120438   3.164   4.215   3.173
 6831TIP3    H220439   3.240   4.329   3.238
 6832TIP3   OH220440   5.864   7.326   3.820
 6832TIP3    H120441   5.857   7.318   3.915
 6832TIP3    H220442   5.794   7.270   3.786
 6833TIP3   OH220443   2.657   2.738   1.527
 6833TIP3    H120444   2.662   2.727   1.622
 6833TIP3    H220445   2.729   2.798   1.506
 6834TIP3   OH220446   3.994   1.009   4.399
 6834TIP3    H120447   3.903   1.032   4.414
 6834TIP3    H220448   4.000   0.993   4.305
 6835TIP3   OH220449   3.910   7.817   3.771
 6835TIP3    H120450   3.889   7.726   3.790
 6835TIP3    H220451   3.849   7.867   3.826
 6836TIP3   OH220452   4.624   0.742   1.249
 6836TIP3    H120453   4.556   0.809   1.239
 6836TIP3    H220454   4.636   0.706   1.161
 6837TIP3   OH220455   1.167   1.046   6.731
 6837TIP3    H120456   1.080   1.039   6.770
 6837TIP3    H220457   1.166   0.982   6.659
 6838TIP3   OH220458   6.065   5.277   4.273
 6838TIP3    H120459   6.131   5.299   4.207
 6838TIP3    H220460   6.031   5.362   4.302
 6839TIP3   OH220461   1.635   2.019   1.299
 6839TIP3    H120462   1.690   2.094   1.319
 6839TIP3    H220463   1.565   2.054   1.244
 6840TIP3   OH220464   2.612   7.708   1.454
 6840TIP3    H120465   2.578   7.776   1.395
 6840TIP3    H220466   2.569   7.726   1.538
 6841TIP3   OH220467   0.631   4.311   5.480
 6841TIP3    H120468   0.592   4.225   5.462
 6841TIP3    H220469   0.693   4.296   5.551
 6842TIP3   OH220470   3.284   1.915   3.664
 6842TIP3    H120471   3.290   1.854   3.738
 6842TIP3    H220472   3.363   1.897   3.613
 6843TIP3   OH220473   2.639   4.658   3.742
 6843TIP3    H120474   2.668   4.568   3.725
 6843TIP3    H220475   2.621   4.659   3.837
 6844TIP3   OH220476   5.900   2.429   0.779
 6844TIP3    H120477   5.897   2.335   0.795
 6844TIP3    H220478   5.980   2.458   0.824
 6845TIP3   OH220479   6.089   0.750   0.971
 6845TIP3    H120480   6.048   0.772   1.055
 6845TIP3    H220481   6.071   0.826   0.915
 6846TIP3   OH220482   2.817   4.202   0.218
 6846TIP3    H120483   2.741   4.185   0.274
 6846TIP3    H220484   2.817   4.297   0.207
 6847TIP3   OH220485   2.487   7.032   3.620
 6847TIP3    H120486   2.522   7.069   3.701
 6847TIP3    H220487   2.524   6.944   3.616
 6848TIP3   OH220488   3.442   0.708   1.380
 6848TIP3    H120489   3.414   0.797   1.403
 6848TIP3    H220490   3.382   0.651   1.429
 6849TIP3   OH220491   0.901   7.427   1.599
 6849TIP3    H120492   0.959   7.357   1.629
 6849TIP3    H220493   0.825   7.421   1.656
 6850TIP3   OH220494   2.930   0.105   5.308
 6850TIP3    H120495   2.888   0.059   5.234
 6850TIP3    H220496   2.858   0.124   5.368
 6851TIP3   OH220497   6.410   6.506   2.442
 6851TIP3    H120498   6.314   6.510   2.442
 6851TIP3    H220499   6.434   6.500   2.534
 6852TIP3   OH220500   6.006   2.962   6.693
 6852TIP3    H120501   6.099   2.971   6.712
 6852TIP3    H220502   5.963   2.986   6.774
 6853TIP3   OH220503   1.306   5.450   3.420
 6853TIP3    H120504   1.245   5.489   3.357
 6853TIP3    H220505   1.292   5.499   3.501
 6854TIP3   OH220506   7.917   6.276   5.997
 6854TIP3    H120507   7.988   6.341   5.995
 6854TIP3    H220508   7.944   6.210   5.933
 6855TIP3   OH220509   3.624   2.846   0.211
 6855TIP3    H120510   3.637   2.933   0.173
 6855TIP3    H220511   3.555   2.807   0.157
 6856TIP3   OH220512   2.173   6.211   5.130
 6856TIP3    H120513   2.086   6.252   5.139
 6856TIP3    H220514   2.193   6.179   5.217
 6857TIP3   OH220515   4.351   6.358   2.605
 6857TIP3    H120516   4.324   6.411   2.680
 6857TIP3    H220517   4.276   6.300   2.588
 6858TIP3   OH220518   8.168   0.301   5.084
 6858TIP3    H120519   8.218   0.308   5.002
 6858TIP3    H220520   8.176   0.388   5.124
 6859TIP3   OH220521   2.792   2.333   3.262
 6859TIP3    H120522   2.778   2.390   3.338
 6859TIP3    H220523   2.719   2.353   3.204
 6860TIP3   OH220524   0.021   1.107   3.347
 6860TIP3    H120525   0.058   1.031   3.301
 6860TIP3    H220526   0.050   1.183   3.297
 6861TIP3   OH220527   5.491   7.344   6.371
 6861TIP3    H120528   5.488   7.289   6.292
 6861TIP3    H220529   5.477   7.433   6.338
 6862TIP3   OH220530   2.270   4.085   4.437
 6862TIP3    H120531   2.310   4.119   4.517
 6862TIP3    H220532   2.204   4.150   4.413
 6863TIP3   OH220533   6.638   2.813   5.763
 6863TIP3    H120534   6.587   2.770   5.832
 6863TIP3    H220535   6.672   2.892   5.805
 6864TIP3   OH220536   7.512   1.344   4.195
 6864TIP3    H120537   7.599   1.369   4.163
 6864TIP3    H220538   7.463   1.324   4.115
 6865TIP3   OH220539   6.505   2.261   4.123
 6865TIP3    H120540   6.479   2.250   4.214
 6865TIP3    H220541   6.439   2.321   4.086
 6866TIP3   OH220542   6.245   5.973   6.006
 6866TIP3    H120543   6.307   5.943   5.938
 6866TIP3    H220544   6.301   6.004   6.076
 6867TIP3   OH220545   4.644   3.945   3.481
 6867TIP3    H120546   4.636   3.926   3.387
 6867TIP3    H220547   4.693   3.871   3.517
 6868TIP3   OH220548   0.683   0.490   4.105
 6868TIP3    H120549   0.718   0.405   4.076
 6868TIP3    H220550   0.736   0.555   4.060
 6869TIP3   OH220551   5.189   2.805   1.979
 6869TIP3    H120552   5.100   2.775   1.961
 6869TIP3    H220553   5.185   2.840   2.068
 6870TIP3   OH220554   8.042   1.959   3.184
 6870TIP3    H120555   8.061   1.897   3.114
 6870TIP3    H220556   7.948   1.974   3.179
 6871TIP3   OH220557   3.958   2.069   1.729
 6871TIP3    H120558   3.889   2.040   1.789
 6871TIP3    H220559   3.960   2.164   1.739
 6872TIP3   OH220560   6.679   3.181   4.937
 6872TIP3    H120561   6.605   3.123   4.915
 6872TIP3    H220562   6.700   3.158   5.028
 6873TIP3   OH220563   2.261   6.138   2.823
 6873TIP3    H120564   2.275   6.062   2.880
 6873TIP3    H220565   2.210   6.199   2.877
 6874TIP3   OH220566   6.897   7.598   4.156
 6874TIP3    H120567   6.924   7.508   4.174
 6874TIP3    H220568   6.802   7.598   4.164
 6875TIP3   OH220569   0.157   0.471   4.553
 6875TIP3    H120570   0.171   0.376   4.553
 6875TIP3    H220571   0.199   0.502   4.633
 6876TIP3   OH220572   2.866   3.358   5.718
 6876TIP3    H120573   2.901   3.429   5.773
 6876TIP3    H220574   2.944   3.311   5.688
 6877TIP3   OH220575   5.316   1.638   1.794
 6877TIP3    H120576   5.247   1.665   1.854
 6877TIP3    H220577   5.271   1.583   1.729
 6878TIP3   OH220578   5.973   1.525   4.158
 6878TIP3    H120579   5.912   1.593   4.189
 6878TIP3    H220580   6.059   1.566   4.164
 6879TIP3   OH220581   6.314   6.676   4.650
 6879TIP3    H120582   6.276   6.679   4.738
 6879TIP3    H220583   6.249   6.629   4.598
 6880TIP3   OH220584   0.037   6.388  -0.014
 6880TIP3    H120585  -0.019   6.310  -0.010
 6880TIP3    H220586   0.063   6.404   0.077
 6881TIP3   OH220587   5.604   6.679   3.480
 6881TIP3    H120588   5.588   6.623   3.556
 6881TIP3    H220589   5.560   6.761   3.501
 6882TIP3   OH220590   0.524   7.597   5.182
 6882TIP3    H120591   0.575   7.610   5.102
 6882TIP3    H220592   0.589   7.578   5.249
 6883TIP3   OH220593   6.296   7.108   1.467
 6883TIP3    H120594   6.320   7.187   1.515
 6883TIP3    H220595   6.203   7.096   1.486
 6884TIP3   OH220596   4.115   2.129   3.300
 6884TIP3    H120597   4.050   2.198   3.285
 6884TIP3    H220598   4.111   2.112   3.394
 6885TIP3   OH220599   3.262   4.039   1.822
 6885TIP3    H120600   3.334   3.996   1.777
 6885TIP3    H220601   3.225   3.971   1.878
 6886TIP3   OH220602   7.522   3.024   2.274
 6886TIP3    H120603   7.564   3.043   2.358
 6886TIP3    H220604   7.517   3.109   2.230
 6887TIP3   OH220605   1.342   2.968   0.104
 6887TIP3    H120606   1.281   3.021   0.156
 6887TIP3    H220607   1.367   3.024   0.031
 6888TIP3   OH220608   3.473   3.136   6.636
 6888TIP3    H120609   3.483   3.225   6.600
 6888TIP3    H220610   3.456   3.150   6.729
 6889TIP3   OH220611   6.639   3.106   6.745
 6889TIP3    H120612   6.593   3.075   6.823
 6889TIP3    H220613   6.686   3.029   6.713
 6890TIP3   OH220614   0.923   5.640   6.470
 6890TIP3    H120615   0.887   5.728   6.484
 6890TIP3    H220616   0.947   5.609   6.557
 6891TIP3   OH220617   1.543   1.988   5.930
 6891TIP3    H120618   1.554   2.027   6.017
 6891TIP3    H220619   1.484   2.048   5.884
 6892TIP3   OH220620   4.444   3.838   6.214
 6892TIP3    H120621   4.386   3.898   6.261
 6892TIP3    H220622   4.485   3.786   6.282
 6893TIP3   OH220623   2.305   6.926   1.236
 6893TIP3    H120624   2.396   6.906   1.258
 6893TIP3    H220625   2.276   6.983   1.307
 6894TIP3   OH220626   7.537   1.952   2.151
 6894TIP3    H120627   7.612   1.912   2.195
 6894TIP3    H220628   7.575   1.999   2.077
 6895TIP3   OH220629   8.038   5.567   2.743
 6895TIP3    H120630   7.971   5.526   2.688
 6895TIP3    H220631   8.076   5.635   2.686
 6896TIP3   OH220632   6.191   5.701   5.409
 6896TIP3    H120633   6.145   5.686   5.492
 6896TIP3    H220634   6.277   5.661   5.421
 6897TIP3   OH220635   0.477   0.408   1.592
 6897TIP3    H120636   0.468   0.360   1.674
 6897TIP3    H220637   0.514   0.493   1.617
 6898TIP3   OH220638   3.910   3.952   5.023
 6898TIP3    H120639   3.859   4.025   5.057
 6898TIP3    H220640   3.875   3.936   4.936
 6899TIP3   OH220641   1.668   5.339   1.036
 6899TIP3    H120642   1.735   5.395   1.074
 6899TIP3    H220643   1.642   5.383   0.955
 6900TIP3   OH220644   7.562   2.139   2.890
 6900TIP3    H120645   7.581   2.231   2.908
 6900TIP3    H220646   7.634   2.109   2.835
 6901TIP3   OH220647   0.692   4.970   4.854
 6901TIP3    H120648   0.698   4.924   4.938
 6901TIP3    H220649   0.697   5.063   4.876
 6902TIP3   OH220650   1.291   0.672   4.731
 6902TIP3    H120651   1.258   0.747   4.780
 6902TIP3    H220652   1.367   0.643   4.781
 6903TIP3   OH220653   7.031   2.822   6.599
 6903TIP3    H120654   7.063   2.813   6.509
 6903TIP3    H220655   7.110   2.836   6.651
 6904TIP3   OH220656   1.276   3.672   6.538
 6904TIP3    H120657   1.352   3.673   6.597
 6904TIP3    H220658   1.211   3.617   6.583
 6905TIP3   OH220659   3.403   7.095   2.032
 6905TIP3    H120660   3.318   7.125   2.000
 6905TIP3    H220661   3.441   7.047   1.958
 6906TIP3   OH220662   3.300   5.813   6.362
 6906TIP3    H120663   3.253   5.800   6.445
 6906TIP3    H220664   3.269   5.898   6.330
 6907TIP3   OH220665   3.641   0.398   3.822
 6907TIP3    H120666   3.621   0.427   3.733
 6907TIP3    H220667   3.712   0.335   3.811
 6908TIP3   OH220668   0.135   4.817   3.962
 6908TIP3    H120669   0.160   4.890   3.905
 6908TIP3    H220670   0.198   4.748   3.941
 6909TIP3   OH220671   5.262   0.288   5.967
 6909TIP3    H120672   5.270   0.205   5.921
 6909TIP3    H220673   5.169   0.292   5.992
 6910TIP3   OH220674   5.359   1.558   6.319
 6910TIP3    H120675   5.427   1.573   6.253
 6910TIP3    H220676   5.328   1.646   6.341
 6911TIP3   OH220677   6.376   5.119   1.599
 6911TIP3    H120678   6.437   5.046   1.591
 6911TIP3    H220679   6.359   5.146   1.509
 6912TIP3   OH220680   6.437   1.235   2.748
 6912TIP3    H120681   6.485   1.287   2.683
 6912TIP3    H220682   6.498   1.164   2.771
 6913TIP3   OH220683   0.000   3.822   4.798
 6913TIP3    H120684  -0.076   3.780   4.757
 6913TIP3    H220685   0.062   3.835   4.726
 6914TIP3   OH220686   0.602   0.167   5.911
 6914TIP3    H120687   0.613   0.245   5.965
 6914TIP3    H220688   0.645   0.188   5.828
 6915TIP3   OH220689   1.205   3.569   5.528
 6915TIP3    H120690   1.288   3.613   5.546
 6915TIP3    H220691   1.219   3.527   5.443
 6916TIP3   OH220692   4.900   6.919   2.204
 6916TIP3    H120693   4.822   6.871   2.233
 6916TIP3    H220694   4.879   7.011   2.223
 6917TIP3   OH220695   1.172   1.106   2.399
 6917TIP3    H120696   1.263   1.090   2.375
 6917TIP3    H220697   1.164   1.202   2.401
 6918TIP3   OH220698   6.654   0.431   3.470
 6918TIP3    H120699   6.563   0.461   3.471
 6918TIP3    H220700   6.650   0.342   3.434
 6919TIP3   OH220701   2.370   4.858   0.859
 6919TIP3    H120702   2.342   4.871   0.768
 6919TIP3    H220703   2.316   4.785   0.891
 6920TIP3   OH220704   0.488   4.926   6.400
 6920TIP3    H120705   0.509   5.015   6.371
 6920TIP3    H220706   0.453   4.883   6.322
 6921TIP3   OH220707   2.277   5.969   3.288
 6921TIP3    H120708   2.264   6.029   3.361
 6921TIP3    H220709   2.370   5.948   3.291
 6922TIP3   OH220710   1.334   1.542   6.420
 6922TIP3    H120711   1.279   1.567   6.494
 6922TIP3    H220712   1.376   1.461   6.449
 6923TIP3   OH220713   1.831   4.832   4.233
 6923TIP3    H120714   1.763   4.770   4.207
 6923TIP3    H220715   1.788   4.891   4.295
 6924TIP3   OH220716   0.960   2.239   5.121
 6924TIP3    H120717   1.012   2.319   5.132
 6924TIP3    H220718   0.872   2.271   5.100
 6925TIP3   OH220719   1.176   1.824   0.199
 6925TIP3    H120720   1.175   1.732   0.173
 6925TIP3    H220721   1.215   1.870   0.125
 6926TIP3   OH220722   7.278   3.222   3.311
 6926TIP3    H120723   7.361   3.267   3.297
 6926TIP3    H220724   7.279   3.198   3.403
 6927TIP3   OH220725   3.060   2.219   0.359
 6927TIP3    H120726   3.103   2.159   0.298
 6927TIP3    H220727   3.019   2.285   0.303
 6928TIP3   OH220728   2.298   3.302   4.906
 6928TIP3    H120729   2.224   3.292   4.967
 6928TIP3    H220730   2.375   3.306   4.962
 6929TIP3   OH220731   4.025   4.026   3.394
 6929TIP3    H120732   4.053   4.097   3.336
 6929TIP3    H220733   4.018   3.949   3.337
 6930TIP3   OH220734   0.949   0.916   2.364
 6930TIP3    H120735   1.014   0.964   2.416
 6930TIP3    H220736   0.945   0.964   2.281
 6931TIP3   OH220737   8.010   6.134   5.786
 6931TIP3    H120738   8.003   6.091   5.701
 6931TIP3    H220739   8.101   6.162   5.792
 6932TIP3   OH220740   0.099   2.833   2.062
 6932TIP3    H120741   0.189   2.865   2.067
 6932TIP3    H220742   0.060   2.858   2.147
 6933TIP3   OH220743   4.537   3.325   6.741
 6933TIP3    H120744   4.591   3.246   6.741
 6933TIP3    H220745   4.565   3.373   6.819
 6934TIP3   OH220746   7.776   3.612   1.971
 6934TIP3    H120747   7.716   3.567   1.911
 6934TIP3    H220748   7.754   3.705   1.962
 6935TIP3   OH220749   1.720   5.702   1.552
 6935TIP3    H120750   1.785   5.767   1.579
 6935TIP3    H220751   1.686   5.667   1.634
 6936TIP3   OH220752   0.459   3.527   4.640
 6936TIP3    H120753   0.506   3.453   4.680
 6936TIP3    H220754   0.528   3.589   4.618
 6937TIP3   OH220755   3.066   5.190   6.049
 6937TIP3    H120756   3.100   5.278   6.032
 6937TIP3    H220757   3.070   5.146   5.964
 6938TIP3   OH220758   4.906   4.103   5.005
 6938TIP3    H120759   4.973   4.168   4.986
 6938TIP3    H220760   4.952   4.020   5.007
 6939TIP3   OH220761   1.382   5.420   0.964
 6939TIP3    H120762   1.325   5.476   0.911
 6939TIP3    H220763   1.463   5.414   0.915
 6940TIP3   OH220764   0.009   7.597   4.295
 6940TIP3    H120765   0.006   7.638   4.381
 6940TIP3    H220766   0.071   7.525   4.305
 6941TIP3   OH220767   3.529   4.999   4.737
 6941TIP3    H120768   3.461   4.983   4.802
 6941TIP3    H220769   3.491   4.966   4.655
 6942TIP3   OH220770   2.941   2.183   5.242
 6942TIP3    H120771   2.949   2.278   5.232
 6942TIP3    H220772   2.988   2.163   5.322
 6943TIP3   OH220773   2.583   6.131   6.536
 6943TIP3    H120774   2.512   6.164   6.591
 6943TIP3    H220775   2.539   6.081   6.468
 6944TIP3   OH220776   7.733   4.342   3.787
 6944TIP3    H120777   7.775   4.318   3.869
 6944TIP3    H220778   7.739   4.437   3.783
 6945TIP3   OH220779   0.098   4.928   6.358
 6945TIP3    H120780   0.162   4.901   6.293
 6945TIP3    H220781   0.101   5.023   6.357
 6946TIP3   OH220782   5.312   4.640   3.478
 6946TIP3    H120783   5.237   4.672   3.428
 6946TIP3    H220784   5.277   4.565   3.527
 6947TIP3   OH220785   3.229   5.894   3.551
 6947TIP3    H120786   3.149   5.842   3.540
 6947TIP3    H220787   3.300   5.831   3.537
 6948TIP3   OH220788   0.113   3.293   5.112
 6948TIP3    H120789   0.030   3.281   5.066
 6948TIP3    H220790   0.095   3.263   5.201
 6949TIP3   OH220791   3.601   2.285   1.260
 6949TIP3    H120792   3.622   2.211   1.317
 6949TIP3    H220793   3.544   2.341   1.312
 6950TIP3   OH220794   2.271   0.814   6.472
 6950TIP3    H120795   2.194   0.762   6.448
 6950TIP3    H220796   2.345   0.761   6.444
 6951TIP3   OH220797   4.090   1.030   2.222
 6951TIP3    H120798   4.160   0.965   2.213
 6951TIP3    H220799   4.009   0.980   2.217
 6952TIP3   OH220800   6.957   4.130   4.247
 6952TIP3    H120801   6.953   4.223   4.224
 6952TIP3    H220802   6.866   4.100   4.238
 6953TIP3   OH220803   0.265   4.786   2.467
 6953TIP3    H120804   0.262   4.846   2.392
 6953TIP3    H220805   0.182   4.800   2.512
 6954TIP3   OH220806   2.846   5.778   1.941
 6954TIP3    H120807   2.754   5.781   1.969
 6954TIP3    H220808   2.895   5.762   2.021
 6955TIP3   OH220809   7.407   2.391   5.382
 6955TIP3    H120810   7.351   2.448   5.331
 6955TIP3    H220811   7.466   2.351   5.319
 6956TIP3   OH220812   5.796   3.230   1.088
 6956TIP3    H120813   5.764   3.316   1.060
 6956TIP3    H220814   5.788   3.175   1.011
 6957TIP3   OH220815   6.272   2.917   0.867
 6957TIP3    H120816   6.250   3.007   0.893
 6957TIP3    H220817   6.365   2.908   0.889
 6958TIP3   OH220818   7.754   7.703   2.140
 6958TIP3    H120819   7.717   7.618   2.120
 6958TIP3    H220820   7.680   7.763   2.140
 6959TIP3   OH220821   3.960   3.778   6.093
 6959TIP3    H120822   3.980   3.819   6.009
 6959TIP3    H220823   3.959   3.850   6.156
 6960TIP3   OH220824   8.012   3.438   2.529
 6960TIP3    H120825   7.918   3.423   2.540
 6960TIP3    H220826   8.052   3.396   2.606
 6961TIP3   OH220827   1.417   5.974   4.525
 6961TIP3    H120828   1.483   5.994   4.592
 6961TIP3    H220829   1.353   5.918   4.570
 6962TIP3   OH220830   5.106   0.345   5.639
 6962TIP3    H120831   5.047   0.389   5.700
 6962TIP3    H220832   5.190   0.390   5.651
 6963TIP3   OH220833   5.197   1.988   2.757
 6963TIP3    H120834   5.204   2.050   2.830
 6963TIP3    H220835   5.156   2.039   2.687
 6964TIP3   OH220836   8.095   5.818   2.125
 6964TIP3    H120837   8.151   5.784   2.055
 6964TIP3    H220838   8.013   5.840   2.082
 6965TIP3   OH220839   2.498   6.094   4.100
 6965TIP3    H120840   2.531   6.057   4.018
 6965TIP3    H220841   2.406   6.114   4.081
 6966TIP3   OH220842   5.731   4.377   5.014
 6966TIP3    H120843   5.778   4.342   4.938
 6966TIP3    H220844   5.782   4.349   5.090
 6967TIP3   OH220845   2.316   2.979   4.671
 6967TIP3    H120846   2.396   2.966   4.721
 6967TIP3    H220847   2.345   2.999   4.582
 6968TIP3   OH220848   5.774   6.496   5.786
 6968TIP3    H120849   5.704   6.432   5.797
 6968TIP3    H220850   5.797   6.523   5.875
 6969TIP3   OH220851   0.521   1.950   2.017
 6969TIP3    H120852   0.505   1.881   1.952
 6969TIP3    H220853   0.571   1.907   2.086
 6970TIP3   OH220854   6.275   4.876   4.589
 6970TIP3    H120855   6.327   4.940   4.637
 6970TIP3    H220856   6.184   4.904   4.602
 6971TIP3   OH220857   7.973   5.677   5.352
 6971TIP3    H120858   7.941   5.733   5.281
 6971TIP3    H220859   7.911   5.603   5.354
 6972TIP3   OH220860   1.290   5.662   1.115
 6972TIP3    H120861   1.358   5.661   1.048
 6972TIP3    H220862   1.335   5.636   1.196
 6973TIP3   OH220863   1.972   1.650   1.416
 6973TIP3    H120864   1.891   1.701   1.416
 6973TIP3    H220865   1.992   1.637   1.323
 6974TIP3   OH220866   6.557   5.560   2.970
 6974TIP3    H120867   6.473   5.578   3.013
 6974TIP3    H220868   6.579   5.642   2.926
 6975TIP3   OH220869   8.299   1.051   2.053
 6975TIP3    H120870   8.349   0.970   2.061
 6975TIP3    H220871   8.207   1.024   2.058
 6976TIP3   OH220872   6.844   7.696   2.503
 6976TIP3    H120873   6.836   7.646   2.422
 6976TIP3    H220874   6.855   7.787   2.475
 6977TIP3   OH220875   0.091   0.892   5.872
 6977TIP3    H120876   0.139   0.877   5.790
 6977TIP3    H220877   0.104   0.985   5.890
 6978TIP3   OH220878   4.775   5.737   0.911
 6978TIP3    H120879   4.867   5.737   0.884
 6978TIP3    H220880   4.744   5.826   0.894
 6979TIP3   OH220881   4.896   0.825   2.361
 6979TIP3    H120882   4.965   0.769   2.397
 6979TIP3    H220883   4.824   0.817   2.423
 6980TIP3   OH220884   2.022   3.937   3.959
 6980TIP3    H120885   2.095   3.988   3.993
 6980TIP3    H220886   2.039   3.848   3.988
 6981TIP3   OH220887   4.526   0.582   6.672
 6981TIP3    H120888   4.589   0.510   6.676
 6981TIP3    H220889   4.569   0.648   6.618
 6982TIP3   OH220890   4.853   2.186   2.658
 6982TIP3    H120891   4.835   2.201   2.751
 6982TIP3    H220892   4.948   2.192   2.650
 6983TIP3   OH220893   0.122   3.273   1.331
 6983TIP3    H120894   0.186   3.247   1.397
 6983TIP3    H220895   0.116   3.368   1.340
 6984TIP3   OH220896   5.441   3.053   4.524
 6984TIP3    H120897   5.348   3.070   4.532
 6984TIP3    H220898   5.460   3.063   4.430
 6985TIP3   OH220899   6.105   0.689   4.196
 6985TIP3    H120900   6.100   0.785   4.191
 6985TIP3    H220901   6.016   0.659   4.179
 6986TIP3   OH220902   7.841   2.097   6.675
 6986TIP3    H120903   7.784   2.046   6.617
 6986TIP3    H220904   7.788   2.112   6.753
 6987TIP3   OH220905   4.010   4.330   5.462
 6987TIP3    H120906   4.049   4.390   5.526
 6987TIP3    H220907   3.948   4.385   5.413
 6988TIP3   OH220908   3.917   1.552   1.423
 6988TIP3    H120909   3.948   1.623   1.480
 6988TIP3    H220910   3.827   1.537   1.452
 6989TIP3   OH220911   1.479   3.657   5.599
 6989TIP3    H120912   1.546   3.600   5.561
 6989TIP3    H220913   1.497   3.656   5.693
 6990TIP3   OH220914   7.735   3.413   3.513
 6990TIP3    H120915   7.794   3.370   3.451
 6990TIP3    H220916   7.751   3.368   3.596
 6991TIP3   OH220917   4.999   5.479   4.300
 6991TIP3    H120918   5.060   5.473   4.226
 6991TIP3    H220919   5.038   5.543   4.359
 6992TIP3   OH220920   3.986   7.742   0.462
 6992TIP3    H120921   3.937   7.661   0.446
 6992TIP3    H220922   4.026   7.729   0.548
 6993TIP3   OH220923   2.647   1.075   3.757
 6993TIP3    H120924   2.684   1.125   3.684
 6993TIP3    H220925   2.568   1.034   3.720
 6994TIP3   OH220926   4.036   5.304   4.058
 6994TIP3    H120927   4.029   5.244   4.132
 6994TIP3    H220928   3.982   5.379   4.084
 6995TIP3   OH220929   3.188   6.651   2.704
 6995TIP3    H120930   3.155   6.716   2.642
 6995TIP3    H220931   3.277   6.681   2.725
 6996TIP3   OH220932   4.951   7.274   4.523
 6996TIP3    H120933   4.978   7.290   4.432
 6996TIP3    H220934   5.007   7.201   4.552
 6997TIP3   OH220935   0.211   5.239   5.004
 6997TIP3    H120936   0.177   5.151   4.984
 6997TIP3    H220937   0.297   5.241   4.963
 6998TIP3   OH220938   3.865   1.691   4.705
 6998TIP3    H120939   3.867   1.631   4.780
 6998TIP3    H220940   3.952   1.684   4.666
 6999TIP3   OH220941   3.556   4.132   5.963
 6999TIP3    H120942   3.571   4.109   6.055
 6999TIP3    H220943   3.468   4.099   5.944
 7000TIP3   OH220944   5.045   6.577   4.881
 7000TIP3    H120945   5.119   6.610   4.932
 7000TIP3    H220946   4.992   6.654   4.863
 7001TIP3   OH220947   3.037   2.490   2.584
 7001TIP3    H120948   3.081   2.412   2.616
 7001TIP3    H220949   3.028   2.546   2.661
 7002TIP3   OH220950   2.546   1.933   5.930
 7002TIP3    H120951   2.497   2.011   5.956
 7002TIP3    H220952   2.488   1.889   5.867
 7003TIP3   OH220953   3.980   4.716   2.286
 7003TIP3    H120954   3.992   4.791   2.228
 7003TIP3    H220955   3.986   4.640   2.228
 7004TIP3   OH220956   6.886   0.910   0.849
 7004TIP3    H120957   6.965   0.961   0.833
 7004TIP3    H220958   6.885   0.894   0.943
 7005TIP3   OH220959   7.660   5.800   3.410
 7005TIP3    H120960   7.619   5.881   3.381
 7005TIP3    H220961   7.744   5.798   3.364
 7006TIP3   OH220962   3.624   1.978   6.027
 7006TIP3    H120963   3.712   1.954   5.999
 7006TIP3    H220964   3.566   1.947   5.957
 7007TIP3   OH220965   3.129   2.521   2.329
 7007TIP3    H120966   3.164   2.432   2.326
 7007TIP3    H220967   3.106   2.534   2.421
 7008TIP3   OH220968   4.247   5.517   0.979
 7008TIP3    H120969   4.279   5.578   0.912
 7008TIP3    H220970   4.251   5.567   1.060
 7009TIP3   OH220971   1.631   6.816   3.924
 7009TIP3    H120972   1.654   6.861   3.843
 7009TIP3    H220973   1.565   6.872   3.965
 7010TIP3   OH220974   7.313   6.000   4.700
 7010TIP3    H120975   7.393   6.052   4.713
 7010TIP3    H220976   7.299   6.002   4.605
 7011TIP3   OH220977   4.921   7.349   2.632
 7011TIP3    H120978   4.872   7.381   2.708
 7011TIP3    H220979   4.873   7.270   2.605
 7012TIP3   OH220980   2.743   3.504   3.296
 7012TIP3    H120981   2.673   3.503   3.362
 7012TIP3    H220982   2.782   3.591   3.304
 7013TIP3   OH220983   6.694   5.743   6.332
 7013TIP3    H120984   6.723   5.818   6.280
 7013TIP3    H220985   6.734   5.758   6.418
 7014TIP3   OH220986   4.271   6.299   0.148
 7014TIP3    H120987   4.302   6.388   0.161
 7014TIP3    H220988   4.200   6.308   0.084
 7015TIP3   OH220989   3.393   0.304   3.559
 7015TIP3    H120990   3.479   0.343   3.547
 7015TIP3    H220991   3.342   0.334   3.484
 7016TIP3   OH220992   0.023   0.455   3.827
 7016TIP3    H120993   0.011   0.519   3.897
 7016TIP3    H220994   0.085   0.392   3.862
 7017TIP3   OH220995   3.789   4.192   6.372
 7017TIP3    H120996   3.854   4.237   6.317
 7017TIP3    H220997   3.839   4.161   6.448
 7018TIP3   OH220998   7.801   0.603   2.884
 7018TIP3    H120999   7.762   0.517   2.899
 7018TIP3    H221000   7.802   0.644   2.971
 7019TIP3   OH221001   6.474   5.463   3.784
 7019TIP3    H121002   6.459   5.389   3.844
 7019TIP3    H221003   6.505   5.422   3.703
 7020TIP3   OH221004   0.646   4.059   1.876
 7020TIP3    H121005   0.591   4.065   1.798
 7020TIP3    H221006   0.583   4.050   1.948
 7021TIP3   OH221007   5.333   3.498   4.241
 7021TIP3    H121008   5.263   3.517   4.303
 7021TIP3    H221009   5.322   3.562   4.171
 7022TIP3   OH221010   0.838   4.881   3.313
 7022TIP3    H121011   0.873   4.956   3.361
 7022TIP3    H221012   0.784   4.834   3.378
 7023TIP3   OH221013   4.421   0.180   5.538
 7023TIP3    H121014   4.433   0.192   5.632
 7023TIP3    H221015   4.339   0.132   5.530
 7024TIP3   OH221016   0.469   1.692   5.598
 7024TIP3    H121017   0.471   1.634   5.521
 7024TIP3    H221018   0.550   1.674   5.644
 7025TIP3   OH221019   0.961   5.091   5.360
 7025TIP3    H121020   1.040   5.124   5.316
 7025TIP3    H221021   0.896   5.161   5.347
 7026TIP3   OH221022   2.962   3.327   3.286
 7026TIP3    H121023   3.000   3.410   3.315
 7026TIP3    H221024   2.874   3.350   3.256
 7027TIP3   OH221025   7.401   6.525   1.801
 7027TIP3    H121026   7.396   6.491   1.711
 7027TIP3    H221027   7.315   6.506   1.839
 7028TIP3   OH221028   2.969   1.816   1.822
 7028TIP3    H121029   3.020   1.884   1.867
 7028TIP3    H221030   2.878   1.838   1.840
 7029TIP3   OH221031   0.154   3.570   0.499
 7029TIP3    H121032   0.081   3.549   0.441
 7029TIP3    H221033   0.113   3.594   0.582
 7030TIP3   OH221034   4.567   2.895   6.584
 7030TIP3    H121035   4.651   2.908   6.539
 7030TIP3    H221036   4.548   2.802   6.573
 7031TIP3   OH221037   4.824   3.781   3.277
 7031TIP3    H121038   4.733   3.755   3.260
 7031TIP3    H221039   4.876   3.726   3.218
 7032TIP3   OH221040   7.549   6.963   4.100
 7032TIP3    H121041   7.640   6.968   4.073
 7032TIP3    H221042   7.535   7.041   4.154
 7033TIP3   OH221043   0.604   3.835   4.714
 7033TIP3    H121044   0.606   3.870   4.624
 7033TIP3    H221045   0.512   3.816   4.730
 7034TIP3   OH221046   1.830   4.323   4.441
 7034TIP3    H121047   1.794   4.407   4.471
 7034TIP3    H221048   1.925   4.333   4.449
 7035TIP3   OH221049   3.311   2.549   3.060
 7035TIP3    H121050   3.377   2.607   3.098
 7035TIP3    H221051   3.248   2.535   3.130
 7036TIP3   OH221052   2.378   2.071   2.154
 7036TIP3    H121053   2.346   2.084   2.065
 7036TIP3    H221054   2.462   2.117   2.156
 7037TIP3   OH221055   1.181   6.076   6.556
 7037TIP3    H121056   1.111   6.016   6.582
 7037TIP3    H221057   1.188   6.137   6.630
 7038TIP3   OH221058   5.023   2.235   2.304
 7038TIP3    H121059   5.078   2.206   2.231
 7038TIP3    H221060   5.049   2.326   2.320
 7039TIP3   OH221061   8.245   0.081   4.737
 7039TIP3    H121062   8.303   0.157   4.742
 7039TIP3    H221063   8.218   0.078   4.645
 7040TIP3   OH221064   3.336   2.616   1.346
 7040TIP3    H121065   3.286   2.696   1.334
 7040TIP3    H221066   3.427   2.641   1.328
 7041TIP3   OH221067   5.565   1.352   2.640
 7041TIP3    H121068   5.593   1.322   2.553
 7041TIP3    H221069   5.641   1.398   2.675
 7042TIP3   OH221070   6.452   1.110   1.861
 7042TIP3    H121071   6.386   1.061   1.812
 7042TIP3    H221072   6.418   1.199   1.868
 7043TIP3   OH221073   0.244   5.342   3.239
 7043TIP3    H121074   0.173   5.288   3.272
 7043TIP3    H221075   0.276   5.389   3.315
 7044TIP3   OH221076   5.800   0.633   1.736
 7044TIP3    H121077   5.738   0.562   1.720
 7044TIP3    H221078   5.874   0.614   1.680
 7045TIP3   OH221079   6.415   4.645   1.240
 7045TIP3    H121080   6.461   4.666   1.159
 7045TIP3    H221081   6.471   4.680   1.309
 7046TIP3   OH221082   0.860   7.823   3.671
 7046TIP3    H121083   0.870   7.728   3.681
 7046TIP3    H221084   0.882   7.840   3.580
 7047TIP3   OH221085   6.121   2.063   1.044
 7047TIP3    H121086   6.188   2.103   1.099
 7047TIP3    H221087   6.039   2.081   1.088
 7048TIP3   OH221088   0.716   0.598   4.528
 7048TIP3    H121089   0.625   0.599   4.499
 7048TIP3    H221090   0.726   0.515   4.574
 7049TIP3   OH221091   6.280   0.624   1.352
 7049TIP3    H121092   6.226   0.552   1.319
 7049TIP3    H221093   6.301   0.676   1.275
 7050TIP3   OH221094   6.855   6.803   4.436
 7050TIP3    H121095   6.796   6.856   4.382
 7050TIP3    H221096   6.838   6.833   4.526
 7051TIP3   OH221097   7.006   2.819   3.086
 7051TIP3    H121098   6.912   2.809   3.101
 7051TIP3    H221099   7.021   2.913   3.090
 7052TIP3   OH221100   7.205   2.182   3.658
 7052TIP3    H121101   7.237   2.189   3.748
 7052TIP3    H221102   7.136   2.116   3.663
 7053TIP3   OH221103   4.409   0.478   2.853
 7053TIP3    H121104   4.462   0.508   2.779
 7053TIP3    H221105   4.468   0.481   2.928
 7054TIP3   OH221106   4.084   2.701   4.747
 7054TIP3    H121107   4.044   2.783   4.776
 7054TIP3    H221108   4.111   2.657   4.827
 7055TIP3   OH221109   0.384   4.200   5.160
 7055TIP3    H121110   0.443   4.270   5.186
 7055TIP3    H221111   0.401   4.187   5.066
 7056TIP3   OH221112   2.102   0.667   4.304
 7056TIP3    H121113   2.100   0.709   4.390
 7056TIP3    H221114   2.161   0.722   4.252
 7057TIP3   OH221115   1.094   3.701   2.393
 7057TIP3    H121116   1.183   3.714   2.361
 7057TIP3    H221117   1.049   3.656   2.322
 7058TIP3   OH221118   3.759   0.002   3.971
 7058TIP3    H121119   3.764   0.032   3.880
 7058TIP3    H221120   3.703   0.065   4.015
 7059TIP3   OH221121   6.851   5.807   2.306
 7059TIP3    H121122   6.886   5.847   2.226
 7059TIP3    H221123   6.929   5.777   2.354
 7060TIP3   OH221124   2.244   5.436   2.919
 7060TIP3    H121125   2.216   5.375   2.851
 7060TIP3    H221126   2.324   5.397   2.954
 7061TIP3   OH221127   4.681   7.670   0.557
 7061TIP3    H121128   4.632   7.753   0.560
 7061TIP3    H221129   4.613   7.603   0.545
 7062TIP3   OH221130   4.182   4.501   6.398
 7062TIP3    H121131   4.149   4.587   6.371
 7062TIP3    H221132   4.270   4.519   6.432
 7063TIP3   OH221133   7.259   7.287   5.062
 7063TIP3    H121134   7.223   7.271   4.975
 7063TIP3    H221135   7.279   7.381   5.063
 7064TIP3   OH221136   3.363   6.541   4.232
 7064TIP3    H121137   3.391   6.587   4.311
 7064TIP3    H221138   3.444   6.520   4.186
 7065TIP3   OH221139   1.482   5.173   3.468
 7065TIP3    H121140   1.473   5.173   3.372
 7065TIP3    H221141   1.399   5.139   3.500
 7066TIP3   OH221142   5.373   4.893   0.057
 7066TIP3    H121143   5.337   4.949   0.126
 7066TIP3    H221144   5.306   4.893  -0.011
 7067TIP3   OH221145   5.547   6.118   0.334
 7067TIP3    H121146   5.487   6.069   0.277
 7067TIP3    H221147   5.492   6.149   0.406
 7068TIP3   OH221148   8.189   1.100   0.613
 7068TIP3    H121149   8.261   1.057   0.567
 7068TIP3    H221150   8.173   1.180   0.564
 7069TIP3   OH221151   3.510   0.453   2.398
 7069TIP3    H121152   3.492   0.510   2.324
 7069TIP3    H221153   3.517   0.365   2.360
 7070TIP3   OH221154   1.778   5.144   3.078
 7070TIP3    H121155   1.722   5.205   3.126
 7070TIP3    H221156   1.762   5.164   2.986
 7071TIP3   OH221157   6.257   5.051   3.415
 7071TIP3    H121158   6.347   5.083   3.405
 7071TIP3    H221159   6.204   5.129   3.425
 7072TIP3   OH221160   0.763   7.412   1.370
 7072TIP3    H121161   0.813   7.448   1.444
 7072TIP3    H221162   0.673   7.441   1.386
 7073TIP3   OH221163   2.044   6.792   6.625
 7073TIP3    H121164   2.087   6.834   6.700
 7073TIP3    H221165   2.084   6.833   6.548
 7074TIP3   OH221166   6.159   6.322   0.891
 7074TIP3    H121167   6.105   6.318   0.813
 7074TIP3    H221168   6.144   6.239   0.936
 7075TIP3   OH221169   0.028   4.344   1.557
 7075TIP3    H121170   0.001   4.350   1.649
 7075TIP3    H221171   0.045   4.435   1.531
 7076TIP3   OH221172   2.274   6.569   1.417
 7076TIP3    H121173   2.252   6.640   1.477
 7076TIP3    H221174   2.247   6.600   1.331
 7077TIP3   OH221175   2.769   4.377   2.914
 7077TIP3    H121176   2.676   4.385   2.893
 7077TIP3    H221177   2.771   4.333   2.999
 7078TIP3   OH221178   1.398   6.070   1.827
 7078TIP3    H121179   1.378   6.043   1.737
 7078TIP3    H221180   1.443   5.994   1.865
 7079TIP3   OH221181   7.970   2.032   2.413
 7079TIP3    H121182   8.038   2.007   2.350
 7079TIP3    H221183   7.964   1.957   2.473
 7080TIP3   OH221184   7.550   5.449   0.721
 7080TIP3    H121185   7.551   5.522   0.783
 7080TIP3    H221186   7.552   5.491   0.635
 7081TIP3   OH221187   4.292   2.526   0.331
 7081TIP3    H121188   4.328   2.504   0.245
 7081TIP3    H221189   4.293   2.443   0.378
 7082TIP3   OH221190   0.733   1.941   4.975
 7082TIP3    H121191   0.792   1.983   5.038
 7082TIP3    H221192   0.768   1.964   4.889
 7083TIP3   OH221193   3.419   4.086   3.668
 7083TIP3    H121194   3.500   4.131   3.644
 7083TIP3    H221195   3.372   4.075   3.585
 7084TIP3   OH221196   0.402   1.011   5.501
 7084TIP3    H121197   0.372   1.101   5.507
 7084TIP3    H221198   0.494   1.018   5.476
 7085TIP3   OH221199   7.607   5.690   0.889
 7085TIP3    H121200   7.694   5.650   0.897
 7085TIP3    H221201   7.624   5.784   0.887
 7086TIP3   OH221202   2.841   4.714   5.434
 7086TIP3    H121203   2.886   4.786   5.390
 7086TIP3    H221204   2.888   4.636   5.406
 7087TIP3   OH221205   7.850   1.201   5.165
 7087TIP3    H121206   7.935   1.207   5.208
 7087TIP3    H221207   7.857   1.260   5.090
 7088TIP3   OH221208   5.798   4.938   1.769
 7088TIP3    H121209   5.739   4.991   1.823
 7088TIP3    H221210   5.882   4.942   1.815
 7089TIP3   OH221211   0.154   6.040   1.196
 7089TIP3    H121212   0.219   6.095   1.153
 7089TIP3    H221213   0.193   5.952   1.195
 7090TIP3   OH221214   7.615   4.537   4.474
 7090TIP3    H121215   7.709   4.551   4.474
 7090TIP3    H221216   7.580   4.605   4.532
 7091TIP3   OH221217   2.807   4.453   0.119
 7091TIP3    H121218   2.741   4.477   0.185
 7091TIP3    H221219   2.884   4.506   0.142
 7092TIP3   OH221220   6.455   5.155   0.936
 7092TIP3    H121221   6.397   5.145   0.861
 7092TIP3    H221222   6.437   5.077   0.990
 7093TIP3   OH221223   3.098   3.225   5.667
 7093TIP3    H121224   3.119   3.167   5.740
 7093TIP3    H221225   3.132   3.179   5.590
 7094TIP3   OH221226   0.614   3.366   4.801
 7094TIP3    H121227   0.581   3.276   4.806
 7094TIP3    H221228   0.690   3.368   4.859
 7095TIP3   OH221229   1.170   4.607   4.992
 7095TIP3    H121230   1.093   4.602   5.049
 7095TIP3    H221231   1.194   4.516   4.976
 7096TIP3   OH221232   7.751   0.436   1.638
 7096TIP3    H121233   7.698   0.504   1.680
 7096TIP3    H221234   7.782   0.475   1.556
 7097TIP3   OH221235   1.267   2.247   1.615
 7097TIP3    H121236   1.337   2.254   1.551
 7097TIP3    H221237   1.308   2.206   1.691
 7098TIP3   OH221238   1.375   3.478   5.944
 7098TIP3    H121239   1.399   3.418   6.015
 7098TIP3    H221240   1.374   3.423   5.866
 7099TIP3   OH221241   1.180   3.346   4.546
 7099TIP3    H121242   1.183   3.441   4.530
 7099TIP3    H221243   1.153   3.338   4.638
 7100TIP3   OH221244   7.827   3.636   3.381
 7100TIP3    H121245   7.776   3.562   3.412
 7100TIP3    H221246   7.893   3.650   3.449
 7101TIP3   OH221247   0.932   4.237   2.495
 7101TIP3    H121248   0.918   4.169   2.561
 7101TIP3    H221249   0.992   4.299   2.536
 7102TIP3   OH221250   7.613   5.804   0.094
 7102TIP3    H121251   7.589   5.894   0.119
 7102TIP3    H221252   7.539   5.773   0.041
 7103TIP3   OH221253   5.669   2.168   5.233
 7103TIP3    H121254   5.694   2.209   5.316
 7103TIP3    H221255   5.741   2.108   5.213
 7104TIP3   OH221256   2.672   3.679   6.020
 7104TIP3    H121257   2.611   3.678   5.947
 7104TIP3    H221258   2.654   3.761   6.066
 7105TIP3   OH221259   7.882   7.628   2.595
 7105TIP3    H121260   7.851   7.690   2.529
 7105TIP3    H221261   7.905   7.549   2.546
 7106TIP3   OH221262   3.089   1.362   1.462
 7106TIP3    H121263   3.058   1.275   1.437
 7106TIP3    H221264   3.035   1.387   1.537
 7107TIP3   OH221265   4.052   2.038   5.931
 7107TIP3    H121266   4.067   2.007   5.841
 7107TIP3    H221267   3.990   2.111   5.921
 7108TIP3   OH221268   7.041   0.819   1.783
 7108TIP3    H121269   6.957   0.816   1.828
 7108TIP3    H221270   7.051   0.732   1.743
 7109TIP3   OH221271   1.498   2.933   1.710
 7109TIP3    H121272   1.478   2.884   1.790
 7109TIP3    H221273   1.459   3.019   1.724
 7110TIP3   OH221274   5.115   0.873   6.298
 7110TIP3    H121275   5.198   0.919   6.284
 7110TIP3    H221276   5.081   0.908   6.380
 7111TIP3   OH221277   0.773   2.042   3.411
 7111TIP3    H121278   0.851   1.999   3.446
 7111TIP3    H221279   0.759   2.000   3.326
 7112TIP3   OH221280   7.282   6.466   2.826
 7112TIP3    H121281   7.239   6.381   2.816
 7112TIP3    H221282   7.344   6.454   2.897
 7113TIP3   OH221283   1.329   1.092   3.506
 7113TIP3    H121284   1.304   1.077   3.597
 7113TIP3    H221285   1.375   1.011   3.481
 7114TIP3   OH221286   0.281   5.452   3.478
 7114TIP3    H121287   0.202   5.496   3.509
 7114TIP3    H221288   0.353   5.502   3.517
 7115TIP3   OH221289   7.497   7.822   4.904
 7115TIP3    H121290   7.534   7.853   4.822
 7115TIP3    H221291   7.446   7.745   4.880
 7116TIP3   OH221292   6.828   1.152   3.640
 7116TIP3    H121293   6.746   1.104   3.654
 7116TIP3    H221294   6.820   1.229   3.695
 7117TIP3   OH221295   3.079   6.728   2.016
 7117TIP3    H121296   3.151   6.665   2.026
 7117TIP3    H221297   3.116   6.798   1.962
 7118TIP3   OH221298   0.215   7.375   1.302
 7118TIP3    H121299   0.200   7.326   1.382
 7118TIP3    H221300   0.156   7.337   1.238
 7119TIP3   OH221301   3.670   3.626   6.160
 7119TIP3    H121302   3.688   3.708   6.207
 7119TIP3    H221303   3.695   3.645   6.070
 7120TIP3   OH221304   7.345   5.451   4.422
 7120TIP3    H121305   7.337   5.433   4.516
 7120TIP3    H221306   7.255   5.444   4.389
 7121TIP3   OH221307   6.262   5.145   6.030
 7121TIP3    H121308   6.200   5.114   5.964
 7121TIP3    H221309   6.210   5.199   6.089
 7122TIP3   OH221310   3.085   3.924   1.437
 7122TIP3    H121311   3.017   3.962   1.382
 7122TIP3    H221312   3.162   3.978   1.420
 7123TIP3   OH221313   5.425   4.254   5.553
 7123TIP3    H121314   5.499   4.200   5.581
 7123TIP3    H221315   5.370   4.262   5.630
 7124TIP3   OH221316   7.821   5.537   0.587
 7124TIP3    H121317   7.844   5.447   0.563
 7124TIP3    H221318   7.742   5.557   0.536
 7125TIP3   OH221319   0.112   6.319   1.210
 7125TIP3    H121320   0.204   6.296   1.217
 7125TIP3    H221321   0.112   6.408   1.176
 7126TIP3   OH221322   3.006   4.873   3.725
 7126TIP3    H121323   3.089   4.857   3.681
 7126TIP3    H221324   3.004   4.811   3.798
 7127TIP3   OH221325   4.288   4.152   3.915
 7127TIP3    H121326   4.209   4.116   3.875
 7127TIP3    H221327   4.274   4.144   4.009
 7128TIP3   OH221328   1.583   5.404   2.311
 7128TIP3    H121329   1.650   5.377   2.248
 7128TIP3    H221330   1.521   5.331   2.312
 7129TIP3   OH221331   3.752   3.021   3.274
 7129TIP3    H121332   3.702   2.984   3.201
 7129TIP3    H221333   3.773   3.110   3.246
 7130TIP3   OH221334   1.543   3.768   4.783
 7130TIP3    H121335   1.486   3.830   4.828
 7130TIP3    H221336   1.549   3.801   4.693
 7131TIP3   OH221337   2.725   1.575   2.479
 7131TIP3    H121338   2.682   1.531   2.553
 7131TIP3    H221339   2.815   1.543   2.482
 7132TIP3   OH221340   6.415   4.324   6.492
 7132TIP3    H121341   6.384   4.233   6.498
 7132TIP3    H221342   6.362   4.362   6.422
 7133TIP3   OH221343   3.173   4.267   1.495
 7133TIP3    H121344   3.244   4.320   1.531
 7133TIP3    H221345   3.218   4.201   1.442
 7134TIP3   OH221346   4.622   1.102   4.807
 7134TIP3    H121347   4.546   1.052   4.836
 7134TIP3    H221348   4.688   1.087   4.875
 7135TIP3   OH221349   7.138   0.882   2.029
 7135TIP3    H121350   7.171   0.971   2.015
 7135TIP3    H221351   7.103   0.856   1.943
 7136TIP3   OH221352   5.225   2.406   2.118
 7136TIP3    H121353   5.317   2.385   2.097
 7136TIP3    H221354   5.188   2.436   2.035
 7137TIP3   OH221355   1.436   1.962   1.517
 7137TIP3    H121356   1.427   2.031   1.451
 7137TIP3    H221357   1.352   1.917   1.517
 7138TIP3   OH221358   7.390   2.790   4.846
 7138TIP3    H121359   7.362   2.699   4.859
 7138TIP3    H221360   7.323   2.842   4.891
 7139TIP3   OH221361   1.776   7.335   0.233
 7139TIP3    H121362   1.811   7.322   0.321
 7139TIP3    H221363   1.836   7.287   0.175
 7140TIP3   OH221364   4.074   7.634   0.711
 7140TIP3    H121365   3.986   7.643   0.747
 7140TIP3    H221366   4.121   7.712   0.742
 7141TIP3   OH221367   6.442   4.602   2.432
 7141TIP3    H121368   6.432   4.664   2.504
 7141TIP3    H221369   6.476   4.522   2.474
 7142TIP3   OH221370   0.102   1.529   3.312
 7142TIP3    H121371   0.076   1.475   3.237
 7142TIP3    H221372   0.138   1.466   3.375
 7143TIP3   OH221373   8.142   1.273   5.280
 7143TIP3    H121374   8.116   1.363   5.295
 7143TIP3    H221375   8.237   1.277   5.267
 7144TIP3   OH221376   5.138   3.718   3.340
 7144TIP3    H121377   5.144   3.745   3.248
 7144TIP3    H221378   5.197   3.643   3.346
 7145TIP3   OH221379   2.222   3.034   0.798
 7145TIP3    H121380   2.265   2.950   0.784
 7145TIP3    H221381   2.275   3.077   0.865
 7146TIP3   OH221382   2.572   3.446   3.502
 7146TIP3    H121383   2.534   3.454   3.590
 7146TIP3    H221384   2.501   3.472   3.443
 7147TIP3   OH221385   6.726   4.327   4.637
 7147TIP3    H121386   6.660   4.351   4.702
 7147TIP3    H221387   6.763   4.244   4.668
 7148TIP3   OH221388   3.054   6.610   6.083
 7148TIP3    H121389   2.971   6.599   6.130
 7148TIP3    H221390   3.041   6.561   6.001
 7149TIP3   OH221391   5.899   4.513   0.426
 7149TIP3    H121392   5.828   4.538   0.366
 7149TIP3    H221393   5.974   4.563   0.395
 7150TIP3   OH221394   2.637   2.225   4.232
 7150TIP3    H121395   2.642   2.134   4.261
 7150TIP3    H221396   2.689   2.274   4.295
 7151TIP3   OH221397   6.690   0.538   0.192
 7151TIP3    H121398   6.683   0.555   0.098
 7151TIP3    H221399   6.684   0.443   0.199
 7152TIP3   OH221400   6.946   0.665   5.537
 7152TIP3    H121401   6.956   0.667   5.442
 7152TIP3    H221402   6.873   0.725   5.555
 7153TIP3   OH221403   7.293   6.810   6.008
 7153TIP3    H121404   7.385   6.817   6.033
 7153TIP3    H221405   7.290   6.735   5.948
 7154TIP3   OH221406   7.710   2.704   1.100
 7154TIP3    H121407   7.764   2.727   1.025
 7154TIP3    H221408   7.771   2.670   1.165
 7155TIP3   OH221409   3.295   7.250   6.014
 7155TIP3    H121410   3.265   7.217   6.098
 7155TIP3    H221411   3.225   7.227   5.953
 7156TIP3   OH221412   3.262   0.472   1.845
 7156TIP3    H121413   3.355   0.494   1.852
 7156TIP3    H221414   3.241   0.432   1.930
 7157TIP3   OH221415   7.640   5.381   4.445
 7157TIP3    H121416   7.668   5.472   4.442
 7157TIP3    H221417   7.544   5.385   4.445
 7158TIP3   OH221418   1.558   0.106   5.847
 7158TIP3    H121419   1.517   0.028   5.883
 7158TIP3    H221420   1.488   0.151   5.801
 7159TIP3   OH221421   7.136   7.205   6.457
 7159TIP3    H121422   7.195   7.263   6.505
 7159TIP3    H221423   7.070   7.178   6.521
 7160TIP3   OH221424   6.483   4.948   2.937
 7160TIP3    H121425   6.423   4.969   2.866
 7160TIP3    H221426   6.427   4.915   3.007
 7161TIP3   OH221427   6.010   1.230   4.363
 7161TIP3    H121428   5.939   1.220   4.300
 7161TIP3    H221429   5.982   1.181   4.440
 7162TIP3   OH221430   4.421   4.693   3.174
 7162TIP3    H121431   4.462   4.699   3.260
 7162TIP3    H221432   4.363   4.618   3.180
 7163TIP3   OH221433   0.211   3.915   6.672
 7163TIP3    H121434   0.300   3.920   6.707
 7163TIP3    H221435   0.162   3.982   6.719
 7164TIP3   OH221436   0.145   7.201   4.353
 7164TIP3    H121437   0.108   7.203   4.441
 7164TIP3    H221438   0.159   7.293   4.331
 7165TIP3   OH221439   2.306   2.389   1.216
 7165TIP3    H121440   2.211   2.391   1.208
 7165TIP3    H221441   2.328   2.296   1.219
 7166TIP3   OH221442   6.096   4.446   2.770
 7166TIP3    H121443   6.093   4.402   2.685
 7166TIP3    H221444   6.177   4.417   2.810
 7167TIP3   OH221445   4.527   0.353   2.123
 7167TIP3    H121446   4.524   0.399   2.039
 7167TIP3    H221447   4.467   0.279   2.112
 7168TIP3   OH221448   5.798   3.524   3.140
 7168TIP3    H121449   5.824   3.452   3.082
 7168TIP3    H221450   5.811   3.489   3.228
 7169TIP3   OH221451   1.290   7.493   3.323
 7169TIP3    H121452   1.251   7.471   3.238
 7169TIP3    H221453   1.365   7.548   3.301
 7170TIP3   OH221454   6.892   3.631   4.692
 7170TIP3    H121455   6.961   3.667   4.748
 7170TIP3    H221456   6.838   3.579   4.751
 7171TIP3   OH221457   0.460   5.172   2.430
 7171TIP3    H121458   0.416   5.165   2.345
 7171TIP3    H221459   0.486   5.083   2.451
 7172TIP3   OH221460   1.222   0.315   0.072
 7172TIP3    H121461   1.240   0.379   0.002
 7172TIP3    H221462   1.236   0.230   0.030
 7173TIP3   OH221463   3.773   4.660   4.724
 7173TIP3    H121464   3.801   4.716   4.796
 7173TIP3    H221465   3.694   4.703   4.690
 7174TIP3   OH221466   6.280   5.252   5.473
 7174TIP3    H121467   6.218   5.207   5.417
 7174TIP3    H221468   6.322   5.183   5.524
 7175TIP3   OH221469   7.885   7.653   1.901
 7175TIP3    H121470   7.929   7.567   1.900
 7175TIP3    H221471   7.847   7.659   1.989
 7176TIP3   OH221472   1.795   6.557   6.794
 7176TIP3    H121473   1.718   6.502   6.808
 7176TIP3    H221474   1.775   6.606   6.714
 7177TIP3   OH221475   2.885   0.779   3.689
 7177TIP3    H121476   2.929   0.769   3.773
 7177TIP3    H221477   2.865   0.872   3.683
 7178TIP3   OH221478   3.015   2.361   6.253
 7178TIP3    H121479   3.001   2.281   6.304
 7178TIP3    H221480   3.092   2.341   6.199
 7179TIP3   OH221481   0.285   3.684   1.098
 7179TIP3    H121482   0.308   3.710   1.187
 7179TIP3    H221483   0.283   3.766   1.049
 7180TIP3   OH221484   6.557   0.477   1.263
 7180TIP3    H121485   6.637   0.524   1.238
 7180TIP3    H221486   6.554   0.482   1.358
 7181TIP3   OH221487   7.993   6.328   0.478
 7181TIP3    H121488   8.073   6.336   0.426
 7181TIP3    H221489   7.923   6.324   0.412
 7182TIP3   OH221490   7.536   7.253   2.245
 7182TIP3    H121491   7.533   7.209   2.330
 7182TIP3    H221492   7.463   7.215   2.196
 7183TIP3   OH221493   3.414   7.617   4.623
 7183TIP3    H121494   3.501   7.601   4.586
 7183TIP3    H221495   3.369   7.669   4.557
 7184TIP3   OH221496   4.449   6.402   4.761
 7184TIP3    H121497   4.459   6.438   4.849
 7184TIP3    H221498   4.406   6.318   4.775
 7185TIP3   OH221499   4.244   2.367   2.628
 7185TIP3    H121500   4.247   2.425   2.551
 7185TIP3    H221501   4.308   2.298   2.609
 7186TIP3   OH221502   3.117   0.397   3.049
 7186TIP3    H121503   3.068   0.343   3.110
 7186TIP3    H221504   3.069   0.391   2.967
 7187TIP3   OH221505   0.566   5.959   5.645
 7187TIP3    H121506   0.640   5.958   5.705
 7187TIP3    H221507   0.605   5.977   5.559
 7188TIP3   OH221508   2.281   6.005   5.991
 7188TIP3    H121509   2.319   5.980   5.907
 7188TIP3    H221510   2.235   5.927   6.020
 7189TIP3   OH221511   0.057   5.342   1.797
 7189TIP3    H121512   0.093   5.313   1.881
 7189TIP3    H221513   0.061   5.438   1.801
 7190TIP3   OH221514   4.187   2.902   1.765
 7190TIP3    H121515   4.211   2.965   1.697
 7190TIP3    H221516   4.131   2.951   1.825
 7191TIP3   OH221517   4.431   2.250   0.351
 7191TIP3    H121518   4.462   2.285   0.434
 7191TIP3    H221519   4.388   2.168   0.373
 7192TIP3   OH221520   7.449   5.530   3.686
 7192TIP3    H121521   7.472   5.488   3.769
 7192TIP3    H221522   7.527   5.579   3.662
 7193TIP3   OH221523   3.243   3.089   0.891
 7193TIP3    H121524   3.180   3.144   0.939
 7193TIP3    H221525   3.210   3.088   0.801
 7194TIP3   OH221526   2.784   5.268   3.105
 7194TIP3    H121527   2.797   5.363   3.117
 7194TIP3    H221528   2.790   5.232   3.193
 7195TIP3   OH221529   2.690   1.488   1.104
 7195TIP3    H121530   2.770   1.449   1.070
 7195TIP3    H221531   2.686   1.460   1.195
 7196TIP3   OH221532   1.540   3.588   3.477
 7196TIP3    H121533   1.548   3.547   3.563
 7196TIP3    H221534   1.629   3.609   3.451
 7197TIP3   OH221535   0.825   1.280   6.002
 7197TIP3    H121536   0.754   1.343   6.003
 7197TIP3    H221537   0.903   1.330   6.024
 7198TIP3   OH221538   5.437   5.020   0.338
 7198TIP3    H121539   5.442   4.949   0.402
 7198TIP3    H221540   5.419   5.098   0.390
 7199TIP3   OH221541   0.154   5.628   5.119
 7199TIP3    H121542   0.087   5.618   5.187
 7199TIP3    H221543   0.142   5.717   5.086
 7200TIP3   OH221544   8.080   5.459   5.641
 7200TIP3    H121545   8.058   5.411   5.721
 7200TIP3    H221546   8.026   5.418   5.574
 7201TIP3   OH221547   6.401   6.129   2.365
 7201TIP3    H121548   6.390   6.211   2.317
 7201TIP3    H221549   6.484   6.139   2.411
 7202TIP3   OH221550   3.147   7.470   1.635
 7202TIP3    H121551   3.085   7.521   1.686
 7202TIP3    H221552   3.220   7.454   1.694
 7203TIP3   OH221553   0.426   7.518   3.277
 7203TIP3    H121554   0.464   7.580   3.338
 7203TIP3    H221555   0.488   7.513   3.205
 7204TIP3   OH221556   4.675   0.076   0.550
 7204TIP3    H121557   4.646  -0.014   0.540
 7204TIP3    H221558   4.616   0.126   0.493
 7205TIP3   OH221559   7.822   4.781   6.579
 7205TIP3    H121560   7.837   4.692   6.547
 7205TIP3    H221561   7.909   4.813   6.602
 7206TIP3   OH221562   0.088   3.118   5.728
 7206TIP3    H121563   0.021   3.089   5.790
 7206TIP3    H221564   0.109   3.207   5.756
 7207TIP3   OH221565   6.856   7.776   5.264
 7207TIP3    H121566   6.838   7.869   5.277
 7207TIP3    H221567   6.793   7.731   5.320
 7208TIP3   OH221568   2.041   5.295   2.721
 7208TIP3    H121569   2.033   5.301   2.816
 7208TIP3    H221570   2.117   5.239   2.707
 7209TIP3   OH221571   4.447   4.362   3.913
 7209TIP3    H121572   4.412   4.274   3.924
 7209TIP3    H221573   4.494   4.380   3.994
 7210TIP3   OH221574   6.913   4.160   2.196
 7210TIP3    H121575   6.953   4.132   2.113
 7210TIP3    H221576   6.983   4.209   2.240
 7211TIP3   OH221577   6.002   1.777   6.061
 7211TIP3    H121578   6.066   1.708   6.044
 7211TIP3    H221579   5.956   1.748   6.140
 7212TIP3   OH221580   1.184   0.071   4.528
 7212TIP3    H121581   1.220   0.044   4.613
 7212TIP3    H221582   1.093   0.043   4.531
 7213TIP3   OH221583   7.503   5.493   5.094
 7213TIP3    H121584   7.591   5.454   5.099
 7213TIP3    H221585   7.445   5.418   5.079
 7214TIP3   OH221586   2.589   4.938   1.578
 7214TIP3    H121587   2.648   5.014   1.580
 7214TIP3    H221588   2.634   4.875   1.522
 7215TIP3   OH221589   6.363   4.163   3.783
 7215TIP3    H121590   6.332   4.214   3.708
 7215TIP3    H221591   6.284   4.144   3.834
 7216TIP3   OH221592   6.449   0.624   1.575
 7216TIP3    H121593   6.412   0.620   1.486
 7216TIP3    H221594   6.493   0.540   1.586
 7217TIP3   OH221595   2.065   3.516   5.746
 7217TIP3    H121596   2.144   3.463   5.729
 7217TIP3    H221597   1.994   3.466   5.707
 7218TIP3   OH221598   0.574   1.977   4.217
 7218TIP3    H121599   0.609   1.888   4.215
 7218TIP3    H221600   0.479   1.965   4.207
 7219TIP3   OH221601   6.586   0.499   5.356
 7219TIP3    H121602   6.648   0.501   5.429
 7219TIP3    H221603   6.624   0.436   5.294
 7220TIP3   OH221604   6.598   7.242   4.743
 7220TIP3    H121605   6.649   7.171   4.783
 7220TIP3    H221606   6.662   7.292   4.692
 7221TIP3   OH221607   0.464   6.244   2.586
 7221TIP3    H121608   0.519   6.313   2.550
 7221TIP3    H221609   0.415   6.287   2.656
 7222TIP3   OH221610   2.295   4.261   6.710
 7222TIP3    H121611   2.358   4.288   6.643
 7222TIP3    H221612   2.212   4.299   6.682
 7223TIP3   OH221613   6.657   0.261   5.760
 7223TIP3    H121614   6.585   0.206   5.730
 7223TIP3    H221615   6.632   0.350   5.732
 7224TIP3   OH221616   1.275   1.187   4.852
 7224TIP3    H121617   1.350   1.217   4.801
 7224TIP3    H221618   1.278   1.238   4.932
 7225TIP3   OH221619   7.954   2.547   5.670
 7225TIP3    H121620   8.039   2.567   5.631
 7225TIP3    H221621   7.973   2.480   5.736
 7226TIP3   OH221622   4.067   4.742   6.691
 7226TIP3    H121623   4.074   4.829   6.731
 7226TIP3    H221624   4.038   4.685   6.763
 7227TIP3   OH221625   0.258   2.638   2.587
 7227TIP3    H121626   0.219   2.708   2.639
 7227TIP3    H221627   0.224   2.557   2.625
 7228TIP3   OH221628   2.536   0.995   5.802
 7228TIP3    H121629   2.452   0.983   5.845
 7228TIP3    H221630   2.597   0.943   5.855
 7229TIP3   OH221631   1.397   7.298   1.037
 7229TIP3    H121632   1.320   7.277   0.983
 7229TIP3    H221633   1.362   7.310   1.125
 7230TIP3   OH221634   0.962   1.622   1.412
 7230TIP3    H121635   0.967   1.716   1.431
 7230TIP3    H221636   0.984   1.579   1.494
 7231TIP3   OH221637   5.737   5.890   1.426
 7231TIP3    H121638   5.737   5.973   1.473
 7231TIP3    H221639   5.826   5.883   1.390
 7232TIP3   OH221640   6.930   7.644   5.780
 7232TIP3    H121641   6.968   7.668   5.864
 7232TIP3    H221642   6.991   7.580   5.744
 7233TIP3   OH221643   3.427   6.766   2.842
 7233TIP3    H121644   3.495   6.701   2.824
 7233TIP3    H221645   3.474   6.849   2.846
 7234TIP3   OH221646   6.241   6.433   5.034
 7234TIP3    H121647   6.174   6.370   5.010
 7234TIP3    H221648   6.266   6.410   5.123
 7235TIP3   OH221649   1.861   6.063   3.968
 7235TIP3    H121650   1.871   6.157   3.956
 7235TIP3    H221651   1.805   6.054   4.045
 7236TIP3   OH221652   1.779   2.259   1.353
 7236TIP3    H121653   1.743   2.269   1.441
 7236TIP3    H221654   1.861   2.212   1.366
 7237TIP3   OH221655   2.394   3.882   4.059
 7237TIP3    H121656   2.339   3.853   4.131
 7237TIP3    H221657   2.454   3.946   4.098
 7238TIP3   OH221658   0.185   6.293   2.984
 7238TIP3    H121659   0.280   6.291   2.993
 7238TIP3    H221660   0.156   6.205   3.008
 7239TIP3   OH221661   8.037   4.528   4.620
 7239TIP3    H121662   8.122   4.555   4.586
 7239TIP3    H221663   8.049   4.521   4.715
 7240TIP3   OH221664   1.237   3.316   3.871
 7240TIP3    H121665   1.317   3.266   3.889
 7240TIP3    H221666   1.263   3.377   3.801
 7241TIP3   OH221667   2.003   7.348   0.787
 7241TIP3    H121668   1.908   7.357   0.778
 7241TIP3    H221669   2.039   7.421   0.737
 7242TIP3   OH221670   5.425   3.392   1.754
 7242TIP3    H121671   5.375   3.331   1.807
 7242TIP3    H221672   5.496   3.421   1.812
 7243TIP3   OH221673   3.932   5.646   4.815
 7243TIP3    H121674   3.911   5.673   4.904
 7243TIP3    H221675   3.852   5.660   4.765
 7244TIP3   OH221676   4.501   3.259   1.117
 7244TIP3    H121677   4.563   3.209   1.065
 7244TIP3    H221678   4.509   3.222   1.205
 7245TIP3   OH221679   7.037   6.325   4.151
 7245TIP3    H121680   6.990   6.404   4.180
 7245TIP3    H221681   7.129   6.343   4.172
 7246TIP3   OH221682   4.238   6.906   4.923
 7246TIP3    H121683   4.190   6.903   5.006
 7246TIP3    H221684   4.275   6.995   4.920
 7247TIP3   OH221685   3.032   3.237   0.959
 7247TIP3    H121686   3.017   3.315   1.014
 7247TIP3    H221687   2.998   3.262   0.873
 7248TIP3   OH221688   7.055   3.733   2.690
 7248TIP3    H121689   7.082   3.782   2.767
 7248TIP3    H221690   7.104   3.773   2.618
 7249TIP3   OH221691   2.170   5.420   0.299
 7249TIP3    H121692   2.197   5.502   0.258
 7249TIP3    H221693   2.186   5.353   0.232
 7250TIP3   OH221694   5.447   3.553   1.228
 7250TIP3    H121695   5.509   3.491   1.266
 7250TIP3    H221696   5.477   3.638   1.259
 7251TIP3   OH221697   6.754   5.015   1.581
 7251TIP3    H121698   6.802   4.978   1.506
 7251TIP3    H221699   6.714   4.939   1.623
 7252TIP3   OH221700   7.981   7.439   1.604
 7252TIP3    H121701   8.005   7.349   1.628
 7252TIP3    H221702   8.054   7.469   1.550
 7253TIP3   OH221703   2.085   1.122   1.378
 7253TIP3    H121704   2.107   1.072   1.457
 7253TIP3    H221705   2.119   1.210   1.394
 7254TIP3   OH221706   0.188   0.357   0.407
 7254TIP3    H121707   0.251   0.409   0.456
 7254TIP3    H221708   0.103   0.393   0.432
 7255TIP3   OH221709   3.738   0.094   5.921
 7255TIP3    H121710   3.793   0.059   5.992
 7255TIP3    H221711   3.727   0.021   5.861
 7256TIP3   OH221712   5.093   1.657   6.008
 7256TIP3    H121713   5.060   1.673   5.920
 7256TIP3    H221714   5.110   1.745   6.043
 7257TIP3   OH221715   3.661   3.632   0.550
 7257TIP3    H121716   3.721   3.701   0.522
 7257TIP3    H221717   3.682   3.558   0.492
 7258TIP3   OH221718   6.097   7.471   2.254
 7258TIP3    H121719   6.105   7.466   2.159
 7258TIP3    H221720   6.084   7.380   2.282
 7259TIP3   OH221721   3.792   4.640   2.513
 7259TIP3    H121722   3.826   4.676   2.431
 7259TIP3    H221723   3.861   4.659   2.577
 7260TIP3   OH221724   5.727   5.966   4.912
 7260TIP3    H121725   5.644   5.919   4.922
 7260TIP3    H221726   5.785   5.928   4.978
 7261TIP3   OH221727   6.458   7.618   3.600
 7261TIP3    H121728   6.474   7.599   3.693
 7261TIP3    H221729   6.451   7.713   3.596
 7262TIP3   OH221730   7.519   6.743   5.662
 7262TIP3    H121731   7.516   6.737   5.757
 7262TIP3    H221732   7.448   6.802   5.638
 7263TIP3   OH221733   7.729   1.834   6.284
 7263TIP3    H121734   7.821   1.848   6.260
 7263TIP3    H221735   7.704   1.755   6.237
 7264TIP3   OH221736   8.019   5.692   1.858
 7264TIP3    H121737   7.989   5.640   1.932
 7264TIP3    H221738   8.027   5.630   1.786
 7265TIP3   OH221739   3.617   4.466   0.466
 7265TIP3    H121740   3.616   4.370   0.469
 7265TIP3    H221741   3.627   4.493   0.557
 7266TIP3   OH221742   7.684   4.880   4.040
 7266TIP3    H121743   7.598   4.907   4.010
 7266TIP3    H221744   7.674   4.870   4.135
 7267TIP3   OH221745   2.724   4.890   3.585
 7267TIP3    H121746   2.647   4.948   3.584
 7267TIP3    H221747   2.697   4.817   3.640
 7268TIP3   OH221748   0.486   4.914   1.157
 7268TIP3    H121749   0.501   4.861   1.236
 7268TIP3    H221750   0.480   4.850   1.086
 7269TIP3   OH221751   5.393   3.951   2.545
 7269TIP3    H121752   5.432   3.951   2.457
 7269TIP3    H221753   5.352   3.865   2.553
 7270TIP3   OH221754   5.343   1.308   6.201
 7270TIP3    H121755   5.363   1.395   6.237
 7270TIP3    H221756   5.257   1.318   6.160
 7271TIP3   OH221757   5.497   4.367   1.169
 7271TIP3    H121758   5.581   4.373   1.124
 7271TIP3    H221759   5.432   4.370   1.099
 7272TIP3   OH221760   2.969   2.117   4.478
 7272TIP3    H121761   3.024   2.187   4.512
 7272TIP3    H221762   2.982   2.119   4.384
 7273TIP3   OH221763   0.404   7.071   3.986
 7273TIP3    H121764   0.335   7.004   3.993
 7273TIP3    H221765   0.474   7.027   3.939
 7274TIP3   OH221766   7.392   7.185   1.449
 7274TIP3    H121767   7.473   7.161   1.493
 7274TIP3    H221768   7.387   7.280   1.458
 7275TIP3   OH221769   0.165   1.372   0.882
 7275TIP3    H121770   0.161   1.339   0.793
 7275TIP3    H221771   0.193   1.297   0.935
 7276TIP3   OH221772   2.590   5.655   3.709
 7276TIP3    H121773   2.608   5.620   3.796
 7276TIP3    H221774   2.617   5.585   3.649
 7277TIP3   OH221775   0.353   2.842   2.148
 7277TIP3    H121776   0.409   2.903   2.196
 7277TIP3    H221777   0.324   2.779   2.214
 7278TIP3   OH221778   1.063   1.538   3.410
 7278TIP3    H121779   0.969   1.520   3.405
 7278TIP3    H221780   1.097   1.475   3.473
 7279TIP3   OH221781   1.798   5.115   2.353
 7279TIP3    H121782   1.783   5.166   2.273
 7279TIP3    H221783   1.773   5.026   2.329
 7280TIP3   OH221784   7.125   4.446   3.449
 7280TIP3    H121785   7.205   4.496   3.439
 7280TIP3    H221786   7.154   4.361   3.483
 7281TIP3   OH221787   3.257   2.906   2.310
 7281TIP3    H121788   3.235   2.843   2.240
 7281TIP3    H221789   3.346   2.936   2.288
 7282TIP3   OH221790   3.057   2.065   2.194
 7282TIP3    H121791   3.120   1.996   2.217
 7282TIP3    H221792   3.035   2.048   2.103
 7283TIP3   OH221793   6.372   1.464   3.247
 7283TIP3    H121794   6.467   1.461   3.256
 7283TIP3    H221795   6.339   1.445   3.336
 7284TIP3   OH221796   0.966   1.258   1.836
 7284TIP3    H121797   1.050   1.248   1.790
 7284TIP3    H221798   0.984   1.319   1.907
 7285TIP3   OH221799   4.587   6.032   6.297
 7285TIP3    H121800   4.675   6.007   6.325
 7285TIP3    H221801   4.594   6.125   6.277
 7286TIP3   OH221802   2.050   1.990   3.303
 7286TIP3    H121803   2.059   2.071   3.352
 7286TIP3    H221804   1.960   1.960   3.321
 7287TIP3   OH221805   5.670   5.346   5.766
 7287TIP3    H121806   5.724   5.411   5.810
 7287TIP3    H221807   5.717   5.327   5.685
 7288TIP3   OH221808   4.988   4.788   2.072
 7288TIP3    H121809   5.052   4.790   2.143
 7288TIP3    H221810   4.924   4.723   2.099
 7289TIP3   OH221811   0.702   4.612   6.249
 7289TIP3    H121812   0.667   4.633   6.336
 7289TIP3    H221813   0.672   4.684   6.194
 7290TIP3   OH221814   3.565   5.166   5.719
 7290TIP3    H121815   3.526   5.089   5.761
 7290TIP3    H221816   3.658   5.144   5.711
 7291TIP3   OH221817   8.164   4.288   3.005
 7291TIP3    H121818   8.181   4.348   2.932
 7291TIP3    H221819   8.087   4.325   3.049
 7292TIP3   OH221820   5.865   5.644   2.918
 7292TIP3    H121821   5.771   5.650   2.904
 7292TIP3    H221822   5.904   5.669   2.834
 7293TIP3   OH221823   5.433   0.542   1.076
 7293TIP3    H121824   5.358   0.566   1.022
 7293TIP3    H221825   5.489   0.619   1.075
 7294TIP3   OH221826   7.765   5.596   2.505
 7294TIP3    H121827   7.721   5.542   2.439
 7294TIP3    H221828   7.829   5.537   2.545
 7295TIP3   OH221829   1.042   5.756   0.973
 7295TIP3    H121830   1.108   5.689   0.954
 7295TIP3    H221831   1.092   5.838   0.978
 7296TIP3   OH221832   3.871   4.669   5.543
 7296TIP3    H121833   3.838   4.714   5.465
 7296TIP3    H221834   3.937   4.729   5.578
 7297TIP3   OH221835   7.649   3.186   4.416
 7297TIP3    H121836   7.697   3.107   4.441
 7297TIP3    H221837   7.715   3.242   4.375
 7298TIP3   OH221838   2.894   2.027   0.116
 7298TIP3    H121839   2.981   2.066   0.117
 7298TIP3    H221840   2.887   1.986   0.030
 7299TIP3   OH221841   2.912   1.080   2.361
 7299TIP3    H121842   2.817   1.074   2.346
 7299TIP3    H221843   2.941   1.151   2.305
 7300TIP3   OH221844   3.619   2.339   6.377
 7300TIP3    H121845   3.526   2.327   6.394
 7300TIP3    H221846   3.657   2.252   6.383
 7301TIP3   OH221847   0.237   5.088   1.253
 7301TIP3    H121848   0.231   5.124   1.341
 7301TIP3    H221849   0.194   5.002   1.259
 7302TIP3   OH221850   2.580   6.163   1.826
 7302TIP3    H121851   2.532   6.246   1.820
 7302TIP3    H221852   2.511   6.097   1.828
 7303TIP3   OH221853   8.018   6.144   5.149
 7303TIP3    H121854   7.999   6.112   5.060
 7303TIP3    H221855   8.028   6.239   5.139
 7304TIP3   OH221856   2.418   5.329   0.059
 7304TIP3    H121857   2.427   5.234   0.055
 7304TIP3    H221858   2.329   5.346   0.026
 7305TIP3   OH221859   7.956   4.248   3.405
 7305TIP3    H121860   7.912   4.310   3.464
 7305TIP3    H221861   7.950   4.288   3.319
 7306TIP3   OH221862   1.930   0.429   0.599
 7306TIP3    H121863   1.917   0.441   0.693
 7306TIP3    H221864   2.024   0.417   0.589
 7307TIP3   OH221865   4.846   3.372   4.387
 7307TIP3    H121866   4.843   3.403   4.478
 7307TIP3    H221867   4.924   3.318   4.383
 7308TIP3   OH221868   6.648   3.663   2.777
 7308TIP3    H121869   6.658   3.713   2.858
 7308TIP3    H221870   6.663   3.727   2.707
 7309TIP3   OH221871   5.525   3.675   3.170
 7309TIP3    H121872   5.467   3.606   3.203
 7309TIP3    H221873   5.613   3.638   3.178
 7310TIP3   OH221874   6.224   7.163   3.387
 7310TIP3    H121875   6.315   7.187   3.402
 7310TIP3    H221876   6.190   7.232   3.330
 7311TIP3   OH221877   5.688   2.317   4.341
 7311TIP3    H121878   5.774   2.276   4.336
 7311TIP3    H221879   5.640   2.264   4.404
 7312TIP3   OH221880   5.848   5.539   5.625
 7312TIP3    H121881   5.793   5.580   5.559
 7312TIP3    H221882   5.923   5.598   5.634
 7313TIP3   OH221883   1.393   4.757   5.707
 7313TIP3    H121884   1.451   4.829   5.684
 7313TIP3    H221885   1.332   4.750   5.634
 7314TIP3   OH221886   1.721   6.931   4.337
 7314TIP3    H121887   1.644   6.988   4.341
 7314TIP3    H221888   1.767   6.948   4.419
 7315TIP3   OH221889   7.518   6.438   5.093
 7315TIP3    H121890   7.469   6.514   5.124
 7315TIP3    H221891   7.534   6.456   5.000
 7316TIP3   OH221892   1.987   5.617   5.140
 7316TIP3    H121893   2.077   5.628   5.171
 7316TIP3    H221894   1.990   5.538   5.086
 7317TIP3   OH221895   5.144   6.909   3.475
 7317TIP3    H121896   5.185   6.897   3.389
 7317TIP3    H221897   5.065   6.856   3.472
 7318TIP3   OH221898   4.867   7.469   2.033
 7318TIP3    H121899   4.800   7.519   1.987
 7318TIP3    H221900   4.848   7.378   2.012
 7319TIP3   OH221901   6.442   7.377   2.760
 7319TIP3    H121902   6.495   7.420   2.693
 7319TIP3    H221903   6.474   7.287   2.761
 7320TIP3   OH221904   2.950   6.994   3.488
 7320TIP3    H121905   2.890   7.044   3.544
 7320TIP3    H221906   2.902   6.981   3.406
 7321TIP3   OH221907   3.254   7.635   5.451
 7321TIP3    H121908   3.220   7.623   5.539
 7321TIP3    H221909   3.293   7.551   5.428
 7322TIP3   OH221910   7.164   0.595   6.397
 7322TIP3    H121911   7.120   0.664   6.347
 7322TIP3    H221912   7.124   0.599   6.484
 7323TIP3   OH221913   1.162   6.707   6.193
 7323TIP3    H121914   1.071   6.677   6.186
 7323TIP3    H221915   1.158   6.777   6.258
 7324TIP3   OH221916   2.845   1.695   0.417
 7324TIP3    H121917   2.902   1.762   0.455
 7324TIP3    H221918   2.789   1.743   0.355
 7325TIP3   OH221919   1.778   3.705   3.423
 7325TIP3    H121920   1.824   3.737   3.501
 7325TIP3    H221921   1.839   3.644   3.382
 7326TIP3   OH221922   5.790   0.433   5.665
 7326TIP3    H121923   5.880   0.401   5.657
 7326TIP3    H221924   5.799   0.528   5.670
 7327TIP3   OH221925   6.225   2.342   6.422
 7327TIP3    H121926   6.169   2.283   6.371
 7327TIP3    H221927   6.297   2.286   6.453
 7328TIP3   OH221928   3.184   7.795   2.624
 7328TIP3    H121929   3.170   7.748   2.706
 7328TIP3    H221930   3.178   7.888   2.647
 7329TIP3   OH221931   1.967   5.780   3.236
 7329TIP3    H121932   1.975   5.721   3.311
 7329TIP3    H221933   2.009   5.733   3.164
 7330TIP3   OH221934   3.630   1.476   6.112
 7330TIP3    H121935   3.693   1.541   6.142
 7330TIP3    H221936   3.549   1.526   6.100
 7331TIP3   OH221937   5.675   7.558   1.789
 7331TIP3    H121938   5.663   7.478   1.739
 7331TIP3    H221939   5.645   7.628   1.731
 7332TIP3   OH221940   0.205   0.717   4.184
 7332TIP3    H121941   0.298   0.739   4.183
 7332TIP3    H221942   0.169   0.768   4.256
 7333TIP3   OH221943   4.845   1.763   0.319
 7333TIP3    H121944   4.887   1.682   0.291
 7333TIP3    H221945   4.880   1.780   0.406
 7334TIP3   OH221946   6.375   2.895   1.518
 7334TIP3    H121947   6.327   2.976   1.504
 7334TIP3    H221948   6.322   2.827   1.478
 7335TIP3   OH221949   6.826   0.824   6.299
 7335TIP3    H121950   6.762   0.772   6.250
 7335TIP3    H221951   6.822   0.911   6.259
 7336TIP3   OH221952   6.111   3.031   3.782
 7336TIP3    H121953   6.174   3.103   3.783
 7336TIP3    H221954   6.032   3.069   3.744
 7337TIP3   OH221955   3.013   6.128   0.407
 7337TIP3    H121956   2.989   6.220   0.415
 7337TIP3    H221957   2.930   6.080   0.417
 7338TIP3   OH221958   4.452   5.303   1.140
 7338TIP3    H121959   4.407   5.240   1.197
 7338TIP3    H221960   4.383   5.362   1.110
 7339TIP3   OH221961   3.934   0.728   3.814
 7339TIP3    H121962   4.025   0.756   3.800
 7339TIP3    H221963   3.930   0.708   3.907
 7340TIP3   OH221964   6.262   0.119   2.079
 7340TIP3    H121965   6.190   0.169   2.119
 7340TIP3    H221966   6.266   0.152   1.989
 7341TIP3   OH221967   7.576   1.372   5.747
 7341TIP3    H121968   7.506   1.402   5.805
 7341TIP3    H221969   7.620   1.302   5.796
 7342TIP3   OH221970   2.934   0.121   2.448
 7342TIP3    H121971   2.920   0.134   2.541
 7342TIP3    H221972   3.009   0.061   2.443
 7343TIP3   OH221973   6.898   4.759   0.470
 7343TIP3    H121974   6.834   4.693   0.444
 7343TIP3    H221975   6.969   4.709   0.510
 7344TIP3   OH221976   3.115   0.101   0.965
 7344TIP3    H121977   3.198   0.150   0.966
 7344TIP3    H221978   3.048   0.169   0.978
 7345TIP3   OH221979   6.663   0.820   1.427
 7345TIP3    H121980   6.604   0.825   1.502
 7345TIP3    H221981   6.605   0.806   1.352
 7346TIP3   OH221982   4.837   0.136   3.947
 7346TIP3    H121983   4.914   0.164   3.997
 7346TIP3    H221984   4.773   0.111   4.013
 7347TIP3   OH221985   8.232   3.021   4.277
 7347TIP3    H121986   8.290   3.015   4.354
 7347TIP3    H221987   8.275   3.084   4.220
 7348TIP3   OH221988   3.084   5.926   2.950
 7348TIP3    H121989   3.153   5.953   3.011
 7348TIP3    H221990   3.129   5.866   2.890
 7349TIP3   OH221991   0.226   3.710   2.826
 7349TIP3    H121992   0.142   3.678   2.860
 7349TIP3    H221993   0.288   3.694   2.896
 7350TIP3   OH221994   0.255   1.600   6.076
 7350TIP3    H121995   0.342   1.633   6.098
 7350TIP3    H221996   0.215   1.579   6.160
 7351TIP3   OH221997   4.587   1.158   4.534
 7351TIP3    H121998   4.524   1.102   4.488
 7351TIP3    H221999   4.578   1.134   4.626
 7352TIP3   OH222000   4.848   7.529   2.859
 7352TIP3    H122001   4.793   7.580   2.799
 7352TIP3    H222002   4.824   7.559   2.946
 7353TIP3   OH222003   5.763   1.109   3.309
 7353TIP3    H122004   5.831   1.107   3.376
 7353TIP3    H222005   5.783   1.187   3.257
 7354TIP3   OH222006   7.531   7.604   0.462
 7354TIP3    H122007   7.458   7.622   0.403
 7354TIP3    H222008   7.572   7.689   0.476
 7355TIP3   OH222009   7.783   4.791   2.571
 7355TIP3    H122010   7.710   4.843   2.606
 7355TIP3    H222011   7.837   4.855   2.524
 7356TIP3   OH222012   8.242   1.285   4.158
 7356TIP3    H122013   8.182   1.222   4.198
 7356TIP3    H222014   8.197   1.369   4.164
 7357TIP3   OH222015   4.053   6.079   4.678
 7357TIP3    H122016   4.139   6.071   4.720
 7357TIP3    H222017   4.042   6.174   4.665
 7358TIP3   OH222018   1.434   7.023   0.833
 7358TIP3    H122019   1.434   7.010   0.739
 7358TIP3    H222020   1.495   7.096   0.847
 7359TIP3   OH222021   5.392   3.533   5.307
 7359TIP3    H122022   5.378   3.539   5.212
 7359TIP3    H222023   5.328   3.467   5.336
 7360TIP3   OH222024   7.442   5.845   3.861
 7360TIP3    H122025   7.372   5.782   3.877
 7360TIP3    H222026   7.442   5.901   3.939
 7361TIP3   OH222027   7.657   2.363   3.781
 7361TIP3    H122028   7.686   2.451   3.757
 7361TIP3    H222029   7.561   2.370   3.788
 7362TIP3   OH222030   3.553   6.972   2.242
 7362TIP3    H122031   3.488   6.977   2.172
 7362TIP3    H222032   3.528   6.894   2.292
 7363TIP3   OH222033   2.209   4.809   4.499
 7363TIP3    H122034   2.272   4.751   4.542
 7363TIP3    H222035   2.139   4.820   4.563
 7364TIP3   OH222036   5.068   2.524   1.904
 7364TIP3    H122037   5.007   2.597   1.895
 7364TIP3    H222038   5.148   2.553   1.861
 7365TIP3   OH222039   7.515   3.106   3.163
 7365TIP3    H122040   7.597   3.092   3.211
 7365TIP3    H222041   7.448   3.068   3.220
 7366TIP3   OH222042   0.512   0.169   2.810
 7366TIP3    H122043   0.511   0.149   2.904
 7366TIP3    H222044   0.604   0.184   2.790
 7367TIP3   OH222045   5.650   6.703   6.761
 7367TIP3    H122046   5.684   6.614   6.757
 7367TIP3    H222047   5.717   6.752   6.810
 7368TIP3   OH222048   2.541   4.349   1.350
 7368TIP3    H122049   2.455   4.333   1.388
 7368TIP3    H222050   2.523   4.376   1.260
 7369TIP3   OH222051   5.354   3.551   1.524
 7369TIP3    H122052   5.357   3.461   1.556
 7369TIP3    H222053   5.373   3.544   1.431
 7370TIP3   OH222054   6.716   2.757   0.467
 7370TIP3    H122055   6.681   2.737   0.554
 7370TIP3    H222056   6.810   2.744   0.476
 7371TIP3   OH222057   4.739   2.229   3.286
 7371TIP3    H122058   4.783   2.210   3.369
 7371TIP3    H222059   4.774   2.165   3.225
 7372TIP3   OH222060   1.776   3.030   2.552
 7372TIP3    H122061   1.821   2.964   2.605
 7372TIP3    H222062   1.699   2.985   2.518
 7373TIP3   OH222063   5.303   1.256   5.840
 7373TIP3    H122064   5.257   1.264   5.923
 7373TIP3    H222065   5.234   1.260   5.774
 7374TIP3   OH222066   2.306   0.559   3.699
 7374TIP3    H122067   2.326   0.568   3.792
 7374TIP3    H222068   2.212   0.545   3.696
 7375TIP3   OH222069   1.099   5.592   1.452
 7375TIP3    H122070   1.187   5.585   1.488
 7375TIP3    H222071   1.110   5.640   1.370
 7376TIP3   OH222072   2.470   5.589   5.012
 7376TIP3    H122073   2.528   5.514   5.002
 7376TIP3    H222074   2.443   5.612   4.923
 7377TIP3   OH222075   2.360   5.052   0.049
 7377TIP3    H122076   2.297   4.985   0.024
 7377TIP3    H222077   2.343   5.067   0.142
 7378TIP3   OH222078   5.471   0.959   2.884
 7378TIP3    H122079   5.490   0.872   2.848
 7378TIP3    H222080   5.517   0.961   2.967
 7379TIP3   OH222081   2.901   4.352   6.005
 7379TIP3    H122082   2.818   4.368   5.960
 7379TIP3    H222083   2.919   4.434   6.052
 7380TIP3   OH222084   5.087   5.547   5.413
 7380TIP3    H122085   5.012   5.494   5.439
 7380TIP3    H222086   5.075   5.629   5.461
 7381TIP3   OH222087   3.854   7.317   1.107
 7381TIP3    H122088   3.807   7.287   1.185
 7381TIP3    H222089   3.833   7.410   1.101
 7382TIP3   OH222090   7.077   3.554   0.947
 7382TIP3    H122091   7.087   3.592   1.034
 7382TIP3    H222092   7.136   3.605   0.891
 7383TIP3   OH222093   4.063   5.982   5.803
 7383TIP3    H122094   4.083   5.937   5.885
 7383TIP3    H222095   4.113   6.064   5.808
 7384TIP3   OH222096   6.908   7.087   0.222
 7384TIP3    H122097   6.879   7.082   0.131
 7384TIP3    H222098   7.004   7.086   0.217
 7385TIP3   OH222099   1.139   2.120   1.005
 7385TIP3    H122100   1.166   2.031   1.029
 7385TIP3    H222101   1.107   2.111   0.915
 7386TIP3   OH222102   6.358   6.341   3.642
 7386TIP3    H122103   6.405   6.370   3.721
 7386TIP3    H222104   6.287   6.287   3.676
 7387TIP3   OH222105   7.586   6.717   1.959
 7387TIP3    H122106   7.623   6.778   1.894
 7387TIP3    H222107   7.544   6.649   1.906
 7388TIP3   OH222108   1.260   4.023   1.428
 7388TIP3    H122109   1.202   3.995   1.357
 7388TIP3    H222110   1.310   3.944   1.451
 7389TIP3   OH222111   8.223   4.107   6.268
 7389TIP3    H122112   8.206   4.085   6.176
 7389TIP3    H222113   8.161   4.177   6.288
 7390TIP3   OH222114   3.255   3.039   4.206
 7390TIP3    H122115   3.252   3.036   4.111
 7390TIP3    H222116   3.326   3.100   4.226
 7391TIP3   OH222117   4.180   7.098   6.729
 7391TIP3    H122118   4.135   7.137   6.804
 7391TIP3    H222119   4.151   7.149   6.654
 7392TIP3   OH222120   5.478   7.124   1.863
 7392TIP3    H122121   5.509   7.033   1.869
 7392TIP3    H222122   5.387   7.120   1.895
 7393TIP3   OH222123   1.551   6.712   4.364
 7393TIP3    H122124   1.518   6.731   4.451
 7393TIP3    H222125   1.608   6.785   4.343
 7394TIP3   OH222126   2.191   1.340   5.793
 7394TIP3    H122127   2.272   1.302   5.760
 7394TIP3    H222128   2.139   1.359   5.715
 7395TIP3   OH222129   5.781   4.145   2.760
 7395TIP3    H122130   5.719   4.072   2.759
 7395TIP3    H222131   5.743   4.209   2.699
 7396TIP3   OH222132   1.572   5.444   3.647
 7396TIP3    H122133   1.618   5.443   3.731
 7396TIP3    H222134   1.487   5.483   3.667
 7397TIP3   OH222135   3.713   1.244   4.017
 7397TIP3    H122136   3.673   1.249   3.930
 7397TIP3    H222137   3.643   1.269   4.077
 7398TIP3   OH222138   7.860   3.823   6.306
 7398TIP3    H122139   7.875   3.775   6.225
 7398TIP3    H222140   7.768   3.848   6.302
 7399TIP3   OH222141   4.323   1.093   1.988
 7399TIP3    H122142   4.261   1.057   1.925
 7399TIP3    H222143   4.356   1.017   2.037
 7400TIP3   OH222144   6.710   4.609   3.449
 7400TIP3    H122145   6.764   4.653   3.383
 7400TIP3    H222146   6.733   4.651   3.532
 7401TIP3   OH222147   2.866   5.450   0.130
 7401TIP3    H122148   2.940   5.389   0.128
 7401TIP3    H222149   2.853   5.469   0.223
 7402TIP3   OH222150   5.060   1.777   4.885
 7402TIP3    H122151   5.027   1.690   4.863
 7402TIP3    H222152   4.986   1.821   4.928
 7403TIP3   OH222153   7.151   1.835   1.615
 7403TIP3    H122154   7.152   1.742   1.637
 7403TIP3    H222155   7.074   1.869   1.660
 7404TIP3   OH222156   0.445   4.744   2.013
 7404TIP3    H122157   0.506   4.705   2.076
 7404TIP3    H222158   0.485   4.829   1.991
 7405TIP3   OH222159   6.603   1.698   5.766
 7405TIP3    H122160   6.517   1.680   5.729
 7405TIP3    H222161   6.611   1.793   5.765
 7406TIP3   OH222162   0.977   5.204   2.790
 7406TIP3    H122163   0.923   5.183   2.714
 7406TIP3    H222164   1.002   5.295   2.778
 7407TIP3   OH222165   7.491   7.835   2.068
 7407TIP3    H122166   7.451   7.771   2.127
 7407TIP3    H222167   7.431   7.840   1.994
 7408TIP3   OH222168   2.924   6.288   5.612
 7408TIP3    H122169   2.996   6.343   5.582
 7408TIP3    H222170   2.916   6.219   5.546
 7409TIP3   OH222171   1.395   4.279   5.759
 7409TIP3    H122172   1.354   4.363   5.780
 7409TIP3    H222173   1.437   4.252   5.840
 7410TIP3   OH222174   7.346   2.399   0.857
 7410TIP3    H122175   7.278   2.453   0.896
 7410TIP3    H222176   7.425   2.422   0.906
 7411TIP3   OH222177   4.917   7.092   0.066
 7411TIP3    H122178   4.907   7.186   0.080
 7411TIP3    H222179   4.983   7.064   0.130
 7412TIP3   OH222180   7.242   3.320   4.975
 7412TIP3    H122181   7.266   3.411   4.991
 7412TIP3    H222182   7.321   3.280   4.939
 7413TIP3   OH222183   0.829   2.345   2.760
 7413TIP3    H122184   0.783   2.361   2.678
 7413TIP3    H222185   0.828   2.250   2.769
 7414TIP3   OH222186   0.622   2.035   1.538
 7414TIP3    H122187   0.717   2.021   1.530
 7414TIP3    H222188   0.584   1.967   1.482
 7415TIP3   OH222189   0.370   0.298   2.624
 7415TIP3    H122190   0.402   0.235   2.688
 7415TIP3    H222191   0.448   0.344   2.593
 7416TIP3   OH222192   2.294   6.159   1.739
 7416TIP3    H122193   2.264   6.237   1.693
 7416TIP3    H222194   2.312   6.095   1.670
 7417TIP3   OH222195   3.597   1.564   5.331
 7417TIP3    H122196   3.602   1.608   5.416
 7417TIP3    H222197   3.545   1.623   5.276
 7418TIP3   OH222198   5.931   0.448   3.541
 7418TIP3    H122199   6.006   0.388   3.543
 7418TIP3    H222200   5.861   0.399   3.585
 7419TIP3   OH222201   2.018   4.269   4.161
 7419TIP3    H122202   1.963   4.199   4.125
 7419TIP3    H222203   1.998   4.270   4.254
 7420TIP3   OH222204   0.300   0.658   1.812
 7420TIP3    H122205   0.375   0.686   1.759
 7420TIP3    H222206   0.331   0.662   1.902
 7421TIP3   OH222207   0.806   6.903   3.027
 7421TIP3    H122208   0.845   6.990   3.039
 7421TIP3    H222209   0.876   6.842   3.052
 7422TIP3   OH222210   6.835   5.001   3.579
 7422TIP3    H122211   6.913   4.985   3.633
 7422TIP3    H222212   6.840   4.936   3.510
 7423TIP3   OH222213   2.746   1.591   1.501
 7423TIP3    H122214   2.705   1.527   1.442
 7423TIP3    H222215   2.819   1.628   1.451
 7424TIP3   OH222216   5.607   7.599   6.622
 7424TIP3    H122217   5.651   7.679   6.649
 7424TIP3    H222218   5.563   7.622   6.540
 7425TIP3   OH222219   6.335   1.435   2.506
 7425TIP3    H122220   6.429   1.418   2.515
 7425TIP3    H222221   6.312   1.484   2.585
 7426TIP3   OH222222   0.336   6.647   3.029
 7426TIP3    H122223   0.392   6.714   3.069
 7426TIP3    H222224   0.330   6.578   3.096
 7427TIP3   OH222225   4.361   5.095   1.318
 7427TIP3    H122226   4.395   5.149   1.389
 7427TIP3    H222227   4.392   5.007   1.336
 7428TIP3   OH222228   2.248   3.271   3.342
 7428TIP3    H122229   2.162   3.234   3.322
 7428TIP3    H222230   2.268   3.239   3.430
 7429TIP3   OH222231   3.985   2.914   5.955
 7429TIP3    H122232   3.917   2.867   6.002
 7429TIP3    H222233   4.066   2.867   5.976
 7430TIP3   OH222234   5.604   0.986   2.285
 7430TIP3    H122235   5.554   0.907   2.305
 7430TIP3    H222236   5.696   0.961   2.297
 7431TIP3   OH222237   8.010   0.858   1.721
 7431TIP3    H122238   8.002   0.906   1.803
 7431TIP3    H222239   7.921   0.827   1.703
 7432TIP3   OH222240   6.455   2.322   6.121
 7432TIP3    H122241   6.549   2.315   6.106
 7432TIP3    H222242   6.429   2.235   6.152
 7433TIP3   OH222243   5.037   2.531   3.845
 7433TIP3    H122244   5.084   2.609   3.877
 7433TIP3    H222245   4.961   2.566   3.799
 7434TIP3   OH222246   7.885   6.972   5.175
 7434TIP3    H122247   7.910   7.064   5.188
 7434TIP3    H222248   7.908   6.930   5.258
 7435TIP3   OH222249   3.336   7.483   5.884
 7435TIP3    H122250   3.253   7.521   5.856
 7435TIP3    H222251   3.313   7.399   5.924
 7436TIP3   OH222252   4.722   5.229   1.961
 7436TIP3    H122253   4.740   5.234   1.867
 7436TIP3    H222254   4.793   5.175   1.996
 7437TIP3   OH222255   5.455   6.645   6.265
 7437TIP3    H122256   5.439   6.551   6.257
 7437TIP3    H222257   5.475   6.659   6.357
 7438TIP3   OH222258   3.787   1.713   5.995
 7438TIP3    H122259   3.790   1.646   5.926
 7438TIP3    H222260   3.844   1.679   6.064
 7439TIP3   OH222261   1.207   6.785   2.358
 7439TIP3    H122262   1.293   6.795   2.399
 7439TIP3    H222263   1.195   6.691   2.351
 7440TIP3   OH222264   5.297   5.732   4.694
 7440TIP3    H122265   5.249   5.666   4.644
 7440TIP3    H222266   5.381   5.740   4.649
 7441TIP3   OH222267   2.414   4.155   3.394
 7441TIP3    H122268   2.347   4.194   3.338
 7441TIP3    H222269   2.379   4.070   3.418
 7442TIP3   OH222270   1.888   2.146   4.353
 7442TIP3    H122271   1.810   2.186   4.393
 7442TIP3    H222272   1.936   2.220   4.316
 7443TIP3   OH222273   0.590   5.594   3.150
 7443TIP3    H122274   0.621   5.504   3.135
 7443TIP3    H222275   0.551   5.591   3.237
 7444TIP3   OH222276   4.116   4.142   4.909
 7444TIP3    H122277   4.089   4.053   4.889
 7444TIP3    H222278   4.058   4.170   4.980
 7445TIP3   OH222279   2.728   7.756   1.805
 7445TIP3    H122280   2.684   7.834   1.840
 7445TIP3    H222281   2.821   7.772   1.819
 7446TIP3   OH222282   5.115   1.106   2.958
 7446TIP3    H122283   5.050   1.175   2.949
 7446TIP3    H222284   5.187   1.133   2.901
 7447TIP3   OH222285   8.266   4.271   4.895
 7447TIP3    H122286   8.198   4.326   4.856
 7447TIP3    H222287   8.221   4.189   4.915
 7448TIP3   OH222288   1.623   0.671   1.513
 7448TIP3    H122289   1.601   0.578   1.506
 7448TIP3    H222290   1.694   0.684   1.449
 7449TIP3   OH222291   1.295   7.253   0.036
 7449TIP3    H122292   1.261   7.307   0.107
 7449TIP3    H222293   1.219   7.208   0.001
 7450TIP3   OH222294   4.615   0.335   4.738
 7450TIP3    H122295   4.680   0.285   4.787
 7450TIP3    H222296   4.643   0.330   4.647
 7451TIP3   OH222297   2.768   6.129   1.107
 7451TIP3    H122298   2.788   6.222   1.097
 7451TIP3    H222299   2.675   6.127   1.130
 7452TIP3   OH222300   0.055   2.118   0.940
 7452TIP3    H122301  -0.022   2.175   0.946
 7452TIP3    H222302   0.125   2.169   0.980
 7453TIP3   OH222303   6.931   2.141   0.073
 7453TIP3    H122304   6.854   2.197   0.082
 7453TIP3    H222305   6.938   2.122  -0.020
 7454TIP3   OH222306   5.754   3.495   3.399
 7454TIP3    H122307   5.678   3.456   3.442
 7454TIP3    H222308   5.742   3.589   3.408
 7455TIP3   OH222309   7.498   0.546   2.305
 7455TIP3    H122310   7.454   0.592   2.234
 7455TIP3    H222311   7.470   0.592   2.384
 7456TIP3   OH222312   5.694   7.055   5.074
 7456TIP3    H122313   5.658   7.052   5.163
 7456TIP3    H222314   5.634   7.110   5.025
 7457TIP3   OH222315   6.662   3.532   5.370
 7457TIP3    H122316   6.647   3.453   5.424
 7457TIP3    H222317   6.753   3.554   5.386
 7458TIP3   OH222318   4.269   3.063   1.575
 7458TIP3    H122319   4.254   3.018   1.492
 7458TIP3    H222320   4.275   3.156   1.551
 7459TIP3   OH222321   7.393   6.622   2.296
 7459TIP3    H122322   7.306   6.661   2.307
 7459TIP3    H222323   7.432   6.625   2.383
 7460TIP3   OH222324   0.759   7.686   2.902
 7460TIP3    H122325   0.826   7.626   2.870
 7460TIP3    H222326   0.683   7.669   2.846
 7461TIP3   OH222327   1.983   2.074   0.954
 7461TIP3    H122328   1.916   2.099   0.891
 7461TIP3    H222329   1.934   2.033   1.026
 7462TIP3   OH222330   0.766   1.649   1.023
 7462TIP3    H122331   0.750   1.732   1.069
 7462TIP3    H222332   0.833   1.670   0.958
 7463TIP3   OH222333   1.094   7.206   1.887
 7463TIP3    H122334   1.077   7.116   1.859
 7463TIP3    H222335   1.188   7.217   1.878
 7464TIP3   OH222336   8.087   5.883   0.353
 7464TIP3    H122337   8.089   5.861   0.260
 7464TIP3    H222338   8.173   5.859   0.386
 7465TIP3   OH222339   2.953   2.494   3.665
 7465TIP3    H122340   2.981   2.455   3.748
 7465TIP3    H222341   3.006   2.574   3.658
 7466TIP3   OH222342   3.813   6.544   4.687
 7466TIP3    H122343   3.837   6.633   4.662
 7466TIP3    H222344   3.781   6.504   4.606
 7467TIP3   OH222345   7.380   6.739   4.532
 7467TIP3    H122346   7.430   6.817   4.511
 7467TIP3    H222347   7.441   6.666   4.516
 7468TIP3   OH222348   4.247   7.323   1.626
 7468TIP3    H122349   4.168   7.309   1.679
 7468TIP3    H222350   4.307   7.370   1.684
 7469TIP3   OH222351   6.926   7.485   6.628
 7469TIP3    H122352   6.905   7.560   6.683
 7469TIP3    H222353   6.922   7.518   6.538
 7470TIP3   OH222354   3.430   5.134   2.468
 7470TIP3    H122355   3.426   5.109   2.375
 7470TIP3    H222356   3.515   5.175   2.478
 7471TIP3   OH222357   3.143   0.012   3.292
 7471TIP3    H122358   3.102   0.085   3.338
 7471TIP3    H222359   3.206  -0.024   3.355
 7472TIP3   OH222360   0.937   0.896   4.912
 7472TIP3    H122361   0.881   0.829   4.875
 7472TIP3    H222362   0.915   0.897   5.005
 7473TIP3   OH222363   3.097   3.839   5.435
 7473TIP3    H122364   3.087   3.745   5.416
 7473TIP3    H222365   3.136   3.841   5.522
 7474TIP3   OH222366   3.221   2.703   5.644
 7474TIP3    H122367   3.159   2.729   5.575
 7474TIP3    H222368   3.210   2.769   5.713
 7475TIP3   OH222369   6.799   5.643   4.162
 7475TIP3    H122370   6.720   5.662   4.213
 7475TIP3    H222371   6.770   5.579   4.097
 7476TIP3   OH222372   8.260   5.092   4.410
 7476TIP3    H122373   8.296   5.046   4.334
 7476TIP3    H222374   8.292   5.181   4.403
 7477TIP3   OH222375   6.099   0.653   5.882
 7477TIP3    H122376   6.089   0.671   5.975
 7477TIP3    H222377   6.035   0.583   5.864
 7478TIP3   OH222378   5.899   2.205   5.966
 7478TIP3    H122379   5.891   2.143   5.894
 7478TIP3    H222380   5.853   2.164   6.039
 7479TIP3   OH222381   0.183   2.617   4.828
 7479TIP3    H122382   0.174   2.690   4.766
 7479TIP3    H222383   0.252   2.562   4.791
 7480TIP3   OH222384   1.745   4.460   3.026
 7480TIP3    H122385   1.730   4.365   3.025
 7480TIP3    H222386   1.823   4.473   2.973
 7481TIP3   OH222387   0.260   3.777   6.454
 7481TIP3    H122388   0.235   3.848   6.513
 7481TIP3    H222389   0.179   3.753   6.408
 7482TIP3   OH222390   2.887   5.007   4.487
 7482TIP3    H122391   2.910   5.051   4.569
 7482TIP3    H222392   2.876   4.915   4.512
 7483TIP3   OH222393   5.234   3.719   2.551
 7483TIP3    H122394   5.263   3.673   2.472
 7483TIP3    H222395   5.140   3.701   2.556
 7484TIP3   OH222396   2.638   6.747   1.126
 7484TIP3    H122397   2.622   6.822   1.184
 7484TIP3    H222398   2.683   6.784   1.051
 7485TIP3   OH222399   0.790   5.285   0.414
 7485TIP3    H122400   0.732   5.250   0.346
 7485TIP3    H222401   0.857   5.218   0.424
 7486TIP3   OH222402   6.895   3.060   0.017
 7486TIP3    H122403   6.851   2.990   0.066
 7486TIP3    H222404   6.834   3.083  -0.053
 7487TIP3   OH222405   7.586   6.348   3.341
 7487TIP3    H122406   7.675   6.326   3.313
 7487TIP3    H222407   7.598   6.419   3.404
 7488TIP3   OH222408   6.071   2.731   0.960
 7488TIP3    H122409   6.127   2.802   0.931
 7488TIP3    H222410   5.984   2.770   0.967
 7489TIP3   OH222411   4.398   7.197   5.890
 7489TIP3    H122412   4.328   7.201   5.955
 7489TIP3    H222413   4.462   7.262   5.921
 7490TIP3   OH222414   1.354   5.107   5.702
 7490TIP3    H122415   1.427   5.046   5.704
 7490TIP3    H222416   1.280   5.055   5.671
 7491TIP3   OH222417   6.989   5.534   6.134
 7491TIP3    H122418   6.918   5.497   6.188
 7491TIP3    H222419   7.062   5.545   6.195
 7492TIP3   OH222420   5.961   5.555   2.472
 7492TIP3    H122421   5.955   5.640   2.516
 7492TIP3    H222422   6.038   5.513   2.512
 7493TIP3   OH222423   8.180   3.161   3.431
 7493TIP3    H122424   8.120   3.173   3.505
 7493TIP3    H222425   8.268   3.169   3.470
 7494TIP3   OH222426   4.588   7.433   5.989
 7494TIP3    H122427   4.616   7.434   6.081
 7494TIP3    H222428   4.645   7.368   5.948
 7495TIP3   OH222429   6.783   4.737   2.573
 7495TIP3    H122430   6.712   4.684   2.609
 7495TIP3    H222431   6.755   4.827   2.589
 7496TIP3   OH222432   2.151   7.602   3.914
 7496TIP3    H122433   2.112   7.676   3.866
 7496TIP3    H222434   2.239   7.632   3.937
 7497TIP3   OH222435   4.999   3.609   2.593
 7497TIP3    H122436   4.904   3.613   2.596
 7497TIP3    H222437   5.021   3.518   2.613
 7498TIP3   OH222438   0.220   0.492   6.222
 7498TIP3    H122439   0.273   0.413   6.233
 7498TIP3    H222440   0.131   0.459   6.207
 7499TIP3   OH222441   7.733   5.540   0.179
 7499TIP3    H122442   7.731   5.629   0.144
 7499TIP3    H222443   7.695   5.549   0.267
 7500TIP3   OH222444   4.097   0.373   3.872
 7500TIP3    H122445   4.151   0.314   3.819
 7500TIP3    H222446   4.022   0.393   3.817
 7501TIP3   OH222447   4.073   0.383   1.387
 7501TIP3    H122448   4.040   0.424   1.307
 7501TIP3    H222449   4.168   0.391   1.381
 7502TIP3   OH222450   7.613   6.107   4.285
 7502TIP3    H122451   7.694   6.154   4.303
 7502TIP3    H222452   7.582   6.144   4.202
 7503TIP3   OH222453   4.837   4.220   1.781
 7503TIP3    H122454   4.865   4.305   1.816
 7503TIP3    H222455   4.869   4.219   1.691
 7504TIP3   OH222456   3.935   5.762   0.340
 7504TIP3    H122457   3.906   5.839   0.390
 7504TIP3    H222458   3.861   5.701   0.346
 7505TIP3   OH222459   0.787   1.946   2.628
 7505TIP3    H122460   0.845   1.933   2.702
 7505TIP3    H222461   0.829   2.014   2.576
 7506TIP3   OH222462   3.918   5.866   4.159
 7506TIP3    H122463   3.909   5.904   4.247
 7506TIP3    H222464   3.987   5.801   4.168
 7507TIP3   OH222465   3.352   2.504   5.772
 7507TIP3    H122466   3.441   2.486   5.744
 7507TIP3    H222467   3.310   2.545   5.696
 7508TIP3   OH222468   2.309   3.552   3.963
 7508TIP3    H122469   2.245   3.604   4.013
 7508TIP3    H222470   2.380   3.536   4.025
 7509TIP3   OH222471   7.474   3.297   5.487
 7509TIP3    H122472   7.480   3.345   5.570
 7509TIP3    H222473   7.421   3.353   5.431
 7510TIP3   OH222474   1.559   7.048   2.858
 7510TIP3    H122475   1.550   6.957   2.830
 7510TIP3    H222476   1.638   7.050   2.911
 7511TIP3   OH222477   6.420   6.649   3.097
 7511TIP3    H122478   6.444   6.557   3.094
 7511TIP3    H222479   6.500   6.696   3.076
 7512TIP3   OH222480   0.119   1.541   3.723
 7512TIP3    H122481   0.037   1.575   3.687
 7512TIP3    H222482   0.133   1.592   3.803
 7513TIP3   OH222483   5.900   2.093   1.205
 7513TIP3    H122484   5.932   2.175   1.243
 7513TIP3    H222485   5.891   2.034   1.280
 7514TIP3   OH222486   1.145   1.716   2.165
 7514TIP3    H122487   1.145   1.662   2.086
 7514TIP3    H222488   1.166   1.655   2.236
 7515TIP3   OH222489   3.780   7.524   4.103
 7515TIP3    H122490   3.869   7.493   4.122
 7515TIP3    H222491   3.759   7.582   4.176
 7516TIP3   OH222492   5.837   7.749   3.219
 7516TIP3    H122493   5.849   7.757   3.124
 7516TIP3    H222494   5.830   7.840   3.250
 7517TIP3   OH222495   7.362   2.584   5.905
 7517TIP3    H122496   7.409   2.530   5.842
 7517TIP3    H222497   7.431   2.634   5.949
 7518TIP3   OH222498   7.803   3.822   5.278
 7518TIP3    H122499   7.868   3.878   5.237
 7518TIP3    H222500   7.832   3.814   5.369
 7519TIP3   OH222501   2.183   2.941   5.104
 7519TIP3    H122502   2.272   2.971   5.123
 7519TIP3    H222503   2.163   2.978   5.018
 7520TIP3   OH222504   1.779   4.311   6.130
 7520TIP3    H122505   1.780   4.338   6.222
 7520TIP3    H222506   1.786   4.393   6.081
 7521TIP3   OH222507   0.377   0.748   2.285
 7521TIP3    H122508   0.322   0.670   2.289
 7521TIP3    H222509   0.442   0.727   2.218
 7522TIP3   OH222510   2.110   4.998   2.600
 7522TIP3    H122511   2.111   5.052   2.521
 7522TIP3    H222512   2.032   5.026   2.648
 7523TIP3   OH222513   3.472   4.355   1.204
 7523TIP3    H122514   3.529   4.406   1.147
 7523TIP3    H222515   3.530   4.315   1.268
 7524TIP3   OH222516   8.050   6.695   3.802
 7524TIP3    H122517   8.129   6.731   3.760
 7524TIP3    H222518   8.037   6.750   3.880
 7525TIP3   OH222519   4.660   3.145   0.909
 7525TIP3    H122520   4.720   3.220   0.915
 7525TIP3    H222521   4.681   3.105   0.824
 7526TIP3   OH222522   2.795   4.646   2.310
 7526TIP3    H122523   2.716   4.691   2.341
 7526TIP3    H222524   2.855   4.649   2.384
 7527TIP3   OH222525   1.064   0.623   2.081
 7527TIP3    H122526   1.141   0.611   2.137
 7527TIP3    H222527   1.059   0.718   2.068
 7528TIP3   OH222528   6.896   4.137   1.600
 7528TIP3    H122529   6.948   4.062   1.629
 7528TIP3    H222530   6.849   4.105   1.523
 7529TIP3   OH222531   1.078   2.768   2.564
 7529TIP3    H122532   1.035   2.781   2.479
 7529TIP3    H222533   1.169   2.796   2.549
 7530TIP3   OH222534   7.886   3.695   2.630
 7530TIP3    H122535   7.974   3.659   2.626
 7530TIP3    H222536   7.867   3.705   2.723
 7531TIP3   OH222537   6.573   4.096   2.640
 7531TIP3    H122538   6.624   4.078   2.561
 7531TIP3    H222539   6.503   4.153   2.611
 7532TIP3   OH222540   8.281   5.245   1.100
 7532TIP3    H122541   8.237   5.255   1.185
 7532TIP3    H222542   8.349   5.180   1.116
 7533TIP3   OH222543   5.424   7.402   1.928
 7533TIP3    H122544   5.479   7.324   1.918
 7533TIP3    H222545   5.341   7.378   1.887
 7534TIP3   OH222546   6.664   7.363   5.530
 7534TIP3    H122547   6.643   7.303   5.602
 7534TIP3    H222548   6.580   7.386   5.492
 7535TIP3   OH222549   0.943   0.280   4.338
 7535TIP3    H122550   1.022   0.273   4.393
 7535TIP3    H222551   0.935   0.195   4.296
 7536TIP3   OH222552   0.962   3.337   5.496
 7536TIP3    H122553   1.034   3.323   5.558
 7536TIP3    H222554   0.943   3.249   5.463
 7537TIP3   OH222555   2.008   6.057   0.081
 7537TIP3    H122556   1.938   6.074   0.144
 7537TIP3    H222557   1.970   5.992   0.021
 7538TIP3   OH222558   4.571   3.316   4.347
 7538TIP3    H122559   4.563   3.410   4.331
 7538TIP3    H222560   4.665   3.302   4.359
 7539TIP3   OH222561   0.794   0.263   2.794
 7539TIP3    H122562   0.844   0.313   2.729
 7539TIP3    H222563   0.829   0.175   2.788
 7540TIP3   OH222564   6.016   1.755   2.654
 7540TIP3    H122565   6.100   1.713   2.672
 7540TIP3    H222566   5.978   1.704   2.582
 7541TIP3   OH222567   2.624   3.476   2.491
 7541TIP3    H122568   2.680   3.460   2.415
 7541TIP3    H222569   2.541   3.433   2.469
 7542TIP3   OH222570   2.673   2.545   6.605
 7542TIP3    H122571   2.765   2.520   6.610
 7542TIP3    H222572   2.633   2.478   6.550
 7543TIP3   OH222573   7.771   1.496   5.571
 7543TIP3    H122574   7.708   1.473   5.638
 7543TIP3    H222575   7.791   1.413   5.527
 7544TIP3   OH222576   3.160   4.216   2.000
 7544TIP3    H122577   3.142   4.309   1.991
 7544TIP3    H222578   3.167   4.184   1.910
 7545TIP3   OH222579   3.325   0.979   6.336
 7545TIP3    H122580   3.245   1.006   6.381
 7545TIP3    H222581   3.297   0.956   6.247
 7546TIP3   OH222582   5.780   4.271   4.136
 7546TIP3    H122583   5.742   4.342   4.083
 7546TIP3    H222584   5.759   4.295   4.226
 7547TIP3   OH222585   1.163   7.525   0.487
 7547TIP3    H122586   1.230   7.588   0.513
 7547TIP3    H222587   1.082   7.575   0.485
 7548TIP3   OH222588   2.227   1.077   0.972
 7548TIP3    H122589   2.159   1.011   0.988
 7548TIP3    H222590   2.180   1.151   0.934
 7549TIP3   OH222591   5.541   4.496   5.738
 7549TIP3    H122592   5.461   4.479   5.787
 7549TIP3    H222593   5.522   4.574   5.687
 7550TIP3   OH222594   7.381   1.740   6.469
 7550TIP3    H122595   7.430   1.799   6.412
 7550TIP3    H222596   7.396   1.774   6.557
 7551TIP3   OH222597   1.937   3.447   4.818
 7551TIP3    H122598   1.969   3.502   4.889
 7551TIP3    H222599   1.855   3.410   4.851
 7552TIP3   OH222600   0.747   3.100   3.081
 7552TIP3    H122601   0.805   3.170   3.110
 7552TIP3    H222602   0.689   3.141   3.017
 7553TIP3   OH222603   1.617   4.601   4.186
 7553TIP3    H122604   1.633   4.588   4.280
 7553TIP3    H222605   1.523   4.622   4.180
 7554TIP3   OH222606   3.956   2.720   2.087
 7554TIP3    H122607   4.018   2.736   2.159
 7554TIP3    H222608   3.876   2.690   2.129
 7555TIP3   OH222609   6.369   0.223   5.366
 7555TIP3    H122610   6.427   0.246   5.438
 7555TIP3    H222611   6.339   0.134   5.387
 7556TIP3   OH222612   5.385   7.160   5.499
 7556TIP3    H122613   5.350   7.247   5.481
 7556TIP3    H222614   5.396   7.157   5.594
 7557TIP3   OH222615   7.667   6.445   2.881
 7557TIP3    H122616   7.628   6.532   2.867
 7557TIP3    H222617   7.618   6.409   2.956
 7558TIP3   OH222618   2.309   6.570   4.184
 7558TIP3    H122619   2.282   6.544   4.097
 7558TIP3    H222620   2.397   6.607   4.172
 7559TIP3   OH222621   1.689   1.645   3.198
 7559TIP3    H122622   1.643   1.574   3.243
 7559TIP3    H222623   1.782   1.628   3.216
 7560TIP3   OH222624   1.864   1.847   5.138
 7560TIP3    H122625   1.921   1.919   5.115
 7560TIP3    H222626   1.919   1.769   5.134
 7561TIP3   OH222627   1.202   6.673   1.197
 7561TIP3    H122628   1.234   6.695   1.109
 7561TIP3    H222629   1.126   6.617   1.181
 7562TIP3   OH222630   0.439   3.243   3.142
 7562TIP3    H122631   0.508   3.186   3.107
 7562TIP3    H222632   0.483   3.327   3.157
 7563TIP3   OH222633   7.730   3.844   0.264
 7563TIP3    H122634   7.762   3.868   0.351
 7563TIP3    H222635   7.635   3.834   0.276
 7564TIP3   OH222636   1.110   4.910   2.428
 7564TIP3    H122637   1.057   4.964   2.487
 7564TIP3    H222638   1.070   4.823   2.433
 7565TIP3   OH222639   4.576   5.890   5.112
 7565TIP3    H122640   4.577   5.821   5.178
 7565TIP3    H222641   4.636   5.957   5.146
 7566TIP3   OH222642   4.682   3.390   2.249
 7566TIP3    H122643   4.762   3.344   2.272
 7566TIP3    H222644   4.685   3.398   2.153
 7567TIP3   OH222645   2.115   5.482   4.930
 7567TIP3    H122646   2.196   5.495   4.881
 7567TIP3    H222647   2.124   5.395   4.969
 7568TIP3   OH222648   4.705   4.795   4.087
 7568TIP3    H122649   4.791   4.757   4.109
 7568TIP3    H222650   4.644   4.749   4.144
 7569TIP3   OH222651   5.019   0.717   3.528
 7569TIP3    H122652   4.954   0.783   3.554
 7569TIP3    H222653   5.067   0.699   3.608
 7570TIP3   OH222654   1.222   2.228   0.110
 7570TIP3    H122655   1.168   2.276   0.174
 7570TIP3    H222656   1.277   2.295   0.070
 7571TIP3   OH222657   0.430   0.596   3.499
 7571TIP3    H122658   0.488   0.622   3.427
 7571TIP3    H222659   0.371   0.671   3.510
 7572TIP3   OH222660   6.815   7.025   4.003
 7572TIP3    H122661   6.818   7.022   4.099
 7572TIP3    H222662   6.751   6.957   3.980
 7573TIP3   OH222663   1.194   4.460   3.274
 7573TIP3    H122664   1.103   4.438   3.253
 7573TIP3    H222665   1.234   4.482   3.190
 7574TIP3   OH222666   5.691   6.780   5.052
 7574TIP3    H122667   5.625   6.764   4.985
 7574TIP3    H222668   5.684   6.873   5.071
 7575TIP3   OH222669   0.173   6.968   4.233
 7575TIP3    H122670   0.084   6.961   4.199
 7575TIP3    H222671   0.182   7.060   4.257
 7576TIP3   OH222672   1.156   1.210   1.609
 7576TIP3    H122673   1.174   1.130   1.658
 7576TIP3    H222674   1.218   1.208   1.536
 7577TIP3   OH222675   1.931   0.518   0.337
 7577TIP3    H122676   1.848   0.549   0.302
 7577TIP3    H222677   1.920   0.521   0.432
 7578TIP3   OH222678   1.272   5.185   2.649
 7578TIP3    H122679   1.271   5.277   2.674
 7578TIP3    H222680   1.180   5.159   2.647
 7579TIP3   OH222681   3.792   0.485   2.273
 7579TIP3    H122682   3.872   0.501   2.223
 7579TIP3    H222683   3.818   0.496   2.365
 7580TIP3   OH222684   1.782   6.877   1.830
 7580TIP3    H122685   1.810   6.834   1.912
 7580TIP3    H222686   1.740   6.808   1.780
 7581TIP3   OH222687   2.019   4.776   2.447
 7581TIP3    H122688   1.939   4.805   2.404
 7581TIP3    H222689   2.045   4.852   2.500
 7582TIP3   OH222690   6.397   6.411   6.704
 7582TIP3    H122691   6.302   6.424   6.706
 7582TIP3    H222692   6.423   6.403   6.795
 7583TIP3   OH222693   5.419   0.278   3.454
 7583TIP3    H122694   5.466   0.283   3.537
 7583TIP3    H222695   5.487   0.290   3.387
 7584TIP3   OH222696   0.248   6.095   2.220
 7584TIP3    H122697   0.254   6.123   2.312
 7584TIP3    H222698   0.155   6.103   2.199
 7585TIP3   OH222699   2.629   1.128   3.061
 7585TIP3    H122700   2.623   1.223   3.071
 7585TIP3    H222701   2.710   1.114   3.012
 7586TIP3   OH222702   0.436   5.312   4.832
 7586TIP3    H122703   0.519   5.271   4.807
 7586TIP3    H222704   0.455   5.405   4.837
 7587TIP3   OH222705   1.595   5.537   0.829
 7587TIP3    H122706   1.633   5.614   0.872
 7587TIP3    H222707   1.637   5.536   0.743
 7588TIP3   OH222708   2.589   4.218   5.162
 7588TIP3    H122709   2.643   4.251   5.234
 7588TIP3    H222710   2.640   4.238   5.083
 7589TIP3   OH222711   7.961   2.865   0.283
 7589TIP3    H122712   8.041   2.889   0.329
 7589TIP3    H222713   7.895   2.858   0.352
 7590TIP3   OH222714   4.609   1.264   2.854
 7590TIP3    H122715   4.598   1.286   2.946
 7590TIP3    H222716   4.570   1.337   2.807
 7591TIP3   OH222717   0.060   5.687   0.582
 7591TIP3    H122718   0.098   5.645   0.505
 7591TIP3    H222719   0.060   5.781   0.561
 7592TIP3   OH222720   1.999   4.613   2.211
 7592TIP3    H122721   2.004   4.705   2.184
 7592TIP3    H222722   2.029   4.614   2.302
 7593TIP3   OH222723   4.334   1.013   0.552
 7593TIP3    H122724   4.369   0.990   0.466
 7593TIP3    H222725   4.404   1.063   0.594
 7594TIP3   OH222726   2.608   7.068   2.681
 7594TIP3    H122727   2.567   7.025   2.606
 7594TIP3    H222728   2.679   7.009   2.706
 7595TIP3   OH222729   4.256   1.917   2.698
 7595TIP3    H122730   4.217   1.957   2.776
 7595TIP3    H222731   4.191   1.854   2.669
 7596TIP3   OH222732   5.131   2.439   2.612
 7596TIP3    H122733   5.139   2.476   2.524
 7596TIP3    H222734   5.220   2.440   2.647
 7597TIP3   OH222735   3.791   6.767   1.706
 7597TIP3    H122736   3.722   6.725   1.656
 7597TIP3    H222737   3.818   6.842   1.653
 7598TIP3   OH222738   1.724   1.878   4.149
 7598TIP3    H122739   1.812   1.882   4.186
 7598TIP3    H222740   1.677   1.818   4.206
 7599TIP3   OH222741   3.876   0.516   4.757
 7599TIP3    H122742   3.947   0.475   4.806
 7599TIP3    H222743   3.863   0.601   4.799
 7600TIP3   OH222744   0.445   0.523   4.471
 7600TIP3    H122745   0.357   0.499   4.442
 7600TIP3    H222746   0.446   0.501   4.565
 7601TIP3   OH222747   2.595   2.556   3.077
 7601TIP3    H122748   2.675   2.604   3.099
 7601TIP3    H222749   2.588   2.564   2.982
 7602TIP3   OH222750   6.514   5.051   2.525
 7602TIP3    H122751   6.449   5.096   2.579
 7602TIP3    H222752   6.588   5.037   2.584
 7603TIP3   OH222753   8.111   1.508   4.170
 7603TIP3    H122754   8.046   1.501   4.100
 7603TIP3    H222755   8.142   1.599   4.164
 7604TIP3   OH222756   1.325   2.413   4.074
 7604TIP3    H122757   1.246   2.421   4.021
 7604TIP3    H222758   1.393   2.455   4.022
 7605TIP3   OH222759   0.619   1.160   3.230
 7605TIP3    H122760   0.569   1.213   3.169
 7605TIP3    H222761   0.612   1.071   3.197
 7606TIP3   OH222762   1.000   6.630   2.080
 7606TIP3    H122763   1.063   6.577   2.031
 7606TIP3    H222764   0.926   6.572   2.095
 7607TIP3   OH222765   4.624   6.317   2.822
 7607TIP3    H122766   4.551   6.292   2.765
 7607TIP3    H222767   4.686   6.245   2.815
 7608TIP3   OH222768   7.950   3.155   4.217
 7608TIP3    H122769   7.901   3.076   4.239
 7608TIP3    H222770   8.021   3.158   4.281
 7609TIP3   OH222771   8.138   7.182   3.072
 7609TIP3    H122772   8.187   7.158   3.151
 7609TIP3    H222773   8.172   7.268   3.048
 7610TIP3   OH222774   4.814   5.696   4.047
 7610TIP3    H122775   4.781   5.689   4.136
 7610TIP3    H222776   4.859   5.613   4.031
 7611TIP3   OH222777   4.935   5.291   2.316
 7611TIP3    H122778   4.923   5.196   2.324
 7611TIP3    H222779   5.030   5.302   2.307
 7612TIP3   OH222780   0.743   7.245   5.616
 7612TIP3    H122781   0.741   7.163   5.664
 7612TIP3    H222782   0.735   7.219   5.524
 7613TIP3   OH222783   1.177   2.201   3.225
 7613TIP3    H122784   1.226   2.180   3.304
 7613TIP3    H222785   1.103   2.253   3.255
 7614TIP3   OH222786   4.086   7.488   4.176
 7614TIP3    H122787   4.085   7.462   4.268
 7614TIP3    H222788   4.151   7.432   4.136
 7615TIP3   OH222789   0.794   3.604   3.451
 7615TIP3    H122790   0.778   3.653   3.370
 7615TIP3    H222791   0.715   3.619   3.504
 7616TIP3   OH222792   5.107   7.440   1.312
 7616TIP3    H122793   5.126   7.350   1.337
 7616TIP3    H222794   5.181   7.466   1.257
 7617TIP3   OH222795   1.247   0.987   0.491
 7617TIP3    H122796   1.221   1.078   0.479
 7617TIP3    H222797   1.166   0.942   0.517
 7618TIP3   OH222798   0.811   4.280   0.881
 7618TIP3    H122799   0.903   4.255   0.872
 7618TIP3    H222800   0.812   4.376   0.878
 7619TIP3   OH222801   7.532   0.156   6.100
 7619TIP3    H122802   7.517   0.099   6.024
 7619TIP3    H222803   7.501   0.242   6.072
 7620TIP3   OH222804   4.219   0.346   0.532
 7620TIP3    H122805   4.143   0.300   0.496
 7620TIP3    H222806   4.267   0.377   0.455
 7621TIP3   OH222807   5.151   7.499   4.898
 7621TIP3    H122808   5.121   7.586   4.873
 7621TIP3    H222809   5.072   7.454   4.928
 7622TIP3   OH222810   4.672   5.045   4.944
 7622TIP3    H122811   4.640   4.989   4.874
 7622TIP3    H222812   4.600   5.105   4.962
 7623TIP3   OH222813   5.824   4.564   5.949
 7623TIP3    H122814   5.774   4.601   5.876
 7623TIP3    H222815   5.773   4.488   5.977
 7624TIP3   OH222816   7.434   4.870   3.297
 7624TIP3    H122817   7.526   4.866   3.269
 7624TIP3    H222818   7.419   4.962   3.316
 7625TIP3   OH222819   1.940   5.775   0.272
 7625TIP3    H122820   1.987   5.739   0.197
 7625TIP3    H222821   1.873   5.709   0.292
 7626TIP3   OH222822   4.914   2.524   2.772
 7626TIP3    H122823   4.978   2.510   2.702
 7626TIP3    H222824   4.944   2.469   2.844
 7627TIP3   OH222825   2.959   2.068   6.132
 7627TIP3    H122826   2.930   2.047   6.044
 7627TIP3    H222827   3.040   2.117   6.120
 7628TIP3   OH222828   3.458   1.795   2.498
 7628TIP3    H122829   3.480   1.702   2.491
 7628TIP3    H222830   3.533   1.841   2.459
 7629TIP3   OH222831   0.445   0.727   3.036
 7629TIP3    H122832   0.415   0.818   3.046
 7629TIP3    H222833   0.466   0.718   2.943
 7630TIP3   OH222834   3.263   6.794   6.383
 7630TIP3    H122835   3.188   6.832   6.428
 7630TIP3    H222836   3.230   6.713   6.344
 7631TIP3   OH222837   3.078   0.712   5.796
 7631TIP3    H122838   3.105   0.803   5.783
 7631TIP3    H222839   3.030   0.712   5.878
 7632TIP3   OH222840   7.676   0.321   1.990
 7632TIP3    H122841   7.625   0.389   1.946
 7632TIP3    H222842   7.753   0.309   1.934
 7633TIP3   OH222843   3.621   5.556   0.361
 7633TIP3    H122844   3.544   5.510   0.393
 7633TIP3    H222845   3.694   5.513   0.406
 7634TIP3   OH222846   5.137   0.710   0.535
 7634TIP3    H122847   5.080   0.719   0.458
 7634TIP3    H222848   5.204   0.777   0.524
 7635TIP3   OH222849   2.704   3.406   2.217
 7635TIP3    H122850   2.743   3.320   2.231
 7635TIP3    H222851   2.670   3.402   2.128
 7636TIP3   OH222852   6.529   6.021   3.538
 7636TIP3    H122853   6.553   6.112   3.555
 7636TIP3    H222854   6.608   5.971   3.558
 7637TIP3   OH222855   5.257   6.858   3.721
 7637TIP3    H122856   5.347   6.831   3.704
 7637TIP3    H222857   5.231   6.905   3.642
 7638TIP3   OH222858   7.511   1.501   6.375
 7638TIP3    H122859   7.448   1.449   6.426
 7638TIP3    H222860   7.487   1.592   6.393
 7639TIP3   OH222861   5.769   3.663   2.832
 7639TIP3    H122862   5.789   3.667   2.925
 7639TIP3    H222863   5.823   3.733   2.793
 7640TIP3   OH222864   7.571   1.242   0.071
 7640TIP3    H122865   7.518   1.311   0.032
 7640TIP3    H222866   7.594   1.275   0.157
 7641TIP3   OH222867   1.404   6.242   2.943
 7641TIP3    H122868   1.361   6.326   2.930
 7641TIP3    H222869   1.375   6.188   2.869
 7642TIP3   OH222870   5.847   2.786   2.421
 7642TIP3    H122871   5.890   2.831   2.493
 7642TIP3    H222872   5.784   2.849   2.386
 7643TIP3   OH222873   8.138   3.481   3.950
 7643TIP3    H122874   8.083   3.539   3.899
 7643TIP3    H222875   8.147   3.402   3.896
 7644TIP3   OH222876   0.484   2.814   2.609
 7644TIP3    H122877   0.397   2.776   2.601
 7644TIP3    H222878   0.483   2.860   2.693
 7645TIP3   OH222879   0.115   5.531   3.083
 7645TIP3    H122880   0.177   5.600   3.058
 7645TIP3    H222881   0.169   5.465   3.127
 7646TIP3   OH222882   4.009   2.450   2.451
 7646TIP3    H122883   3.924   2.426   2.415
 7646TIP3    H222884   4.001   2.431   2.545
 7647TIP3   OH222885   5.379   6.476   1.787
 7647TIP3    H122886   5.384   6.497   1.694
 7647TIP3    H222887   5.290   6.498   1.812
 7648TIP3   OH222888   6.533   1.689   0.412
 7648TIP3    H122889   6.571   1.693   0.499
 7648TIP3    H222890   6.459   1.751   0.415
 7649TIP3   OH222891   3.765   4.107   2.285
 7649TIP3    H122892   3.850   4.115   2.244
 7649TIP3    H222893   3.703   4.136   2.218
 7650TIP3   OH222894   5.347   0.852   1.377
 7650TIP3    H122895   5.350   0.844   1.472
 7650TIP3    H222896   5.298   0.775   1.348
 7651TIP3   OH222897   7.254   4.173   0.566
 7651TIP3    H122898   7.332   4.174   0.622
 7651TIP3    H222899   7.191   4.228   0.613
 7652TIP3   OH222900   4.339  -0.011   6.403
 7652TIP3    H122901   4.344   0.079   6.371
 7652TIP3    H222902   4.426  -0.047   6.385
 7653TIP3   OH222903   7.434   7.193   1.187
 7653TIP3    H122904   7.452   7.194   1.281
 7653TIP3    H222905   7.496   7.256   1.150
 7654TIP3   OH222906   3.223   3.365   1.393
 7654TIP3    H122907   3.304   3.389   1.348
 7654TIP3    H222908   3.179   3.449   1.410
 7655TIP3   OH222909   0.982   6.021   4.240
 7655TIP3    H122910   0.915   5.978   4.186
 7655TIP3    H222911   1.059   5.965   4.233
 7656TIP3   OH222912   1.209   6.173   6.262
 7656TIP3    H122913   1.235   6.184   6.354
 7656TIP3    H222914   1.186   6.261   6.233
 7657TIP3   OH222915  -0.019   0.052   5.911
 7657TIP3    H122916   0.061   0.100   5.934
 7657TIP3    H222917  -0.045   0.008   5.992
 7658TIP3   OH222918   1.636   0.069   2.383
 7658TIP3    H122919   1.640  -0.024   2.404
 7658TIP3    H222920   1.682   0.112   2.455
 7659TIP3   OH222921   2.587   3.382   1.214
 7659TIP3    H122922   2.566   3.291   1.190
 7659TIP3    H222923   2.555   3.392   1.303
 7660TIP3   OH222924   7.625   6.966   4.484
 7660TIP3    H122925   7.658   6.904   4.549
 7660TIP3    H222926   7.629   7.051   4.528
 7661TIP3   OH222927   6.822   1.650   4.389
 7661TIP3    H122928   6.727   1.647   4.379
 7661TIP3    H222929   6.852   1.704   4.316
 7662TIP3   OH222930   8.103   0.878   3.625
 7662TIP3    H122931   8.059   0.857   3.708
 7662TIP3    H222932   8.195   0.888   3.650
 7663TIP3   OH222933   5.008   6.695   1.978
 7663TIP3    H122934   5.069   6.624   1.961
 7663TIP3    H222935   4.996   6.695   2.073
 7664TIP3   OH222936   7.676   1.738   4.016
 7664TIP3    H122937   7.646   1.829   4.016
 7664TIP3    H222938   7.596   1.686   4.010
 7665TIP3   OH222939   3.207   7.630   2.373
 7665TIP3    H122940   3.192   7.674   2.289
 7665TIP3    H222941   3.206   7.701   2.438
 7666TIP3   OH222942   6.527   2.844   2.397
 7666TIP3    H122943   6.583   2.903   2.447
 7666TIP3    H222944   6.549   2.757   2.430
 7667TIP3   OH222945   6.471   2.591   2.776
 7667TIP3    H122946   6.453   2.677   2.740
 7667TIP3    H222947   6.489   2.535   2.700
 7668TIP3   OH222948   7.023   7.802   1.010
 7668TIP3    H122949   7.074   7.736   0.962
 7668TIP3    H222950   7.086   7.870   1.033
 7669TIP3   OH222951   0.369   5.845   5.783
 7669TIP3    H122952   0.444   5.881   5.737
 7669TIP3    H222953   0.298   5.908   5.768
 7670TIP3   OH222954   2.721   0.886   2.569
 7670TIP3    H122955   2.720   0.905   2.475
 7670TIP3    H222956   2.709   0.971   2.611
 7671TIP3   OH222957   0.448   6.269   2.105
 7671TIP3    H122958   0.366   6.245   2.148
 7671TIP3    H222959   0.513   6.268   2.175
 7672TIP3   OH222960   7.481   6.993   0.539
 7672TIP3    H122961   7.403   7.009   0.592
 7672TIP3    H222962   7.482   6.898   0.526
 7673TIP3   OH222963   4.951   6.099   6.146
 7673TIP3    H122964   5.046   6.103   6.156
 7673TIP3    H222965   4.929   6.009   6.168
 7674TIP3   OH222966   4.562   4.164   4.454
 7674TIP3    H122967   4.592   4.236   4.399
 7674TIP3    H222968   4.505   4.204   4.519
 7675TIP3   OH222969   1.630   5.642   4.262
 7675TIP3    H122970   1.597   5.583   4.329
 7675TIP3    H222971   1.568   5.633   4.189
 7676TIP3   OH222972   5.845   7.582   4.102
 7676TIP3    H122973   5.839   7.501   4.153
 7676TIP3    H222974   5.754   7.610   4.092
 7677TIP3   OH222975   0.874   2.036   1.501
 7677TIP3    H122976   0.938   2.025   1.572
 7677TIP3    H222977   0.915   2.098   1.441
 7678TIP3   OH222978   0.753   7.746   4.359
 7678TIP3    H122979   0.688   7.788   4.416
 7678TIP3    H222980   0.836   7.758   4.404
 7679TIP3   OH222981   7.558   0.758   5.098
 7679TIP3    H122982   7.606   0.688   5.142
 7679TIP3    H222983   7.607   0.774   5.017
 7680TIP3   OH222984   4.786   1.253   3.206
 7680TIP3    H122985   4.728   1.303   3.148
 7680TIP3    H222986   4.746   1.167   3.212
 7681TIP3   OH222987   2.156   3.613   6.221
 7681TIP3    H122988   2.120   3.620   6.133
 7681TIP3    H222989   2.162   3.703   6.252
 7682TIP3   OH222990   5.528   0.403   0.875
 7682TIP3    H122991   5.470   0.445   0.939
 7682TIP3    H222992   5.472   0.341   0.829
 7683TIP3   OH222993   1.798   6.426   1.082
 7683TIP3    H122994   1.843   6.453   1.162
 7683TIP3    H222995   1.752   6.346   1.107
 7684TIP3   OH222996   1.066   7.035   1.564
 7684TIP3    H122997   1.144   7.083   1.591
 7684TIP3    H222998   1.028   7.001   1.645
 7685TIP3   OH222999   0.650   6.826   1.231
 7685TIP3    H123000   0.660   6.906   1.180
 7685TIP3    H223001   0.727   6.824   1.289
 7686TIP3   OH223002   2.577   5.992   3.848
 7686TIP3    H123003   2.653   5.988   3.789
 7686TIP3    H223004   2.507   5.949   3.799
 7687TIP3   OH223005   0.413   1.371   2.305
 7687TIP3    H123006   0.376   1.398   2.221
 7687TIP3    H223007   0.456   1.288   2.287
 7688TIP3   OH223008   7.702   5.872   5.561
 7688TIP3    H123009   7.607   5.884   5.556
 7688TIP3    H223010   7.735   5.911   5.480
 7689TIP3   OH223011   4.785   0.417   5.076
 7689TIP3    H123012   4.706   0.364   5.072
 7689TIP3    H223013   4.856   0.355   5.088
 7690TIP3   OH223014   0.161   5.355   4.585
 7690TIP3    H123015   0.195   5.265   4.587
 7690TIP3    H223016   0.087   5.353   4.645
 7691TIP3   OH223017   2.284   7.010   5.689
 7691TIP3    H123018   2.294   7.007   5.784
 7691TIP3    H223019   2.335   7.087   5.663
 7692TIP3   OH223020   6.841   7.725   2.115
 7692TIP3    H123021   6.912   7.663   2.105
 7692TIP3    H223022   6.784   7.687   2.181
 7693TIP3   OH223023   3.304   6.198   6.693
 7693TIP3    H123024   3.233   6.149   6.650
 7693TIP3    H223025   3.303   6.283   6.650
 7694TIP3   OH223026   3.692   5.995   2.939
 7694TIP3    H123027   3.762   6.049   2.901
 7694TIP3    H223028   3.681   5.923   2.876
 7695TIP3   OH223029   3.827   3.828   5.675
 7695TIP3    H123030   3.818   3.747   5.624
 7695TIP3    H223031   3.745   3.875   5.660
 7696TIP3   OH223032   7.710   3.401   0.273
 7696TIP3    H123033   7.683   3.355   0.353
 7696TIP3    H223034   7.744   3.486   0.305
 7697TIP3   OH223035   2.951   0.423   6.419
 7697TIP3    H123036   2.990   0.408   6.332
 7697TIP3    H223037   2.995   0.502   6.451
 7698TIP3   OH223038   5.680   4.100   3.309
 7698TIP3    H123039   5.597   4.088   3.263
 7698TIP3    H223040   5.747   4.088   3.242
 7699TIP3   OH223041   6.733   1.664   1.837
 7699TIP3    H123042   6.709   1.594   1.776
 7699TIP3    H223043   6.706   1.633   1.923
 7700TIP3   OH223044   3.575   0.461   5.446
 7700TIP3    H123045   3.571   0.419   5.532
 7700TIP3    H223046   3.496   0.515   5.442
 7701TIP3   OH223047   0.910   4.495   0.624
 7701TIP3    H123048   0.855   4.573   0.623
 7701TIP3    H223049   0.933   4.481   0.532
 7702TIP3   OH223050   2.536   3.197   5.985
 7702TIP3    H123051   2.544   3.221   5.893
 7702TIP3    H223052   2.603   3.249   6.029
 7703TIP3   OH223053   6.800   6.224   6.396
 7703TIP3    H123054   6.860   6.160   6.432
 7703TIP3    H223055   6.846   6.308   6.404
 7704TIP3   OH223056   1.090   4.763   1.584
 7704TIP3    H123057   1.013   4.726   1.627
 7704TIP3    H223058   1.059   4.788   1.497
 7705TIP3   OH223059   2.906   5.773   4.779
 7705TIP3    H123060   2.946   5.707   4.835
 7705TIP3    H223061   2.975   5.837   4.764
 7706TIP3   OH223062   5.581   2.841   2.274
 7706TIP3    H123063   5.517   2.776   2.245
 7706TIP3    H223064   5.640   2.852   2.199
 7707TIP3   OH223065   4.221   4.506   1.922
 7707TIP3    H123066   4.232   4.556   1.841
 7707TIP3    H223067   4.287   4.541   1.982
 7708TIP3   OH223068   1.693   0.344   4.436
 7708TIP3    H123069   1.674   0.319   4.527
 7708TIP3    H223070   1.727   0.265   4.395
 7709TIP3   OH223071   7.853   1.130   1.434
 7709TIP3    H123072   7.777   1.073   1.447
 7709TIP3    H223073   7.844   1.196   1.503
 7710TIP3   OH223074   0.584   4.286   3.612
 7710TIP3    H123075   0.633   4.273   3.693
 7710TIP3    H223076   0.519   4.216   3.611
 7711TIP3   OH223077   6.209   3.882   5.162
 7711TIP3    H123078   6.137   3.872   5.225
 7711TIP3    H223079   6.279   3.924   5.212
 7712TIP3   OH223080   1.991   2.762   5.193
 7712TIP3    H123081   2.069   2.791   5.145
 7712TIP3    H223082   1.966   2.680   5.150
 7713TIP3   OH223083   6.686   2.595   2.007
 7713TIP3    H123084   6.595   2.583   1.978
 7713TIP3    H223085   6.684   2.572   2.100
 7714TIP3   OH223086   1.150   3.608   3.253
 7714TIP3    H123087   1.129   3.611   3.159
 7714TIP3    H223088   1.214   3.537   3.260
 7715TIP3   OH223089   2.463   2.741   5.398
 7715TIP3    H123090   2.389   2.796   5.422
 7715TIP3    H223091   2.436   2.653   5.425
 7716TIP3   OH223092   0.247   5.223   5.810
 7716TIP3    H123093   0.336   5.198   5.835
 7716TIP3    H223094   0.205   5.250   5.892
 7717TIP3   OH223095   5.324   1.800   2.946
 7717TIP3    H123096   5.283   1.884   2.927
 7717TIP3    H223097   5.274   1.737   2.893
 7718TIP3   OH223098   7.751   0.745   1.632
 7718TIP3    H123099   7.694   0.803   1.582
 7718TIP3    H223100   7.810   0.706   1.567
 7719TIP3   OH223101   0.106   4.200   2.911
 7719TIP3    H123102   0.022   4.218   2.953
 7719TIP3    H223103   0.171   4.236   2.972
 7720TIP3   OH223104   1.555   2.296   4.626
 7720TIP3    H123105   1.472   2.307   4.581
 7720TIP3    H223106   1.620   2.331   4.564
 7721TIP3   OH223107   7.178   6.601   0.084
 7721TIP3    H123108   7.252   6.546   0.061
 7721TIP3    H223109   7.145   6.634   0.000
 7722TIP3   OH223110   4.709   6.829   4.111
 7722TIP3    H123111   4.641   6.857   4.173
 7722TIP3    H223112   4.664   6.767   4.053
 7723TIP3   OH223113   0.197   2.769   5.594
 7723TIP3    H123114   0.212   2.753   5.500
 7723TIP3    H223115   0.212   2.685   5.636
 7724TIP3   OH223116   3.137   2.809   0.206
 7724TIP3    H123117   3.109   2.814   0.297
 7724TIP3    H223118   3.178   2.894   0.189
 7725TIP3   OH223119   1.286   6.615   4.036
 7725TIP3    H123120   1.264   6.607   4.129
 7725TIP3    H223121   1.277   6.527   4.001
 7726TIP3   OH223122   7.773   3.617   0.455
 7726TIP3    H123123   7.848   3.585   0.503
 7726TIP3    H223124   7.808   3.685   0.398
 7727TIP3   OH223125   0.914   4.814   4.798
 7727TIP3    H123126   0.906   4.725   4.831
 7727TIP3    H223127   0.830   4.855   4.817
 7728TIP3   OH223128   1.147   3.278   1.704
 7728TIP3    H123129   1.240   3.270   1.723
 7728TIP3    H223130   1.105   3.214   1.761
 7729TIP3   OH223131   5.861   6.704   5.470
 7729TIP3    H123132   5.770   6.734   5.469
 7729TIP3    H223133   5.877   6.674   5.380
 7730TIP3   OH223134   1.635   4.273   5.621
 7730TIP3    H123135   1.542   4.267   5.644
 7730TIP3    H223136   1.635   4.279   5.525
 7731TIP3   OH223137   0.372   6.629   5.104
 7731TIP3    H123138   0.432   6.567   5.064
 7731TIP3    H223139   0.328   6.578   5.173
 7732TIP3   OH223140   3.210   4.818   3.555
 7732TIP3    H123141   3.240   4.885   3.494
 7732TIP3    H223142   3.285   4.803   3.613
 7733TIP3   OH223143   4.647   5.977   0.799
 7733TIP3    H123144   4.567   5.981   0.851
 7733TIP3    H223145   4.674   6.068   0.790
 7734TIP3   OH223146   7.151   3.119   1.111
 7734TIP3    H123147   7.211   3.151   1.177
 7734TIP3    H223148   7.091   3.191   1.095
 7735TIP3   OH223149   4.833   4.195   0.079
 7735TIP3    H123150   4.756   4.150   0.047
 7735TIP3    H223151   4.879   4.129   0.132
 7736TIP3   OH223152   4.760   4.273   4.300
 7736TIP3    H123153   4.802   4.248   4.382
 7736TIP3    H223154   4.833   4.283   4.238
 7737TIP3   OH223155   7.791   1.011   4.669
 7737TIP3    H123156   7.734   0.971   4.735
 7737TIP3    H223157   7.732   1.036   4.598
 7738TIP3   OH223158   7.478   6.740   2.549
 7738TIP3    H123159   7.554   6.731   2.606
 7738TIP3    H223160   7.497   6.817   2.496
 7739TIP3   OH223161   6.753   3.695   0.156
 7739TIP3    H123162   6.846   3.671   0.160
 7739TIP3    H223163   6.708   3.614   0.133
 7740TIP3   OH223164   5.520   5.290   2.740
 7740TIP3    H123165   5.546   5.380   2.756
 7740TIP3    H223166   5.593   5.252   2.691
 7741TIP3   OH223167   7.435   0.759   0.610
 7741TIP3    H123168   7.517   0.728   0.648
 7741TIP3    H223169   7.367   0.720   0.666
 7742TIP3   OH223170   0.193   0.862   0.111
 7742TIP3    H123171   0.199   0.820   0.197
 7742TIP3    H223172   0.136   0.937   0.125
 7743TIP3   OH223173   7.707   5.882   3.882
 7743TIP3    H123174   7.782   5.829   3.855
 7743TIP3    H223175   7.631   5.840   3.843
 7744TIP3   OH223176   4.758   3.688   0.593
 7744TIP3    H123177   4.786   3.744   0.665
 7744TIP3    H223178   4.840   3.653   0.557
 7745TIP3   OH223179   7.531   3.934   4.645
 7745TIP3    H123180   7.436   3.946   4.655
 7745TIP3    H223181   7.565   4.022   4.630
 7746TIP3   OH223182   0.685   6.735   6.385
 7746TIP3    H123183   0.592   6.738   6.410
 7746TIP3    H223184   0.707   6.642   6.385
 7747TIP3   OH223185   3.196   1.410   2.659
 7747TIP3    H123186   3.214   1.374   2.747
 7747TIP3    H223187   3.280   1.405   2.614
 7748TIP3   OH223188   1.630   7.121   0.390
 7748TIP3    H123189   1.666   7.045   0.344
 7748TIP3    H223190   1.536   7.115   0.376
 7749TIP3   OH223191   3.066   2.559   3.269
 7749TIP3    H123192   3.027   2.619   3.333
 7749TIP3    H223193   3.033   2.473   3.294
 7750TIP3   OH223194   6.441   7.741   3.912
 7750TIP3    H123195   6.371   7.776   3.857
 7750TIP3    H223196   6.409   7.656   3.940
 7751TIP3   OH223197   8.052   1.373   1.248
 7751TIP3    H123198   8.030   1.285   1.278
 7751TIP3    H223199   8.142   1.387   1.278
 7752TIP3   OH223200   0.948   5.133   2.521
 7752TIP3    H123201   0.855   5.117   2.535
 7752TIP3    H223202   0.954   5.166   2.432
 7753TIP3   OH223203   4.487   0.745   0.559
 7753TIP3    H123204   4.427   0.715   0.490
 7753TIP3    H223205   4.567   0.769   0.512
 7754TIP3   OH223206   1.551   5.322   5.699
 7754TIP3    H123207   1.472   5.276   5.729
 7754TIP3    H223208   1.539   5.330   5.605
 7755TIP3   OH223209   8.153   6.832   0.355
 7755TIP3    H123210   8.084   6.867   0.298
 7755TIP3    H223211   8.189   6.909   0.398
 7756TIP3   OH223212   0.171   3.632   5.636
 7756TIP3    H123213   0.207   3.656   5.722
 7756TIP3    H223214   0.077   3.620   5.652
 7757TIP3   OH223215   2.410   7.678   3.957
 7757TIP3    H123216   2.397   7.753   3.898
 7757TIP3    H223217   2.480   7.707   4.016
 7758TIP3   OH223218   6.155   1.610   6.783
 7758TIP3    H123219   6.189   1.524   6.761
 7758TIP3    H223220   6.217   1.672   6.743
 7759TIP3   OH223221   3.850   6.429   0.544
 7759TIP3    H123222   3.828   6.493   0.611
 7759TIP3    H223223   3.868   6.481   0.466
 7760TIP3   OH223224   0.349   3.595   3.056
 7760TIP3    H123225   0.287   3.525   3.077
 7760TIP3    H223226   0.430   3.569   3.098
 7761TIP3   OH223227   0.917   5.905   4.815
 7761TIP3    H123228   0.960   5.866   4.891
 7761TIP3    H223229   0.987   5.918   4.751
 7762TIP3   OH223230   0.308   3.084   5.083
 7762TIP3    H123231   0.263   3.008   5.045
 7762TIP3    H223232   0.248   3.157   5.066
 7763TIP3   OH223233   3.277   0.505   5.825
 7763TIP3    H123234   3.226   0.494   5.905
 7763TIP3    H223235   3.232   0.575   5.778
 7764TIP3   OH223236   7.677   1.407   6.748
 7764TIP3    H123237   7.605   1.400   6.811
 7764TIP3    H223238   7.655   1.344   6.680
 7765TIP3   OH223239   0.933   7.740   1.880
 7765TIP3    H123240   0.845   7.735   1.917
 7765TIP3    H223241   0.921   7.781   1.795
 7766TIP3   OH223242   7.905   1.220   3.872
 7766TIP3    H123243   7.914   1.179   3.959
 7766TIP3    H223244   7.869   1.151   3.817
 7767TIP3   OH223245   8.102   7.116   3.502
 7767TIP3    H123246   8.170   7.070   3.454
 7767TIP3    H223247   8.130   7.111   3.594
 7768TIP3   OH223248   3.703   6.868   3.736
 7768TIP3    H123249   3.727   6.890   3.646
 7768TIP3    H223250   3.776   6.902   3.789
 7769TIP3   OH223251   6.279   0.923   1.748
 7769TIP3    H123252   6.233   0.884   1.674
 7769TIP3    H223253   6.260   0.865   1.822
 7770TIP3   OH223254   7.524   2.051   5.113
 7770TIP3    H123255   7.490   1.963   5.131
 7770TIP3    H223256   7.501   2.068   5.022
 7771TIP3   OH223257   6.619   3.780   2.436
 7771TIP3    H123258   6.649   3.868   2.415
 7771TIP3    H223259   6.524   3.785   2.436
 7772TIP3   OH223260   3.739   6.831   2.720
 7772TIP3    H123261   3.830   6.801   2.729
 7772TIP3    H223262   3.721   6.823   2.626
 7773TIP3   OH223263   4.875   2.288   5.894
 7773TIP3    H123264   4.918   2.370   5.919
 7773TIP3    H223265   4.927   2.255   5.821
 7774TIP3   OH223266   7.591   4.747   6.448
 7774TIP3    H123267   7.539   4.824   6.425
 7774TIP3    H223268   7.664   4.781   6.500
 7775TIP3   OH223269   5.729   5.768   4.001
 7775TIP3    H123270   5.684   5.709   3.941
 7775TIP3    H223271   5.771   5.709   4.065
 7776TIP3   OH223272   6.340   5.927   2.773
 7776TIP3    H123273   6.353   6.022   2.769
 7776TIP3    H223274   6.311   5.903   2.685
 7777TIP3   OH223275   7.743   0.574   5.596
 7777TIP3    H123276   7.682   0.521   5.544
 7777TIP3    H223277   7.719   0.665   5.576
 7778TIP3   OH223278   5.230   5.477   4.862
 7778TIP3    H123279   5.317   5.445   4.886
 7778TIP3    H223280   5.244   5.569   4.839
 7779TIP3   OH223281   5.491   3.685   0.598
 7779TIP3    H123282   5.427   3.750   0.624
 7779TIP3    H223283   5.572   3.713   0.641
 7780TIP3   OH223284   3.984   4.074   2.132
 7780TIP3    H123285   3.998   4.089   2.039
 7780TIP3    H223286   3.984   3.979   2.142
 7781TIP3   OH223287   7.924   5.525   2.053
 7781TIP3    H123288   7.880   5.447   2.018
 7781TIP3    H223289   7.855   5.570   2.103
 7782TIP3   OH223290   6.109   6.182   0.267
 7782TIP3    H123291   6.177   6.182   0.335
 7782TIP3    H223292   6.035   6.137   0.306
 7783TIP3   OH223293   5.290   5.803   4.211
 7783TIP3    H123294   5.341   5.845   4.142
 7783TIP3    H223295   5.326   5.837   4.292
 7784TIP3   OH223296   5.563   7.570   4.138
 7784TIP3    H123297   5.499   7.576   4.067
 7784TIP3    H223298   5.515   7.596   4.216
 7785TIP3   OH223299   3.084   2.827   1.290
 7785TIP3    H123300   3.035   2.748   1.315
 7785TIP3    H223301   3.062   2.840   1.198
 7786TIP3   OH223302   1.326   3.189   1.384
 7786TIP3    H123303   1.270   3.255   1.424
 7786TIP3    H223304   1.301   3.107   1.426
 7787TIP3   OH223305   3.983   5.398   6.158
 7787TIP3    H123306   3.898   5.408   6.116
 7787TIP3    H223307   3.974   5.445   6.241
 7788TIP3   OH223308   4.413   0.589   1.819
 7788TIP3    H123309   4.430   0.674   1.860
 7788TIP3    H223310   4.381   0.612   1.731
 7789TIP3   OH223311   4.363   4.623   6.059
 7789TIP3    H123312   4.293   4.559   6.052
 7789TIP3    H223313   4.319   4.705   6.082
 7790TIP3   OH223314   3.877   6.433   6.547
 7790TIP3    H123315   3.866   6.481   6.629
 7790TIP3    H223316   3.884   6.501   6.480
 7791TIP3   OH223317   4.998   3.147   3.800
 7791TIP3    H123318   4.953   3.165   3.717
 7791TIP3    H223319   4.985   3.225   3.853
 7792TIP3   OH223320   6.952   1.552   5.822
 7792TIP3    H123321   7.000   1.621   5.868
 7792TIP3    H223322   7.020   1.491   5.793
 7793TIP3   OH223323   0.964   2.617   5.308
 7793TIP3    H123324   1.052   2.592   5.279
 7793TIP3    H223325   0.976   2.701   5.351
 7794TIP3   OH223326   4.825   0.895   0.660
 7794TIP3    H123327   4.880   0.972   0.645
 7794TIP3    H223328   4.794   0.871   0.573
 7795TIP3   OH223329   1.099   7.258   5.963
 7795TIP3    H123330   1.125   7.350   5.977
 7795TIP3    H223331   1.100   7.247   5.868
 7796TIP3   OH223332   7.504   4.395   4.242
 7796TIP3    H123333   7.420   4.352   4.260
 7796TIP3    H223334   7.514   4.459   4.313
 7797TIP3   OH223335   6.189   6.523   1.070
 7797TIP3    H123336   6.186   6.436   1.030
 7797TIP3    H223337   6.115   6.570   1.031
 7798TIP3   OH223338   4.833   5.683   2.696
 7798TIP3    H123339   4.811   5.624   2.768
 7798TIP3    H223340   4.869   5.627   2.628
 7799TIP3   OH223341   7.387   1.328   2.696
 7799TIP3    H123342   7.392   1.420   2.724
 7799TIP3    H223343   7.365   1.280   2.776
 7800TIP3   OH223344   0.581   7.265   0.181
 7800TIP3    H123345   0.529   7.190   0.211
 7800TIP3    H223346   0.647   7.277   0.249
 7801TIP3   OH223347   7.433   1.607   2.498
 7801TIP3    H123348   7.344   1.629   2.527
 7801TIP3    H223349   7.483   1.595   2.579
 7802TIP3   OH223350   1.503   0.302   5.174
 7802TIP3    H123351   1.519   0.262   5.259
 7802TIP3    H223352   1.491   0.395   5.193
 7803TIP3   OH223353   4.447   6.577   1.889
 7803TIP3    H123354   4.414   6.600   1.802
 7803TIP3    H223355   4.425   6.653   1.943
 7804TIP3   OH223356   3.878   0.604   6.657
 7804TIP3    H123357   3.913   0.689   6.631
 7804TIP3    H223358   3.783   0.615   6.654
 7805TIP3   OH223359   6.493   4.910   1.957
 7805TIP3    H123360   6.444   4.837   1.919
 7805TIP3    H223361   6.578   4.873   1.980
 7806TIP3   OH223362   5.780   7.366   2.983
 7806TIP3    H123363   5.696   7.344   2.943
 7806TIP3    H223364   5.832   7.286   2.977
 7807TIP3   OH223365   0.973   2.163   4.375
 7807TIP3    H123366   1.055   2.123   4.348
 7807TIP3    H223367   0.998   2.245   4.416
 7808TIP3   OH223368   5.236   0.259   1.703
 7808TIP3    H123369   5.255   0.170   1.671
 7808TIP3    H223370   5.288   0.316   1.647
 7809TIP3   OH223371   2.251   4.146   6.162
 7809TIP3    H123372   2.161   4.160   6.131
 7809TIP3    H223373   2.306   4.188   6.095
 7810TIP3   OH223374   7.690   4.863   3.542
 7810TIP3    H123375   7.611   4.814   3.567
 7810TIP3    H223376   7.663   4.954   3.542
 7811TIP3   OH223377   7.406   5.072   4.214
 7811TIP3    H123378   7.323   5.112   4.239
 7811TIP3    H223379   7.419   5.101   4.123
 7812TIP3   OH223380   6.393   3.866   4.609
 7812TIP3    H123381   6.347   3.933   4.558
 7812TIP3    H223382   6.481   3.863   4.571
 7813TIP3   OH223383   4.125   4.726   3.478
 7813TIP3    H123384   4.210   4.741   3.519
 7813TIP3    H223385   4.094   4.644   3.517
 7814TIP3   OH223386   3.583   3.870   0.994
 7814TIP3    H123387   3.538   3.836   0.917
 7814TIP3    H223388   3.676   3.865   0.972
 7815TIP3   OH223389   4.140   3.800   6.362
 7815TIP3    H123390   4.222   3.848   6.353
 7815TIP3    H223391   4.072   3.865   6.343
 7816TIP3   OH223392   5.293   0.055   2.800
 7816TIP3    H123393   5.224  -0.010   2.793
 7816TIP3    H223394   5.293   0.100   2.715
 7817TIP3   OH223395   1.999   7.596   1.941
 7817TIP3    H123396   2.061   7.665   1.915
 7817TIP3    H223397   1.982   7.547   1.861
 7818TIP3   OH223398   6.207   7.349   0.423
 7818TIP3    H123399   6.206   7.428   0.369
 7818TIP3    H223400   6.286   7.357   0.477
 7819TIP3   OH223401   2.035   3.404   1.032
 7819TIP3    H123402   1.996   3.355   0.960
 7819TIP3    H223403   2.072   3.482   0.990
 7820TIP3   OH223404   0.256   4.535   3.586
 7820TIP3    H123405   0.214   4.496   3.662
 7820TIP3    H223406   0.196   4.604   3.558
 7821TIP3   OH223407   7.343   1.418   3.059
 7821TIP3    H123408   7.345   1.484   2.990
 7821TIP3    H223409   7.370   1.465   3.138
 7822TIP3   OH223410   3.791   4.194   0.722
 7822TIP3    H123411   3.853   4.144   0.776
 7822TIP3    H223412   3.707   4.184   0.767
 7823TIP3   OH223413   4.887   7.219   6.588
 7823TIP3    H123414   4.800   7.180   6.599
 7823TIP3    H223415   4.872   7.313   6.594
 7824TIP3   OH223416   6.913   3.277   2.818
 7824TIP3    H123417   7.006   3.256   2.829
 7824TIP3    H223418   6.912   3.345   2.751
 7825TIP3   OH223419   7.114   5.853   5.160
 7825TIP3    H123420   7.028   5.861   5.201
 7825TIP3    H223421   7.152   5.774   5.199
 7826TIP3   OH223422   0.288   4.374   2.265
 7826TIP3    H123423   0.258   4.352   2.353
 7826TIP3    H223424   0.276   4.293   2.214
 7827TIP3   OH223425   5.692   5.972   2.100
 7827TIP3    H123426   5.783   5.973   2.070
 7827TIP3    H223427   5.640   5.962   2.020
 7828TIP3   OH223428   6.693   6.369   1.533
 7828TIP3    H123429   6.673   6.346   1.442
 7828TIP3    H223430   6.673   6.463   1.539
 7829TIP3   OH223431   5.966   4.378   6.748
 7829TIP3    H123432   6.061   4.367   6.749
 7829TIP3    H223433   5.932   4.298   6.787
 7830TIP3   OH223434   7.237   5.654   5.314
 7830TIP3    H123435   7.279   5.637   5.399
 7830TIP3    H223436   7.226   5.567   5.275
 7831TIP3   OH223437   3.081   1.684   5.902
 7831TIP3    H123438   3.058   1.778   5.904
 7831TIP3    H223439   2.996   1.640   5.894
 7832TIP3   OH223440   6.884   2.834   0.207
 7832TIP3    H123441   6.821   2.842   0.278
 7832TIP3    H223442   6.957   2.890   0.233
 7833TIP3   OH223443   5.658   5.511   5.429
 7833TIP3    H123444   5.686   5.425   5.462
 7833TIP3    H223445   5.563   5.511   5.440
 7834TIP3   OH223446   8.032   3.992   5.275
 7834TIP3    H123447   8.082   3.977   5.195
 7834TIP3    H223448   8.070   3.933   5.339
 7835TIP3   OH223449   3.278   2.182   5.842
 7835TIP3    H123450   3.189   2.212   5.863
 7835TIP3    H223451   3.310   2.247   5.778
 7836TIP3   OH223452   3.226   5.672   3.927
 7836TIP3    H123453   3.294   5.613   3.896
 7836TIP3    H223454   3.265   5.714   4.005
 7837TIP3   OH223455   4.652   2.048   3.864
 7837TIP3    H123456   4.557   2.051   3.854
 7837TIP3    H223457   4.686   2.047   3.774
 7838TIP3   OH223458   6.200   7.378   6.587
 7838TIP3    H123459   6.172   7.470   6.590
 7838TIP3    H223460   6.208   7.353   6.679
 7839TIP3   OH223461   6.959   6.602   4.955
 7839TIP3    H123462   6.902   6.635   4.885
 7839TIP3    H223463   7.044   6.588   4.913
 7840TIP3   OH223464   1.791   5.762   5.697
 7840TIP3    H123465   1.816   5.700   5.629
 7840TIP3    H223466   1.696   5.762   5.697
 7841TIP3   OH223467   5.290   6.220   5.386
 7841TIP3    H123468   5.216   6.262   5.429
 7841TIP3    H223469   5.364   6.236   5.445
 7842TIP3   OH223470   2.090   4.954   3.157
 7842TIP3    H123471   2.105   5.034   3.106
 7842TIP3    H223472   2.008   4.919   3.123
 7843TIP3   OH223473   6.968   4.119   3.505
 7843TIP3    H123474   6.914   4.195   3.526
 7843TIP3    H223475   7.047   4.130   3.559
 7844TIP3   OH223476   3.992   2.439   0.187
 7844TIP3    H123477   4.029   2.385   0.117
 7844TIP3    H223478   4.022   2.397   0.267
 7845TIP3   OH223479   6.780   0.657   1.192
 7845TIP3    H123480   6.828   0.700   1.121
 7845TIP3    H223481   6.782   0.720   1.264
 7846TIP3   OH223482   4.714   7.079   5.597
 7846TIP3    H123483   4.799   7.090   5.554
 7846TIP3    H223484   4.653   7.060   5.525
 7847TIP3   OH223485   2.294   3.627   5.200
 7847TIP3    H123486   2.295   3.583   5.285
 7847TIP3    H223487   2.359   3.580   5.148
 7848TIP3   OH223488   0.319   1.915   6.159
 7848TIP3    H123489   0.333   1.934   6.066
 7848TIP3    H223490   0.362   1.830   6.173
 7849TIP3   OH223491   2.594   3.215   3.113
 7849TIP3    H123492   2.626   3.215   3.023
 7849TIP3    H223493   2.643   3.286   3.155
 7850TIP3   OH223494   7.393   1.585   2.792
 7850TIP3    H123495   7.452   1.653   2.822
 7850TIP3    H223496   7.307   1.611   2.824
 7851TIP3   OH223497   0.241   6.893   0.086
 7851TIP3    H123498   0.251   6.846   0.003
 7851TIP3    H223499   0.150   6.880   0.110
 7852TIP3   OH223500   2.114   5.323   1.067
 7852TIP3    H123501   2.162   5.387   1.120
 7852TIP3    H223502   2.182   5.263   1.035
 7853TIP3   OH223503   6.314   1.276   0.968
 7853TIP3    H123504   6.270   1.356   0.941
 7853TIP3    H223505   6.245   1.210   0.971
 7854TIP3   OH223506   6.939   1.878   2.339
 7854TIP3    H123507   7.012   1.915   2.387
 7854TIP3    H223508   6.923   1.941   2.268
 7855TIP3   OH223509   4.742   7.682   4.813
 7855TIP3    H123510   4.669   7.691   4.874
 7855TIP3    H223511   4.733   7.756   4.753
 7856TIP3   OH223512   1.869   1.694   2.841
 7856TIP3    H123513   1.956   1.660   2.817
 7856TIP3    H223514   1.887   1.758   2.909
 7857TIP3   OH223515   5.569   2.523   0.260
 7857TIP3    H123516   5.575   2.532   0.165
 7857TIP3    H223517   5.497   2.580   0.285
 7858TIP3   OH223518   3.945   7.413   6.716
 7858TIP3    H123519   3.875   7.385   6.657
 7858TIP3    H223520   4.018   7.436   6.658
 7859TIP3   OH223521   5.249   2.762   4.281
 7859TIP3    H123522   5.212   2.811   4.355
 7859TIP3    H223523   5.340   2.746   4.305
 7860TIP3   OH223524   7.830   2.089   4.440
 7860TIP3    H123525   7.881   2.015   4.472
 7860TIP3    H223526   7.894   2.159   4.428
 7861TIP3   OH223527   2.350   3.763   1.633
 7861TIP3    H123528   2.382   3.853   1.644
 7861TIP3    H223529   2.271   3.772   1.580
 7862TIP3   OH223530   5.678   2.981   0.340
 7862TIP3    H123531   5.626   3.058   0.315
 7862TIP3    H223532   5.765   3.016   0.358
 7863TIP3   OH223533   0.124   2.845   5.886
 7863TIP3    H123534   0.139   2.839   5.980
 7863TIP3    H223535   0.208   2.877   5.850
 7864TIP3   OH223536   1.198   1.027   4.136
 7864TIP3    H123537   1.280   1.076   4.147
 7864TIP3    H223538   1.132   1.095   4.119
 7865TIP3   OH223539   6.115   7.216   2.351
 7865TIP3    H123540   6.157   7.163   2.283
 7865TIP3    H223541   6.058   7.154   2.398
 7866TIP3   OH223542   2.310   3.419   2.157
 7866TIP3    H123543   2.357   3.503   2.151
 7866TIP3    H223544   2.322   3.392   2.248
 7867TIP3   OH223545   7.933   3.649   6.089
 7867TIP3    H123546   7.855   3.690   6.051
 7867TIP3    H223547   7.918   3.555   6.077
 7868TIP3   OH223548   3.127   3.107   1.273
 7868TIP3    H123549   3.154   3.023   1.310
 7868TIP3    H223550   3.189   3.170   1.310
 7869TIP3   OH223551   4.838   4.479   0.254
 7869TIP3    H123552   4.890   4.550   0.292
 7869TIP3    H223553   4.793   4.439   0.329
 7870TIP3   OH223554   6.823   6.663   4.713
 7870TIP3    H123555   6.736   6.627   4.696
 7870TIP3    H223556   6.883   6.599   4.675
 7871TIP3   OH223557   0.110   2.194   3.713
 7871TIP3    H123558   0.101   2.128   3.644
 7871TIP3    H223559   0.021   2.209   3.743
 7872TIP3   OH223560   4.162   0.876   1.572
 7872TIP3    H123561   4.233   0.930   1.536
 7872TIP3    H223562   4.195   0.786   1.564
 7873TIP3   OH223563   5.874   5.951   6.285
 7873TIP3    H123564   5.931   5.998   6.345
 7873TIP3    H223565   5.887   5.995   6.200
 7874TIP3   OH223566   6.681   6.479   6.455
 7874TIP3    H123567   6.630   6.526   6.521
 7874TIP3    H223568   6.738   6.546   6.417
 7875TIP3   OH223569   4.001   5.614   5.928
 7875TIP3    H123570   3.958   5.615   5.843
 7875TIP3    H223571   3.948   5.556   5.982
 7876TIP3   OH223572   2.606   0.114   4.101
 7876TIP3    H123573   2.632   0.204   4.122
 7876TIP3    H223574   2.680   0.061   4.129
 7877TIP3   OH223575   2.915   1.832   5.662
 7877TIP3    H123576   2.998   1.786   5.652
 7877TIP3    H223577   2.868   1.816   5.579
 7878TIP3   OH223578   7.352   1.083   2.006
 7878TIP3    H123579   7.293   1.123   2.070
 7878TIP3    H223580   7.428   1.056   2.057
 7879TIP3   OH223581   5.261   5.148   2.726
 7879TIP3    H123582   5.335   5.179   2.672
 7879TIP3    H223583   5.263   5.204   2.803
 7880TIP3   OH223584   2.636   5.358   4.079
 7880TIP3    H123585   2.636   5.335   3.986
 7880TIP3    H223586   2.585   5.288   4.121
 7881TIP3   OH223587   5.220   5.960   4.793
 7881TIP3    H123588   5.269   5.886   4.758
 7881TIP3    H223589   5.195   5.933   4.881
 7882TIP3   OH223590   3.413   6.283   0.999
 7882TIP3    H123591   3.462   6.338   1.060
 7882TIP3    H223592   3.325   6.321   0.997
 7883TIP3   OH223593   0.956   1.928   6.718
 7883TIP3    H123594   0.943   1.934   6.813
 7883TIP3    H223595   0.870   1.910   6.683
 7884TIP3   OH223596   0.940   3.869   4.964
 7884TIP3    H123597   0.923   3.816   5.042
 7884TIP3    H223598   0.953   3.805   4.894
 7885TIP3   OH223599   1.139   4.159   2.320
 7885TIP3    H123600   1.203   4.193   2.382
 7885TIP3    H223601   1.055   4.164   2.365
 7886TIP3   OH223602   2.132   7.322   1.931
 7886TIP3    H123603   2.123   7.234   1.965
 7886TIP3    H223604   2.111   7.379   2.005
 7887TIP3   OH223605   7.942   1.097   5.840
 7887TIP3    H123606   7.996   1.161   5.793
 7887TIP3    H223607   7.895   1.049   5.772
 7888TIP3   OH223608   7.932   0.136   3.291
 7888TIP3    H123609   7.964   0.221   3.262
 7888TIP3    H223610   7.997   0.074   3.260
 7889TIP3   OH223611   7.989   2.341   2.116
 7889TIP3    H123612   8.073   2.342   2.070
 7889TIP3    H223613   7.927   2.378   2.054
 7890TIP3   OH223614   5.781   4.919   2.562
 7890TIP3    H123615   5.825   5.004   2.561
 7890TIP3    H223616   5.691   4.937   2.538
 7891TIP3   OH223617   4.086   7.526   6.508
 7891TIP3    H123618   4.036   7.553   6.431
 7891TIP3    H223619   4.148   7.598   6.524
 7892TIP3   OH223620   3.051   7.784   3.676
 7892TIP3    H123621   3.147   7.779   3.671
 7892TIP3    H223622   3.029   7.863   3.626
 7893TIP3   OH223623   2.206   4.309   2.314
 7893TIP3    H123624   2.231   4.363   2.239
 7893TIP3    H223625   2.277   4.319   2.377
 7894TIP3   OH223626   5.467   6.917   6.619
 7894TIP3    H123627   5.406   6.957   6.557
 7894TIP3    H223628   5.453   6.823   6.608
 7895TIP3   OH223629   2.404   1.266   5.659
 7895TIP3    H123630   2.398   1.174   5.634
 7895TIP3    H223631   2.432   1.310   5.579
 7896TIP3   OH223632   1.878   1.032   3.070
 7896TIP3    H123633   1.949   0.989   3.117
 7896TIP3    H223634   1.877   1.121   3.106
 7897TIP3   OH223635   0.514   5.102   0.891
 7897TIP3    H123636   0.572   5.076   0.820
 7897TIP3    H223637   0.471   5.181   0.859
 7898TIP3   OH223638   3.077   1.459   6.668
 7898TIP3    H123639   3.006   1.520   6.687
 7898TIP3    H223640   3.137   1.467   6.741
 7899TIP3   OH223641   1.173   2.128   6.097
 7899TIP3    H123642   1.134   2.184   6.031
 7899TIP3    H223643   1.106   2.120   6.165
 7900TIP3   OH223644   0.276   5.417   2.756
 7900TIP3    H123645   0.304   5.401   2.667
 7900TIP3    H223646   0.219   5.494   2.749
 7901TIP3   OH223647   1.009   2.361   3.921
 7901TIP3    H123648   1.005   2.282   3.867
 7901TIP3    H223649   0.958   2.339   3.999
 7902TIP3   OH223650   6.083   2.283   1.760
 7902TIP3    H123651   6.001   2.243   1.789
 7902TIP3    H223652   6.141   2.277   1.835
 7903TIP3   OH223653   3.730   5.476   5.031
 7903TIP3    H123654   3.670   5.489   4.958
 7903TIP3    H223655   3.805   5.430   4.994
 7904TIP3   OH223656   5.152   6.890   2.300
 7904TIP3    H123657   5.174   6.982   2.320
 7904TIP3    H223658   5.081   6.896   2.236
 7905TIP3   OH223659   6.389   4.923   1.065
 7905TIP3    H123660   6.303   4.890   1.039
 7905TIP3    H223661   6.449   4.850   1.046
 7906TIP3   OH223662   2.593   1.268   5.227
 7906TIP3    H123663   2.593   1.286   5.133
 7906TIP3    H223664   2.619   1.176   5.233
 7907TIP3   OH223665   5.869   6.369   1.897
 7907TIP3    H123666   5.861   6.276   1.874
 7907TIP3    H223667   5.964   6.384   1.901
 7908TIP3   OH223668   6.491   1.418   2.949
 7908TIP3    H123669   6.552   1.352   2.982
 7908TIP3    H223670   6.435   1.371   2.887
 7909TIP3   OH223671   4.022   4.353   3.310
 7909TIP3    H123672   3.933   4.384   3.294
 7909TIP3    H223673   4.042   4.298   3.234
 7910TIP3   OH223674   4.118   7.646   1.651
 7910TIP3    H123675   4.093   7.738   1.662
 7910TIP3    H223676   4.188   7.633   1.714
 7911TIP3   OH223677   5.878   7.430   5.537
 7911TIP3    H123678   5.910   7.432   5.627
 7911TIP3    H223679   5.810   7.362   5.537
 7912TIP3   OH223680   3.457   7.525   5.645
 7912TIP3    H123681   3.408   7.507   5.726
 7912TIP3    H223682   3.510   7.446   5.632
 7913TIP3   OH223683   4.129   5.863   6.497
 7913TIP3    H123684   4.053   5.860   6.440
 7913TIP3    H223685   4.202   5.836   6.442
 7914TIP3   OH223686   3.882   6.475   4.062
 7914TIP3    H123687   3.903   6.472   3.969
 7914TIP3    H223688   3.928   6.552   4.095
 7915TIP3   OH223689   1.469   0.900   4.940
 7915TIP3    H123690   1.524   0.942   5.007
 7915TIP3    H223691   1.380   0.927   4.963
 7916TIP3   OH223692   6.005   4.823   2.185
 7916TIP3    H123693   5.960   4.788   2.262
 7916TIP3    H223694   6.096   4.798   2.197
 7917TIP3   OH223695   7.606   5.333   1.021
 7917TIP3    H123696   7.665   5.357   1.092
 7917TIP3    H223697   7.663   5.300   0.952
 7918TIP3   OH223698   2.162   2.761   4.511
 7918TIP3    H123699   2.140   2.767   4.604
 7918TIP3    H223700   2.079   2.772   4.466
 7919TIP3   OH223701   4.291   0.580   4.335
 7919TIP3    H123702   4.264   0.565   4.425
 7919TIP3    H223703   4.211   0.608   4.290
 7920TIP3   OH223704   3.215   0.831   1.800
 7920TIP3    H123705   3.183   0.825   1.710
 7920TIP3    H223706   3.310   0.818   1.792
 7921TIP3   OH223707   3.691   6.215   1.493
 7921TIP3    H123708   3.603   6.250   1.484
 7921TIP3    H223709   3.713   6.229   1.585
 7922TIP3   OH223710   5.455   2.570   2.199
 7922TIP3    H123711   5.448   2.560   2.104
 7922TIP3    H223712   5.370   2.605   2.225
 7923TIP3   OH223713   4.775  -0.029   3.728
 7923TIP3    H123714   4.765   0.022   3.808
 7923TIP3    H223715   4.823   0.028   3.668
 7924TIP3   OH223716   1.103   6.996   6.017
 7924TIP3    H123717   1.172   7.001   6.083
 7924TIP3    H223718   1.083   7.087   5.996
 7925TIP3   OH223719   5.017   6.241   6.416
 7925TIP3    H123720   5.065   6.229   6.335
 7925TIP3    H223721   4.961   6.318   6.400
 7926TIP3   OH223722   5.337   5.605   3.243
 7926TIP3    H123723   5.345   5.561   3.328
 7926TIP3    H223724   5.244   5.603   3.223
 7927TIP3   OH223725   3.383   4.384   2.412
 7927TIP3    H123726   3.307   4.383   2.470
 7927TIP3    H223727   3.459   4.375   2.470
 7928TIP3   OH223728   6.095   5.349   3.526
 7928TIP3    H123729   6.027   5.334   3.460
 7928TIP3    H223730   6.071   5.432   3.567
 7929TIP3   OH223731   2.037   6.133   4.216
 7929TIP3    H123732   2.095   6.197   4.257
 7929TIP3    H223733   1.965   6.186   4.180
 7930TIP3   OH223734   3.259   1.703   3.843
 7930TIP3    H123735   3.184   1.762   3.839
 7930TIP3    H223736   3.266   1.679   3.935
 7931TIP3   OH223737   4.044   3.328   0.093
 7931TIP3    H123738   4.002   3.383   0.027
 7931TIP3    H223739   4.107   3.275   0.044
 7932TIP3   OH223740   2.296   0.725   0.767
 7932TIP3    H123741   2.316   0.784   0.840
 7932TIP3    H223742   2.382   0.697   0.735
 7933TIP3   OH223743   3.399   1.479   6.644
 7933TIP3    H123744   3.425   1.571   6.636
 7933TIP3    H223745   3.409   1.443   6.556
 7934TIP3   OH223746   5.805   6.007   0.363
 7934TIP3    H123747   5.794   5.956   0.282
 7934TIP3    H223748   5.741   6.078   0.355
 7935TIP3   OH223749   3.302   6.156   5.408
 7935TIP3    H123750   3.372   6.093   5.422
 7935TIP3    H223751   3.226   6.118   5.452
 7936TIP3   OH223752   1.154   1.234   0.755
 7936TIP3    H123753   1.086   1.168   0.766
 7936TIP3    H223754   1.114   1.300   0.698
 7937TIP3   OH223755   6.178   3.392   0.110
 7937TIP3    H123756   6.158   3.356   0.024
 7937TIP3    H223757   6.218   3.319   0.158
 7938TIP3   OH223758   6.215   5.758   5.115
 7938TIP3    H123759   6.121   5.744   5.104
 7938TIP3    H223760   6.241   5.693   5.180
 7939TIP3   OH223761   1.378   4.927   2.356
 7939TIP3    H123762   1.285   4.923   2.379
 7939TIP3    H223763   1.421   4.871   2.420
 7940TIP3   OH223764   6.592   0.904   6.052
 7940TIP3    H123765   6.627   0.817   6.032
 7940TIP3    H223766   6.554   0.895   6.140
 7941TIP3   OH223767   6.393   6.365   2.199
 7941TIP3    H123768   6.474   6.352   2.150
 7941TIP3    H223769   6.415   6.431   2.265
 7942TIP3   OH223770   0.548   1.874   0.515
 7942TIP3    H123771   0.608   1.928   0.463
 7942TIP3    H223772   0.556   1.909   0.604
 7943TIP3   OH223773   6.673   6.692   1.922
 7943TIP3    H123774   6.613   6.767   1.915
 7943TIP3    H223775   6.652   6.653   2.006
 7944TIP3   OH223776   3.232   3.227   4.545
 7944TIP3    H123777   3.305   3.253   4.488
 7944TIP3    H223778   3.157   3.275   4.511
 7945TIP3   OH223779   3.552   4.916   1.174
 7945TIP3    H123780   3.479   4.953   1.125
 7945TIP3    H223781   3.517   4.836   1.214
 7946TIP3   OH223782   4.859   7.039   3.597
 7946TIP3    H123783   4.786   7.025   3.537
 7946TIP3    H223784   4.823   7.020   3.684
 7947TIP3   OH223785   3.557   2.818   2.062
 7947TIP3    H123786   3.603   2.832   1.979
 7947TIP3    H223787   3.575   2.727   2.084
 7948TIP3   OH223788   7.443   0.414   6.009
 7948TIP3    H123789   7.433   0.507   6.031
 7948TIP3    H223790   7.458   0.413   5.915
 7949TIP3   OH223791   3.261   0.764   3.718
 7949TIP3    H123792   3.291   0.693   3.774
 7949TIP3    H223793   3.309   0.841   3.749
 7950TIP3   OH223794   1.838   2.528   2.492
 7950TIP3    H123795   1.885   2.602   2.455
 7950TIP3    H223796   1.905   2.479   2.539
 7951TIP3   OH223797   6.297   5.286   0.100
 7951TIP3    H123798   6.257   5.330   0.025
 7951TIP3    H223799   6.251   5.202   0.105
 7952TIP3   OH223800   3.300   2.678   1.617
 7952TIP3    H123801   3.332   2.655   1.529
 7952TIP3    H223802   3.286   2.772   1.613
 7953TIP3   OH223803   6.586   7.483   2.561
 7953TIP3    H123804   6.673   7.444   2.551
 7953TIP3    H223805   6.532   7.438   2.496
 7954TIP3   OH223806   4.347   0.847   0.117
 7954TIP3    H123807   4.319   0.774   0.171
 7954TIP3    H223808   4.376   0.914   0.179
 7955TIP3   OH223809   2.164   6.753   3.529
 7955TIP3    H123810   2.181   6.841   3.497
 7955TIP3    H223811   2.232   6.699   3.489
 7956TIP3   OH223812   3.762   3.926   3.165
 7956TIP3    H123813   3.748   3.854   3.226
 7956TIP3    H223814   3.755   3.885   3.079
 7957TIP3   OH223815   2.000   2.441   6.318
 7957TIP3    H123816   2.004   2.505   6.389
 7957TIP3    H223817   2.059   2.476   6.251
 7958TIP3   OH223818   2.384   6.657   5.834
 7958TIP3    H123819   2.428   6.678   5.917
 7958TIP3    H223820   2.293   6.684   5.848
 7959TIP3   OH223821   5.335   3.160   4.253
 7959TIP3    H123822   5.401   3.112   4.204
 7959TIP3    H223823   5.359   3.252   4.242
 7960TIP3   OH223824   3.591   3.221   2.024
 7960TIP3    H123825   3.579   3.129   2.001
 7960TIP3    H223826   3.611   3.264   1.941
 7961TIP3   OH223827   2.034   3.555   6.469
 7961TIP3    H123828   2.092   3.560   6.394
 7961TIP3    H223829   2.012   3.463   6.477
 7962TIP3   OH223830   6.041   5.513   2.193
 7962TIP3    H123831   6.044   5.607   2.175
 7962TIP3    H223832   6.005   5.507   2.281
 7963TIP3   OH223833   0.703   3.037   1.110
 7963TIP3    H123834   0.790   3.005   1.086
 7963TIP3    H223835   0.705   3.042   1.206
 7964TIP3   OH223836   8.119   7.653   6.239
 7964TIP3    H123837   8.034   7.670   6.198
 7964TIP3    H223838   8.098   7.596   6.313
 7965TIP3   OH223839   4.827   4.992   6.263
 7965TIP3    H123840   4.826   5.086   6.282
 7965TIP3    H223841   4.862   4.987   6.174
 7966TIP3   OH223842   7.404   4.429   3.007
 7966TIP3    H123843   7.381   4.367   3.077
 7966TIP3    H223844   7.363   4.511   3.033
 7967TIP3   OH223845   1.184   5.690   0.359
 7967TIP3    H123846   1.201   5.687   0.454
 7967TIP3    H223847   1.090   5.675   0.351
 7968TIP3   OH223848   1.414   2.708   1.030
 7968TIP3    H123849   1.413   2.700   0.934
 7968TIP3    H223850   1.495   2.755   1.049
 7969TIP3   OH223851   5.641   3.709   4.087
 7969TIP3    H123852   5.660   3.695   4.180
 7969TIP3    H223853   5.721   3.680   4.043
 7970TIP3   OH223854   7.142   2.212   4.831
 7970TIP3    H123855   7.213   2.205   4.896
 7970TIP3    H223856   7.105   2.124   4.826
 7971TIP3   OH223857   0.534   7.336   6.611
 7971TIP3    H123858   0.466   7.275   6.582
 7971TIP3    H223859   0.503   7.422   6.581
 7972TIP3   OH223860   3.775   0.248   0.874
 7972TIP3    H123861   3.736   0.326   0.833
 7972TIP3    H223862   3.865   0.246   0.842
 7973TIP3   OH223863   2.768   0.118   2.730
 7973TIP3    H123864   2.775   0.213   2.715
 7973TIP3    H223865   2.853   0.093   2.765
 7974TIP3   OH223866   0.493   4.797   5.741
 7974TIP3    H123867   0.404   4.789   5.706
 7974TIP3    H223868   0.489   4.872   5.800
 7975TIP3   OH223869   4.038   6.183   0.328
 7975TIP3    H123870   4.044   6.204   0.235
 7975TIP3    H223871   4.105   6.237   0.369
 7976TIP3   OH223872   0.221   0.503   1.421
 7976TIP3    H123873   0.241   0.491   1.513
 7976TIP3    H223874   0.297   0.468   1.374
 7977TIP3   OH223875   6.859   6.394   2.195
 7977TIP3    H123876   6.873   6.487   2.180
 7977TIP3    H223877   6.868   6.383   2.289
 7978TIP3   OH223878   5.240   2.307   5.512
 7978TIP3    H123879   5.332   2.300   5.537
 7978TIP3    H223880   5.191   2.282   5.591
 7979TIP3   OH223881   5.328   1.639   4.104
 7979TIP3    H123882   5.250   1.693   4.112
 7979TIP3    H223883   5.401   1.702   4.106
 7980TIP3   OH223884   6.297   3.258   2.325
 7980TIP3    H123885   6.277   3.350   2.309
 7980TIP3    H223886   6.392   3.253   2.328
 7981TIP3   OH223887   6.388   4.757   6.001
 7981TIP3    H123888   6.387   4.669   6.039
 7981TIP3    H223889   6.344   4.747   5.917
 7982TIP3   OH223890   7.030   2.542   3.021
 7982TIP3    H123891   6.975   2.528   3.098
 7982TIP3    H223892   7.045   2.637   3.019
 7983TIP3   OH223893   6.914   4.112   0.751
 7983TIP3    H123894   6.877   4.069   0.674
 7983TIP3    H223895   6.920   4.042   0.817
 7984TIP3   OH223896   5.202   6.095   2.829
 7984TIP3    H123897   5.161   6.052   2.904
 7984TIP3    H223898   5.232   6.179   2.863
 7985TIP3   OH223899   2.283   6.368   2.673
 7985TIP3    H123900   2.288   6.283   2.715
 7985TIP3    H223901   2.364   6.375   2.623
 7986TIP3   OH223902   1.734   4.611   6.040
 7986TIP3    H123903   1.717   4.595   5.948
 7986TIP3    H223904   1.829   4.598   6.050
 7987TIP3   OH223905   6.447   1.481   2.024
 7987TIP3    H123906   6.362   1.455   2.059
 7987TIP3    H223907   6.500   1.503   2.101
 7988TIP3   OH223908   3.512   0.747   6.362
 7988TIP3    H123909   3.454   0.823   6.352
 7988TIP3    H223910   3.487   0.689   6.290
 7989TIP3   OH223911   0.570   5.355   5.992
 7989TIP3    H123912   0.551   5.386   5.904
 7989TIP3    H223913   0.528   5.270   5.998
 7990TIP3   OH223914   3.480   2.547   5.442
 7990TIP3    H123915   3.443   2.473   5.490
 7990TIP3    H223916   3.505   2.510   5.357
 7991TIP3   OH223917   0.510   3.897   3.398
 7991TIP3    H123918   0.567   3.974   3.398
 7991TIP3    H223919   0.544   3.841   3.468
 7992TIP3   OH223920   1.020   0.012   5.588
 7992TIP3    H123921   1.116   0.001   5.587
 7992TIP3    H223922   1.004   0.080   5.521
 7993TIP3   OH223923   5.684   1.529   3.516
 7993TIP3    H123924   5.636   1.603   3.554
 7993TIP3    H223925   5.621   1.456   3.517
 7994TIP3   OH223926   2.274   6.136   3.977
 7994TIP3    H123927   2.223   6.061   3.946
 7994TIP3    H223928   2.207   6.200   4.005
 7995TIP3   OH223929   5.853   3.021   5.374
 7995TIP3    H123930   5.831   3.009   5.281
 7995TIP3    H223931   5.778   2.984   5.421
 7996TIP3   OH223932   4.379   4.346   0.935
 7996TIP3    H123933   4.385   4.320   0.844
 7996TIP3    H223934   4.390   4.441   0.934
 7997TIP3   OH223935   7.945   1.868   4.008
 7997TIP3    H123936   7.980   1.803   3.948
 7997TIP3    H223937   7.854   1.843   4.020
 7998TIP3   OH223938   3.043   0.680   4.762
 7998TIP3    H123939   3.042   0.774   4.743
 7998TIP3    H223940   2.965   0.646   4.720
 7999TIP3   OH223941   6.454   1.823   0.865
 7999TIP3    H123942   6.394   1.896   0.849
 7999TIP3    H223943   6.448   1.808   0.960
 8000TIP3   OH223944   4.434   5.703   5.919
 8000TIP3    H123945   4.370   5.654   5.970
 8000TIP3    H223946   4.392   5.787   5.900
 8001TIP3   OH223947   2.956   1.288   2.180
 8001TIP3    H123948   2.926   1.264   2.092
 8001TIP3    H223949   2.924   1.377   2.193
 8002TIP3   OH223950   0.736   6.883   4.209
 8002TIP3    H123951   0.691   6.823   4.268
 8002TIP3    H223952   0.672   6.951   4.191
 8003TIP3   OH223953   6.115   6.088   6.457
 8003TIP3    H123954   6.132   6.070   6.549
 8003TIP3    H223955   6.191   6.052   6.411
 8004TIP3   OH223956   7.324   2.500   3.568
 8004TIP3    H123957   7.245   2.474   3.521
 8004TIP3    H223958   7.396   2.466   3.515
 8005TIP3   OH223959   0.261   0.776   0.716
 8005TIP3    H123960   0.212   0.811   0.791
 8005TIP3    H223961   0.267   0.849   0.655
 8006TIP3   OH223962   6.228   7.590   4.919
 8006TIP3    H123963   6.229   7.649   4.995
 8006TIP3    H223964   6.148   7.613   4.872
 8007TIP3   OH223965   3.179   7.261   1.979
 8007TIP3    H123966   3.084   7.255   1.983
 8007TIP3    H223967   3.203   7.306   2.061
 8008TIP3   OH223968   1.124   6.638   3.674
 8008TIP3    H123969   1.146   6.564   3.731
 8008TIP3    H223970   1.204   6.692   3.673
 8009TIP3   OH223971   4.919   1.276   0.227
 8009TIP3    H123972   4.885   1.205   0.280
 8009TIP3    H223973   4.987   1.236   0.173
 8010TIP3   OH223974   7.828   1.176   4.412
 8010TIP3    H123975   7.838   1.140   4.324
 8010TIP3    H223976   7.891   1.249   4.415
 8011TIP3   OH223977   0.060   1.023   0.412
 8011TIP3    H123978   0.084   1.100   0.361
 8011TIP3    H223979   0.013   0.967   0.349
 8012TIP3   OH223980   3.995   4.172   3.859
 8012TIP3    H123981   3.983   4.143   3.949
 8012TIP3    H223982   3.932   4.120   3.808
 8013TIP3   OH223983   8.301   5.144   0.434
 8013TIP3    H123984   8.278   5.102   0.518
 8013TIP3    H223985   8.280   5.078   0.368
 8014TIP3   OH223986   6.103   6.205   5.489
 8014TIP3    H123987   6.024   6.210   5.434
 8014TIP3    H223988   6.082   6.258   5.566
 8015TIP3   OH223989   7.690   4.513   3.502
 8015TIP3    H123990   7.642   4.538   3.581
 8015TIP3    H223991   7.779   4.498   3.532
 8016TIP3   OH223992   3.291   2.364   3.658
 8016TIP3    H123993   3.287   2.456   3.685
 8016TIP3    H223994   3.385   2.343   3.660
 8017TIP3   OH223995   5.985   5.824   0.438
 8017TIP3    H123996   5.949   5.912   0.421
 8017TIP3    H223997   5.970   5.776   0.356
 8018TIP3   OH223998   0.962   1.511   3.745
 8018TIP3    H123999   1.044   1.462   3.753
 8018TIP3    H224000   0.899   1.446   3.714
 8019TIP3   OH224001   2.546   4.891   4.726
 8019TIP3    H124002   2.553   4.937   4.642
 8019TIP3    H224003   2.630   4.847   4.736
 8020TIP3   OH224004   4.778   2.668   5.669
 8020TIP3    H124005   4.723   2.712   5.604
 8020TIP3    H224006   4.727   2.591   5.694
 8021TIP3   OH224007   3.703   1.164   4.394
 8021TIP3    H124008   3.677   1.246   4.353
 8021TIP3    H224009   3.663   1.096   4.341
 8022TIP3   OH224010   4.721   1.247   4.311
 8022TIP3    H124011   4.663   1.276   4.382
 8022TIP3    H224012   4.712   1.315   4.244
 8023TIP3   OH224013   6.832   6.381   2.482
 8023TIP3    H124014   6.907   6.435   2.507
 8023TIP3    H224015   6.756   6.433   2.508
 8024TIP3   OH224016   2.576   3.936   1.475
 8024TIP3    H124017   2.598   3.910   1.564
 8024TIP3    H224018   2.621   4.019   1.462
 8025TIP3   OH224019   0.824   7.745   5.097
 8025TIP3    H124020   0.874   7.803   5.041
 8025TIP3    H224021   0.749   7.719   5.043
 8026TIP3   OH224022   1.284   4.469   4.160
 8026TIP3    H124023   1.209   4.450   4.105
 8026TIP3    H224024   1.315   4.555   4.131
 8027TIP3   OH224025   1.121   3.846   3.656
 8027TIP3    H124026   1.207   3.862   3.619
 8027TIP3    H224027   1.098   3.758   3.627
 8028TIP3   OH224028   1.785   3.329   0.869
 8028TIP3    H124029   1.742   3.301   0.950
 8028TIP3    H224030   1.782   3.425   0.873
 8029TIP3   OH224031   1.967   0.537   0.843
 8029TIP3    H124032   1.885   0.579   0.869
 8029TIP3    H224033   2.030   0.564   0.910
 8030TIP3   OH224034   5.892   1.136   2.394
 8030TIP3    H124035   5.978   1.172   2.418
 8030TIP3    H224036   5.912   1.068   2.330
 8031TIP3   OH224037   0.680   5.386   0.675
 8031TIP3    H124038   0.676   5.478   0.646
 8031TIP3    H224039   0.732   5.342   0.608
 8032TIP3   OH224040   8.298   2.421   3.183
 8032TIP3    H124041   8.326   2.394   3.270
 8032TIP3    H224042   8.223   2.366   3.163
 8033TIP3   OH224043   1.434   2.557   6.662
 8033TIP3    H124044   1.375   2.509   6.604
 8033TIP3    H224045   1.507   2.584   6.606
 8034TIP3   OH224046   6.554   0.632   4.405
 8034TIP3    H124047   6.491   0.662   4.340
 8034TIP3    H224048   6.505   0.630   4.487
 8035TIP3   OH224049   5.227   5.673   0.429
 8035TIP3    H124050   5.142   5.707   0.460
 8035TIP3    H224051   5.263   5.627   0.505
 8036TIP3   OH224052   4.337   1.281   6.318
 8036TIP3    H124053   4.366   1.335   6.392
 8036TIP3    H224054   4.389   1.313   6.244
 8037TIP3   OH224055   3.009   1.564   6.177
 8037TIP3    H124056   3.061   1.489   6.146
 8037TIP3    H224057   3.064   1.640   6.158
 8038TIP3   OH224058   2.122   5.149   1.325
 8038TIP3    H124059   2.159   5.225   1.281
 8038TIP3    H224060   2.043   5.128   1.275
 8039TIP3   OH224061   0.702   2.171   2.345
 8039TIP3    H124062   0.651   2.200   2.421
 8039TIP3    H224063   0.639   2.170   2.273
 8040TIP3   OH224064   7.610   3.313   1.123
 8040TIP3    H124065   7.681   3.372   1.148
 8040TIP3    H224066   7.562   3.361   1.055
 8041TIP3   OH224067   6.625   1.356   4.406
 8041TIP3    H124068   6.679   1.307   4.344
 8041TIP3    H224069   6.563   1.404   4.351
 8042TIP3   OH224070   1.181   1.890   4.761
 8042TIP3    H124071   1.248   1.954   4.740
 8042TIP3    H224072   1.134   1.927   4.835
 8043TIP3   OH224073   6.990   6.448   6.353
 8043TIP3    H124074   7.014   6.518   6.413
 8043TIP3    H224075   7.072   6.405   6.332
 8044TIP3   OH224076   0.502   3.338   1.357
 8044TIP3    H124077   0.438   3.343   1.286
 8044TIP3    H224078   0.529   3.246   1.359
 8045TIP3   OH224079   1.504   1.223   0.128
 8045TIP3    H124080   1.501   1.316   0.148
 8045TIP3    H224081   1.548   1.218   0.043
 8046TIP3   OH224082   3.878   6.827   5.034
 8046TIP3    H124083   3.936   6.753   5.018
 8046TIP3    H224084   3.790   6.791   5.023
 8047TIP3   OH224085   3.042   5.436   4.682
 8047TIP3    H124086   3.125   5.387   4.680
 8047TIP3    H224087   3.056   5.504   4.748
 8048TIP3   OH224088   3.820   6.079   2.656
 8048TIP3    H124089   3.857   6.083   2.568
 8048TIP3    H224090   3.729   6.051   2.642
 8049TIP3   OH224091   6.474   3.525   0.649
 8049TIP3    H124092   6.504   3.519   0.559
 8049TIP3    H224093   6.392   3.574   0.644
 8050TIP3   OH224094   7.054   3.956   3.749
 8050TIP3    H124095   6.989   4.023   3.771
 8050TIP3    H224096   7.016   3.909   3.675
 8051TIP3   OH224097   1.450   7.072   6.380
 8051TIP3    H124098   1.414   7.151   6.419
 8051TIP3    H224099   1.468   7.015   6.455
 8052TIP3   OH224100   7.744   3.310   3.777
 8052TIP3    H124101   7.781   3.256   3.847
 8052TIP3    H224102   7.696   3.379   3.822
 8053TIP3   OH224103   8.191   3.911   1.510
 8053TIP3    H124104   8.138   3.989   1.493
 8053TIP3    H224105   8.242   3.933   1.587
 8054TIP3   OH224106   4.412   1.415   0.893
 8054TIP3    H124107   4.406   1.498   0.941
 8054TIP3    H224108   4.415   1.440   0.801
 8055TIP3   OH224109   5.254   6.685   2.153
 8055TIP3    H124110   5.223   6.765   2.196
 8055TIP3    H224111   5.324   6.714   2.095
 8056TIP3   OH224112   4.564   2.415   2.253
 8056TIP3    H124113   4.591   2.380   2.168
 8056TIP3    H224114   4.635   2.390   2.312
 8057TIP3   OH224115   1.357   0.542   5.114
 8057TIP3    H124116   1.402   0.598   5.177
 8057TIP3    H224117   1.394   0.567   5.029
 8058TIP3   OH224118   3.974   7.633   0.103
 8058TIP3    H124119   3.964   7.665   0.192
 8058TIP3    H224120   3.885   7.616   0.073
 8059TIP3   OH224121   7.540   7.817   3.956
 8059TIP3    H124122   7.596   7.759   4.007
 8059TIP3    H224123   7.465   7.763   3.931
 8060TIP3   OH224124   6.410   1.923   3.578
 8060TIP3    H124125   6.363   1.871   3.643
 8060TIP3    H224126   6.362   1.910   3.496
 8061TIP3   OH224127   5.871   3.841   3.928
 8061TIP3    H124128   5.810   3.806   3.863
 8061TIP3    H224129   5.944   3.779   3.930
 8062TIP3   OH224130   0.180   7.109   0.591
 8062TIP3    H124131   0.203   7.133   0.501
 8062TIP3    H224132   0.253   7.055   0.621
 8063TIP3   OH224133   4.621   0.267   5.378
 8063TIP3    H124134   4.538   0.229   5.406
 8063TIP3    H224135   4.618   0.357   5.410
 8064TIP3   OH224136   7.703   5.967   1.075
 8064TIP3    H124137   7.755   6.028   1.022
 8064TIP3    H224138   7.768   5.924   1.131
 8065TIP3   OH224139   0.036   7.759   4.515
 8065TIP3    H124140   0.099   7.737   4.583
 8065TIP3    H224141   0.032   7.855   4.516
 8066TIP3   OH224142   6.487   4.088   1.582
 8066TIP3    H124143   6.548   4.129   1.642
 8066TIP3    H224144   6.409   4.143   1.585
 8067TIP3   OH224145   2.040   2.714   1.220
 8067TIP3    H124146   2.086   2.772   1.159
 8067TIP3    H224147   1.959   2.761   1.240
 8068TIP3   OH224148   7.557   2.113   4.488
 8068TIP3    H124149   7.551   2.026   4.529
 8068TIP3    H224150   7.650   2.122   4.466
 8069TIP3   OH224151   5.145   2.159   2.979
 8069TIP3    H124152   5.062   2.177   3.023
 8069TIP3    H224153   5.193   2.241   2.986
 8070TIP3   OH224154   1.325   1.773   0.438
 8070TIP3    H124155   1.263   1.706   0.466
 8070TIP3    H224156   1.291   1.803   0.354
 8071TIP3   OH224157   3.375   5.429   0.153
 8071TIP3    H124158   3.301   5.481   0.120
 8071TIP3    H224159   3.394   5.366   0.083
 8072TIP3   OH224160   2.039   1.286   3.079
 8072TIP3    H124161   1.951   1.275   3.116
 8072TIP3    H224162   2.083   1.345   3.139
 8073TIP3   OH224163   3.208   4.127   2.579
 8073TIP3    H124164   3.220   4.033   2.589
 8073TIP3    H224165   3.295   4.164   2.590
 8074TIP3   OH224166   7.944   1.414   2.577
 8074TIP3    H124167   7.870   1.362   2.606
 8074TIP3    H224168   7.905   1.489   2.532
 8075TIP3   OH224169   6.919   3.498   2.110
 8075TIP3    H124170   6.907   3.555   2.034
 8075TIP3    H224171   6.839   3.509   2.161
 8076TIP3   OH224172   0.662   3.481   6.407
 8076TIP3    H124173   0.647   3.432   6.326
 8076TIP3    H224174   0.578   3.520   6.428
 8077TIP3   OH224175   1.742   0.881   0.844
 8077TIP3    H124176   1.677   0.920   0.785
 8077TIP3    H224177   1.696   0.873   0.927
 8078TIP3   OH224178   6.138   6.501   2.546
 8078TIP3    H124179   6.078   6.437   2.507
 8078TIP3    H224180   6.122   6.494   2.640
 8079TIP3   OH224181   3.162   0.727   0.138
 8079TIP3    H124182   3.201   0.780   0.068
 8079TIP3    H224183   3.237   0.686   0.181
 8080TIP3   OH224184   2.992   3.613   1.332
 8080TIP3    H124185   3.069   3.670   1.339
 8080TIP3    H224186   2.918   3.674   1.324
 8081TIP3   OH224187   6.435   6.866   0.862
 8081TIP3    H124188   6.418   6.772   0.853
 8081TIP3    H224189   6.457   6.895   0.773
 8082TIP3   OH224190   1.965   2.854   0.943
 8082TIP3    H124191   1.957   2.931   0.888
 8082TIP3    H224192   2.040   2.872   0.999
 8083TIP3   OH224193   5.184   0.939   0.878
 8083TIP3    H124194   5.220   0.890   0.805
 8083TIP3    H224195   5.228   1.024   0.874
 8084TIP3   OH224196   3.909   5.612   3.561
 8084TIP3    H124197   3.914   5.678   3.492
 8084TIP3    H224198   3.881   5.532   3.517
 8085TIP3   OH224199   7.931   0.034   3.797
 8085TIP3    H124200   7.860   0.098   3.793
 8085TIP3    H224201   7.986   0.056   3.722
 8086TIP3   OH224202   3.174   0.630   3.493
 8086TIP3    H124203   3.192   0.676   3.574
 8086TIP3    H224204   3.098   0.674   3.456
 8087TIP3   OH224205   3.872   0.609   5.457
 8087TIP3    H124206   3.783   0.625   5.427
 8087TIP3    H224207   3.873   0.640   5.547
 8088TIP3   OH224208   5.488   6.126   6.669
 8088TIP3    H124209   5.564   6.083   6.629
 8088TIP3    H224210   5.412   6.081   6.632
 8089TIP3   OH224211   0.767   7.022   1.661
 8089TIP3    H124212   0.722   6.939   1.643
 8089TIP3    H224213   0.793   7.054   1.574
 8090TIP3   OH224214   4.357   6.411   3.704
 8090TIP3    H124215   4.386   6.503   3.705
 8090TIP3    H224216   4.392   6.374   3.784
 8091TIP3   OH224217   5.174   1.432   0.702
 8091TIP3    H124218   5.202   1.453   0.792
 8091TIP3    H224219   5.094   1.382   0.714
 8092TIP3   OH224220   2.590   1.480   5.778
 8092TIP3    H124221   2.500   1.500   5.754
 8092TIP3    H224222   2.593   1.385   5.784
 8093TIP3   OH224223   4.996   0.904   1.748
 8093TIP3    H124224   4.984   0.893   1.843
 8093TIP3    H224225   4.926   0.852   1.709
 8094TIP3   OH224226   1.611   3.301   3.091
 8094TIP3    H124227   1.638   3.215   3.060
 8094TIP3    H224228   1.654   3.311   3.176
 8095TIP3   OH224229   4.390   4.628   2.136
 8095TIP3    H124230   4.405   4.669   2.221
 8095TIP3    H224231   4.428   4.541   2.144
 8096TIP3   OH224232   4.863   1.822   0.631
 8096TIP3    H124233   4.837   1.890   0.694
 8096TIP3    H224234   4.956   1.807   0.649
 8097TIP3   OH224235   1.809   6.355   0.347
 8097TIP3    H124236   1.799   6.275   0.296
 8097TIP3    H224237   1.798   6.426   0.283
 8098TIP3   OH224238   2.861   4.983   0.056
 8098TIP3    H124239   2.893   4.942  -0.024
 8098TIP3    H224240   2.933   4.975   0.118
 8099TIP3   OH224241   5.704   2.015   2.804
 8099TIP3    H124242   5.793   1.994   2.776
 8099TIP3    H224243   5.656   2.028   2.722
 8100TIP3   OH224244   5.878   6.712   0.116
 8100TIP3    H124245   5.951   6.769   0.093
 8100TIP3    H224246   5.917   6.640   0.166
 8101TIP3   OH224247   7.016   5.336   5.748
 8101TIP3    H124248   7.031   5.285   5.828
 8101TIP3    H224249   7.010   5.272   5.678
 8102TIP3   OH224250   5.386   4.720   3.796
 8102TIP3    H124251   5.381   4.811   3.766
 8102TIP3    H224252   5.298   4.685   3.784
 8103TIP3   OH224253   7.086   0.087   3.990
 8103TIP3    H124254   7.017   0.031   4.026
 8103TIP3    H224255   7.058   0.104   3.900
 8104TIP3   OH224256   6.254   5.822   3.499
 8104TIP3    H124257   6.313   5.810   3.573
 8104TIP3    H224258   6.300   5.782   3.425
 8105TIP3   OH224259   2.702   4.733   3.141
 8105TIP3    H124260   2.660   4.764   3.221
 8105TIP3    H224261   2.782   4.786   3.134
 8106TIP3   OH224262   2.768   5.429   6.588
 8106TIP3    H124263   2.851   5.418   6.541
 8106TIP3    H224264   2.764   5.352   6.646
 8107TIP3   OH224265   2.429   0.993   4.601
 8107TIP3    H124266   2.443   1.013   4.693
 8107TIP3    H224267   2.399   1.076   4.563
 8108TIP3   OH224268   7.394   6.599   3.405
 8108TIP3    H124269   7.383   6.569   3.496
 8108TIP3    H224270   7.306   6.597   3.368
 8109TIP3   OH224271   3.020   5.823   1.674
 8109TIP3    H124272   3.093   5.802   1.732
 8109TIP3    H224273   2.959   5.872   1.728
 8110TIP3   OH224274   6.356   2.193   0.086
 8110TIP3    H124275   6.324   2.103   0.080
 8110TIP3    H224276   6.287   2.241   0.131
 8111TIP3   OH224277   7.706   0.262   6.288
 8111TIP3    H124278   7.688   0.181   6.242
 8111TIP3    H224279   7.779   0.302   6.240
 8112TIP3   OH224280   8.141   5.875   5.938
 8112TIP3    H124281   8.210   5.922   5.891
 8112TIP3    H224282   8.068   5.872   5.877
 8113TIP3   OH224283   5.745   3.139   0.815
 8113TIP3    H124284   5.657   3.148   0.778
 8113TIP3    H224285   5.783   3.226   0.810
 8114TIP3   OH224286   1.646   1.329   6.207
 8114TIP3    H124287   1.690   1.302   6.288
 8114TIP3    H224288   1.689   1.411   6.183
 8115TIP3   OH224289   1.604   7.650   4.485
 8115TIP3    H124290   1.580   7.558   4.496
 8115TIP3    H224291   1.550   7.680   4.412
 8116TIP3   OH224292   0.360   3.094   6.217
 8116TIP3    H124293   0.264   3.086   6.211
 8116TIP3    H224294   0.373   3.176   6.266
 8117TIP3   OH224295   5.127   4.198   3.351
 8117TIP3    H124296   5.087   4.285   3.353
 8117TIP3    H224297   5.053   4.138   3.353
 8118TIP3   OH224298   5.950   7.762   2.670
 8118TIP3    H124299   6.003   7.838   2.695
 8118TIP3    H224300   6.008   7.709   2.615
 8119TIP3   OH224301   8.292   3.720   3.804
 8119TIP3    H124302   8.201   3.719   3.774
 8119TIP3    H224303   8.323   3.631   3.790
 8120TIP3   OH224304   0.392   5.335   1.513
 8120TIP3    H124305   0.426   5.360   1.599
 8120TIP3    H224306   0.410   5.412   1.458
 8121TIP3   OH224307   3.494   1.145   0.109
 8121TIP3    H124308   3.414   1.153   0.057
 8121TIP3    H224309   3.557   1.202   0.065
 8122TIP3   OH224310   5.474   6.082   3.385
 8122TIP3    H124311   5.539   6.049   3.324
 8122TIP3    H224312   5.510   6.061   3.472
 8123TIP3   OH224313   1.053   4.439   4.741
 8123TIP3    H124314   1.109   4.515   4.728
 8123TIP3    H224315   0.974   4.473   4.782
 8124TIP3   OH224316   5.565   1.151   6.121
 8124TIP3    H124317   5.493   1.211   6.101
 8124TIP3    H224318   5.525   1.079   6.169
 8125TIP3   OH224319   8.023   2.285   4.432
 8125TIP3    H124320   8.051   2.231   4.507
 8125TIP3    H224321   8.103   2.329   4.404
 8126TIP3   OH224322   2.990   7.750   4.218
 8126TIP3    H124323   2.923   7.791   4.163
 8126TIP3    H224324   3.073   7.777   4.178
 8127TIP3   OH224325   5.297   2.544   1.725
 8127TIP3    H124326   5.351   2.622   1.718
 8127TIP3    H224327   5.256   2.535   1.639
 8128TIP3   OH224328   2.713   5.618   1.342
 8128TIP3    H124329   2.645   5.613   1.275
 8128TIP3    H224330   2.776   5.550   1.318
 8129TIP3   OH224331   7.885   4.427   0.559
 8129TIP3    H124332   7.907   4.490   0.628
 8129TIP3    H224333   7.884   4.479   0.478
 8130TIP3   OH224334   7.318   2.601   3.180
 8130TIP3    H124335   7.266   2.626   3.256
 8130TIP3    H224336   7.408   2.595   3.214
 8131TIP3   OH224337   8.051   1.264   3.180
 8131TIP3    H124338   8.100   1.205   3.238
 8131TIP3    H224339   7.969   1.281   3.227
 8132TIP3   OH224340   7.589   4.294   6.002
 8132TIP3    H124341   7.512   4.324   5.953
 8132TIP3    H224342   7.650   4.368   5.998
 8133TIP3   OH224343   1.511   5.850   1.979
 8133TIP3    H124344   1.552   5.872   2.063
 8133TIP3    H224345   1.545   5.764   1.957
 8134TIP3   OH224346   2.321   2.440   3.649
 8134TIP3    H124347   2.372   2.390   3.713
 8134TIP3    H224348   2.298   2.377   3.581
 8135TIP3   OH224349   0.350   6.156   3.538
 8135TIP3    H124350   0.281   6.169   3.473
 8135TIP3    H224351   0.383   6.068   3.521
 8136TIP3   OH224352   2.662   3.823   0.671
 8136TIP3    H124353   2.574   3.785   0.677
 8136TIP3    H224354   2.704   3.799   0.754
 8137TIP3   OH224355   2.328   1.599   6.026
 8137TIP3    H124356   2.259   1.652   6.066
 8137TIP3    H224357   2.352   1.647   5.947
 8138TIP3   OH224358   6.275   2.633   3.508
 8138TIP3    H124359   6.203   2.634   3.445
 8138TIP3    H224360   6.354   2.626   3.454
 8139TIP3   OH224361   2.250   0.327   3.928
 8139TIP3    H124362   2.294   0.253   3.887
 8139TIP3    H224363   2.195   0.288   3.996
 8140TIP3   OH224364   2.111   5.484   1.529
 8140TIP3    H124365   2.107   5.532   1.612
 8140TIP3    H224366   2.193   5.511   1.490
 8141TIP3   OH224367   3.308   6.281   2.031
 8141TIP3    H124368   3.402   6.265   2.028
 8141TIP3    H224369   3.272   6.229   1.960
 8142TIP3   OH224370   5.023   3.863   4.965
 8142TIP3    H124371   4.954   3.806   4.930
 8142TIP3    H224372   5.085   3.803   5.007
 8143TIP3   OH224373   1.154   7.529   2.129
 8143TIP3    H124374   1.175   7.512   2.037
 8143TIP3    H224375   1.197   7.458   2.177
 8144TIP3   OH224376   0.182   1.497   1.663
 8144TIP3    H124377   0.234   1.419   1.645
 8144TIP3    H224378   0.096   1.478   1.626
 8145TIP3   OH224379   3.626   4.184   2.050
 8145TIP3    H124380   3.550   4.242   2.051
 8145TIP3    H224381   3.603   4.115   1.988
 8146TIP3   OH224382   0.311   6.364   4.611
 8146TIP3    H124383   0.384   6.303   4.616
 8146TIP3    H224384   0.242   6.324   4.665
 8147TIP3   OH224385   0.949   4.839   0.171
 8147TIP3    H124386   0.919   4.870   0.085
 8147TIP3    H224387   1.039   4.871   0.177
 8148TIP3   OH224388   5.178   3.009   1.378
 8148TIP3    H124389   5.199   3.008   1.284
 8148TIP3    H224390   5.084   3.029   1.381
 8149TIP3   OH224391   0.966   3.709   5.488
 8149TIP3    H124392   0.905   3.639   5.464
 8149TIP3    H224393   1.048   3.664   5.507
 8150TIP3   OH224394   2.505   4.975   4.472
 8150TIP3    H124395   2.543   4.984   4.385
 8150TIP3    H224396   2.420   5.020   4.467
 8151TIP3   OH224397   3.236   2.853   3.349
 8151TIP3    H124398   3.191   2.936   3.359
 8151TIP3    H224399   3.167   2.787   3.358
 8152TIP3   OH224400   4.660   6.128   5.287
 8152TIP3    H124401   4.737   6.101   5.339
 8152TIP3    H224402   4.627   6.206   5.332
 8153TIP3   OH224403   0.960   6.769   4.116
 8153TIP3    H124404   0.882   6.783   4.169
 8153TIP3    H224405   1.033   6.791   4.175
 8154TIP3   OH224406   3.566   0.342   1.167
 8154TIP3    H124407   3.591   0.250   1.172
 8154TIP3    H224408   3.483   0.347   1.214
 8155TIP3   OH224409   7.175   5.613   3.626
 8155TIP3    H124410   7.268   5.595   3.613
 8155TIP3    H224411   7.133   5.528   3.611
 8156TIP3   OH224412   6.584   0.091   0.333
 8156TIP3    H124413   6.567   0.165   0.391
 8156TIP3    H224414   6.605   0.019   0.392
 8157TIP3   OH224415   5.455   7.609   0.057
 8157TIP3    H124416   5.362   7.632   0.053
 8157TIP3    H224417   5.497   7.684   0.098
 8158TIP3   OH224418   5.144   3.965   1.634
 8158TIP3    H124419   5.215   4.018   1.597
 8158TIP3    H224420   5.098   4.025   1.692
 8159TIP3   OH224421   8.153   6.651   5.001
 8159TIP3    H124422   8.113   6.728   4.960
 8159TIP3    H224423   8.247   6.669   4.999
 8160TIP3   OH224424   0.750   0.236   2.386
 8160TIP3    H124425   0.757   0.159   2.443
 8160TIP3    H224426   0.747   0.310   2.446
 8161TIP3   OH224427   4.377   6.871   5.633
 8161TIP3    H124428   4.430   6.832   5.563
 8161TIP3    H224429   4.412   6.833   5.713
 8162TIP3   OH224430   5.239   2.163   3.717
 8162TIP3    H124431   5.225   2.087   3.660
 8162TIP3    H224432   5.331   2.157   3.743
 8163TIP3   OH224433   8.206   2.482   0.800
 8163TIP3    H124434   8.296   2.459   0.781
 8163TIP3    H224435   8.207   2.508   0.892
 8164TIP3   OH224436   7.332   7.211   3.249
 8164TIP3    H124437   7.285   7.264   3.184
 8164TIP3    H224438   7.263   7.180   3.308
 8165TIP3   OH224439   5.163   7.529   4.412
 8165TIP3    H124440   5.076   7.560   4.437
 8165TIP3    H224441   5.218   7.548   4.488
 8166TIP3   OH224442   1.530   6.795   2.726
 8166TIP3    H124443   1.622   6.804   2.752
 8166TIP3    H224444   1.514   6.700   2.728
 8167TIP3   OH224445   6.926   7.383   1.458
 8167TIP3    H124446   6.874   7.368   1.379
 8167TIP3    H224447   7.015   7.398   1.425
 8168TIP3   OH224448   6.166   7.011   2.154
 8168TIP3    H124449   6.216   6.948   2.205
 8168TIP3    H224450   6.077   6.975   2.152
 8169TIP3   OH224451   4.949   1.140   1.613
 8169TIP3    H124452   4.945   1.054   1.654
 8169TIP3    H224453   4.992   1.196   1.677
 8170TIP3   OH224454   5.845   7.288   4.113
 8170TIP3    H124455   5.756   7.261   4.134
 8170TIP3    H224456   5.898   7.257   4.187
 8171TIP3   OH224457   4.470   2.009   1.553
 8171TIP3    H124458   4.431   2.056   1.479
 8171TIP3    H224459   4.399   1.956   1.588
 8172TIP3   OH224460   5.635   5.428   0.278
 8172TIP3    H124461   5.697   5.407   0.348
 8172TIP3    H224462   5.665   5.376   0.204
 8173TIP3   OH224463   4.787   1.181   3.512
 8173TIP3    H124464   4.712   1.159   3.457
 8173TIP3    H224465   4.864   1.157   3.460
 8174TIP3   OH224466   1.919   0.970   3.964
 8174TIP3    H124467   1.852   0.995   4.028
 8174TIP3    H224468   1.999   0.962   4.016
 8175TIP3   OH224469   3.102   2.514   1.221
 8175TIP3    H124470   3.173   2.562   1.263
 8175TIP3    H224471   3.115   2.530   1.127
 8176TIP3   OH224472   3.933   3.567   2.783
 8176TIP3    H124473   3.874   3.568   2.858
 8176TIP3    H224474   3.890   3.623   2.718
 8177TIP3   OH224475   5.765   1.155   2.946
 8177TIP3    H124476   5.834   1.091   2.932
 8177TIP3    H224477   5.771   1.214   2.871
 8178TIP3   OH224478   2.794   0.746   0.653
 8178TIP3    H124479   2.790   0.677   0.719
 8178TIP3    H224480   2.888   0.759   0.638
 8179TIP3   OH224481   3.612   0.494   0.493
 8179TIP3    H124482   3.607   0.589   0.500
 8179TIP3    H224483   3.585   0.474   0.403
 8180TIP3   OH224484   0.759   1.123   2.919
 8180TIP3    H124485   0.772   1.216   2.938
 8180TIP3    H224486   0.710   1.121   2.837
 8181TIP3   OH224487   0.229   7.455   4.388
 8181TIP3    H124488   0.256   7.445   4.479
 8181TIP3    H224489   0.310   7.443   4.338
 8182TIP3   OH224490   0.718   1.109   3.475
 8182TIP3    H124491   0.639   1.058   3.490
 8182TIP3    H224492   0.710   1.141   3.385
 8183TIP3   OH224493   1.528   1.794   5.473
 8183TIP3    H124494   1.501   1.743   5.550
 8183TIP3    H224495   1.562   1.876   5.510
 8184TIP3   OH224496   3.749   0.964   6.249
 8184TIP3    H124497   3.670   0.985   6.199
 8184TIP3    H224498   3.765   1.043   6.302
 8185TIP3   OH224499   7.330   3.251   4.239
 8185TIP3    H124500   7.239   3.265   4.265
 8185TIP3    H224501   7.377   3.326   4.273
 8186TIP3   OH224502   0.473   2.914   6.031
 8186TIP3    H124503   0.441   2.993   6.075
 8186TIP3    H224504   0.433   2.918   5.944
 8187TIP3   OH224505   7.416   0.047   6.328
 8187TIP3    H124506   7.455   0.060   6.242
 8187TIP3    H224507   7.491   0.042   6.388
 8188TIP3   OH224508   4.715   1.030   1.510
 8188TIP3    H124509   4.796   1.080   1.509
 8188TIP3    H224510   4.674   1.048   1.425
 8189TIP3   OH224511   6.701   0.503   5.645
 8189TIP3    H124512   6.632   0.553   5.689
 8189TIP3    H224513   6.780   0.520   5.697
 8190TIP3   OH224514   8.115   6.424   3.314
 8190TIP3    H124515   8.146   6.392   3.230
 8190TIP3    H224516   8.052   6.493   3.292
 8191TIP3   OH224517   1.653   6.626   2.508
 8191TIP3    H124518   1.696   6.542   2.495
 8191TIP3    H224519   1.603   6.615   2.589
 8192TIP3   OH224520   4.465   5.863   4.119
 8192TIP3    H124521   4.536   5.924   4.099
 8192TIP3    H224522   4.509   5.779   4.133
 8193TIP3   OH224523   4.719   1.183   2.083
 8193TIP3    H124524   4.730   1.088   2.093
 8193TIP3    H224525   4.649   1.205   2.144
 8194TIP3   OH224526   8.230   2.386   6.248
 8194TIP3    H124527   8.174   2.451   6.290
 8194TIP3    H224528   8.210   2.304   6.294
 8195TIP3   OH224529   1.863   1.331   2.173
 8195TIP3    H124530   1.911   1.288   2.103
 8195TIP3    H224531   1.931   1.373   2.226
 8196TIP3   OH224532   3.530   0.986   3.323
 8196TIP3    H124533   3.507   0.918   3.260
 8196TIP3    H224534   3.534   1.067   3.271
 8197TIP3   OH224535   3.193   4.321   1.107
 8197TIP3    H124536   3.288   4.323   1.117
 8197TIP3    H224537   3.179   4.297   1.015
 8198TIP3   OH224538   0.969   1.334   2.662
 8198TIP3    H124539   0.924   1.329   2.578
 8198TIP3    H224540   1.016   1.417   2.660
 8199TIP3   OH224541   0.301   1.638   4.819
 8199TIP3    H124542   0.376   1.697   4.816
 8199TIP3    H224543   0.234   1.680   4.766
 8200TIP3   OH224544   0.309   1.313   4.070
 8200TIP3    H124545   0.254   1.239   4.096
 8200TIP3    H224546   0.297   1.320   3.976
 8201TIP3   OH224547   3.454   2.834   5.765
 8201TIP3    H124548   3.401   2.900   5.721
 8201TIP3    H224549   3.399   2.755   5.766
 8202TIP3   OH224550   1.380   0.064   4.297
 8202TIP3    H124551   1.371  -0.021   4.254
 8202TIP3    H224552   1.311   0.063   4.364
 8203TIP3   OH224553   3.657   1.270   3.755
 8203TIP3    H124554   3.615   1.252   3.671
 8203TIP3    H224555   3.751   1.270   3.735
 8204TIP3   OH224556   0.707   7.578   1.958
 8204TIP3    H124557   0.714   7.630   2.039
 8204TIP3    H224558   0.766   7.503   1.973
 8205TIP3   OH224559   3.303   5.030   4.909
 8205TIP3    H124560   3.256   4.950   4.884
 8205TIP3    H224561   3.268   5.052   4.995
 8206TIP3   OH224562   7.429   4.224   3.279
 8206TIP3    H124563   7.422   4.138   3.321
 8206TIP3    H224564   7.521   4.232   3.256
 8207TIP3   OH224565   1.621   5.964   4.110
 8207TIP3    H124566   1.536   5.939   4.146
 8207TIP3    H224567   1.600   6.013   4.030
 8208TIP3   OH224568   7.756   5.551   3.273
 8208TIP3    H124569   7.805   5.632   3.259
 8208TIP3    H224570   7.708   5.566   3.355
 8209TIP3   OH224571   1.719   2.910   5.626
 8209TIP3    H124572   1.674   2.840   5.673
 8209TIP3    H224573   1.769   2.865   5.558
 8210TIP3   OH224574   3.369   6.548   0.093
 8210TIP3    H124575   3.321   6.598   0.159
 8210TIP3    H224576   3.461   6.568   0.111
 8211TIP3   OH224577   4.109   5.075   1.509
 8211TIP3    H124578   4.136   4.996   1.556
 8211TIP3    H224579   4.181   5.093   1.450
 8212TIP3   OH224580   7.581   6.478   4.832
 8212TIP3    H124581   7.669   6.497   4.865
 8212TIP3    H224582   7.552   6.561   4.793
 8213TIP3   OH224583   8.254   7.489   0.806
 8213TIP3    H124584   8.261   7.562   0.745
 8213TIP3    H224585   8.312   7.422   0.771
 8214TIP3   OH224586   5.887   1.541   4.534
 8214TIP3    H124587   5.955   1.609   4.543
 8214TIP3    H224588   5.936   1.459   4.533
 8215TIP3   OH224589   8.141   1.969   1.894
 8215TIP3    H124590   8.203   1.899   1.873
 8215TIP3    H224591   8.067   1.955   1.835
 8216TIP3   OH224592   4.603   6.844   6.292
 8216TIP3    H124593   4.642   6.805   6.214
 8216TIP3    H224594   4.676   6.854   6.353
 8217TIP3   OH224595   4.426   1.728   3.233
 8217TIP3    H124596   4.431   1.727   3.137
 8217TIP3    H224597   4.381   1.810   3.254
 8218TIP3   OH224598   7.226   0.171   6.764
 8218TIP3    H124599   7.249   0.115   6.690
 8218TIP3    H224600   7.132   0.154   6.777
 8219TIP3   OH224601   3.211   7.237   0.841
 8219TIP3    H124602   3.144   7.244   0.773
 8219TIP3    H224603   3.232   7.328   0.863
 8220TIP3   OH224604   3.166   0.478   4.086
 8220TIP3    H124605   3.096   0.434   4.038
 8220TIP3    H224606   3.213   0.529   4.021
 8221TIP3   OH224607   1.900   4.252   4.829
 8221TIP3    H124608   1.894   4.223   4.920
 8221TIP3    H224609   1.849   4.333   4.826
 8222TIP3   OH224610   1.208   3.163   0.213
 8222TIP3    H124611   1.233   3.230   0.277
 8222TIP3    H224612   1.128   3.196   0.173
 8223TIP3   OH224613   2.542   6.780   3.632
 8223TIP3    H124614   2.565   6.698   3.588
 8223TIP3    H224615   2.620   6.801   3.683
 8224TIP3   OH224616   6.886   6.190   0.563
 8224TIP3    H124617   6.806   6.232   0.592
 8224TIP3    H224618   6.926   6.253   0.503
 8225TIP3   OH224619   6.732   5.929   4.871
 8225TIP3    H124620   6.689   6.011   4.894
 8225TIP3    H224621   6.667   5.880   4.822
 8226TIP3   OH224622   4.305   5.628   0.630
 8226TIP3    H124623   4.371   5.692   0.603
 8226TIP3    H224624   4.240   5.679   0.678
 8227TIP3   OH224625   0.418   5.328   6.296
 8227TIP3    H124626   0.433   5.394   6.228
 8227TIP3    H224627   0.484   5.261   6.280
 8228TIP3   OH224628   1.900   6.024   3.311
 8228TIP3    H124629   1.955   6.021   3.389
 8228TIP3    H224630   1.914   5.940   3.268
 8229TIP3   OH224631   7.084   5.892   0.238
 8229TIP3    H124632   7.069   5.982   0.209
 8229TIP3    H224633   7.075   5.896   0.333
 8230TIP3   OH224634   5.014   0.261   5.131
 8230TIP3    H124635   5.042   0.256   5.222
 8230TIP3    H224636   5.094   0.251   5.080
 8231TIP3   OH224637   3.573   0.766   1.147
 8231TIP3    H124638   3.539   0.768   1.237
 8231TIP3    H224639   3.652   0.712   1.153
 8232TIP3   OH224640   0.319   3.170   0.278
 8232TIP3    H124641   0.370   3.235   0.229
 8232TIP3    H224642   0.234   3.213   0.291
 8233TIP3   OH224643   6.000   7.177   4.890
 8233TIP3    H124644   6.038   7.227   4.963
 8233TIP3    H224645   6.067   7.112   4.869
 8234TIP3   OH224646   6.799   6.863   1.733
 8234TIP3    H124647   6.825   6.789   1.788
 8234TIP3    H224648   6.828   6.940   1.782
 8235TIP3   OH224649   1.042   1.482   1.630
 8235TIP3    H124650   1.095   1.501   1.707
 8235TIP3    H224651   1.061   1.390   1.610
 8236TIP3   OH224652   2.056   0.067   0.496
 8236TIP3    H124653   1.984   0.058   0.434
 8236TIP3    H224654   2.101   0.148   0.468
 8237TIP3   OH224655   5.905   5.088   0.075
 8237TIP3    H124656   5.936   5.178   0.072
 8237TIP3    H224657   5.810   5.095   0.064
 8238TIP3   OH224658   6.637   1.864   3.746
 8238TIP3    H124659   6.600   1.881   3.660
 8238TIP3    H224660   6.562   1.837   3.800
 8239TIP3   OH224661   4.046   7.132   6.493
 8239TIP3    H124662   4.109   7.080   6.443
 8239TIP3    H224663   4.032   7.211   6.440
 8240TIP3   OH224664   6.305   3.837   2.863
 8240TIP3    H124665   6.393   3.874   2.869
 8240TIP3    H224666   6.269   3.848   2.951
 8241TIP3   OH224667   3.538   5.231   6.775
 8241TIP3    H124668   3.550   5.325   6.758
 8241TIP3    H224669   3.450   5.211   6.742
 8242TIP3   OH224670   6.777   1.290   5.992
 8242TIP3    H124671   6.748   1.226   5.927
 8242TIP3    H224672   6.736   1.372   5.966
 8243TIP3   OH224673   1.543   7.036   2.276
 8243TIP3    H124674   1.605   7.090   2.325
 8243TIP3    H224675   1.539   6.954   2.325
 8244TIP3   OH224676   2.722   6.385   1.073
 8244TIP3    H124677   2.697   6.477   1.062
 8244TIP3    H224678   2.699   6.344   0.990
 8245TIP3   OH224679   1.597   4.896   0.629
 8245TIP3    H124680   1.564   4.812   0.597
 8245TIP3    H224681   1.599   4.887   0.724
 8246TIP3   OH224682   3.494   5.754   2.251
 8246TIP3    H124683   3.432   5.794   2.311
 8246TIP3    H224684   3.500   5.815   2.178
 8247TIP3   OH224685   0.526   7.695   4.087
 8247TIP3    H124686   0.595   7.640   4.123
 8247TIP3    H224687   0.453   7.635   4.072
 8248TIP3   OH224688   0.854   3.678   4.621
 8248TIP3    H124689   0.773   3.718   4.652
 8248TIP3    H224690   0.866   3.713   4.533
 8249TIP3   OH224691   7.432   0.214   2.890
 8249TIP3    H124692   7.377   0.292   2.897
 8249TIP3    H224693   7.415   0.181   2.801
 8250TIP3   OH224694   8.181   7.103   0.119
 8250TIP3    H124695   8.099   7.072   0.081
 8250TIP3    H224696   8.164   7.194   0.143
 8251TIP3   OH224697   1.903   6.512   5.626
 8251TIP3    H124698   1.808   6.503   5.639
 8251TIP3    H224699   1.911   6.577   5.556
 8252TIP3   OH224700   0.972   0.070   4.126
 8252TIP3    H124701   0.954   0.032   4.041
 8252TIP3    H224702   1.010  -0.001   4.178
 8253TIP3   OH224703   5.084   0.249   6.781
 8253TIP3    H124704   5.050   0.338   6.783
 8253TIP3    H224705   5.088   0.227   6.688
 8254TIP3   OH224706   2.243   3.959   3.485
 8254TIP3    H124707   2.264   3.879   3.533
 8254TIP3    H224708   2.211   4.020   3.553
 8255TIP3   OH224709   7.648   6.262   5.270
 8255TIP3    H124710   7.606   6.323   5.210
 8255TIP3    H224711   7.581   6.195   5.287
 8256TIP3   OH224712   0.684   7.741   0.290
 8256TIP3    H124713   0.776   7.764   0.278
 8256TIP3    H224714   0.672   7.664   0.235
 8257TIP3   OH224715   5.196   1.261   5.598
 8257TIP3    H124716   5.133   1.295   5.534
 8257TIP3    H224717   5.278   1.252   5.549
 8258TIP3   OH224718   2.991   4.688   5.017
 8258TIP3    H124719   2.903   4.656   5.034
 8258TIP3    H224720   2.979   4.763   4.960
 8259TIP3   OH224721   4.324   6.661   2.105
 8259TIP3    H124722   4.360   6.730   2.161
 8259TIP3    H224723   4.314   6.586   2.164
 8260TIP3   OH224724   1.554   2.763   5.183
 8260TIP3    H124725   1.541   2.843   5.131
 8260TIP3    H224726   1.506   2.780   5.264
 8261TIP3   OH224727   3.345   5.250   2.871
 8261TIP3    H124728   3.429   5.205   2.860
 8261TIP3    H224729   3.336   5.263   2.966
 8262TIP3   OH224730   2.512   2.884   4.196
 8262TIP3    H124731   2.448   2.891   4.267
 8262TIP3    H224732   2.459   2.881   4.117
 8263TIP3   OH224733   7.950   3.420   0.514
 8263TIP3    H124734   7.985   3.336   0.484
 8263TIP3    H224735   7.948   3.413   0.609
 8264TIP3   OH224736   4.743   6.870   2.483
 8264TIP3    H124737   4.664   6.913   2.451
 8264TIP3    H224738   4.716   6.825   2.562
 8265TIP3   OH224739   2.607   4.116   1.201
 8265TIP3    H124740   2.685   4.139   1.152
 8265TIP3    H224741   2.595   4.188   1.263
 8266TIP3   OH224742   0.753   3.594   3.802
 8266TIP3    H124743   0.846   3.571   3.799
 8266TIP3    H224744   0.752   3.689   3.795
 8267TIP3   OH224745   1.257   2.594   5.274
 8267TIP3    H124746   1.314   2.522   5.301
 8267TIP3    H224747   1.277   2.665   5.336
 8268TIP3   OH224748   0.181   7.350   0.740
 8268TIP3    H124749   0.178   7.283   0.672
 8268TIP3    H224750   0.251   7.323   0.798
 8269TIP3   OH224751   6.462   0.318   6.615
 8269TIP3    H124752   6.381   0.355   6.651
 8269TIP3    H224753   6.433   0.261   6.544
 8270TIP3   OH224754   0.473   5.922   3.493
 8270TIP3    H124755   0.494   5.838   3.535
 8270TIP3    H224756   0.447   5.898   3.404
 8271TIP3   OH224757   4.650   2.348   3.611
 8271TIP3    H124758   4.566   2.392   3.601
 8271TIP3    H224759   4.707   2.388   3.545
 8272TIP3   OH224760   3.180   6.023   0.188
 8272TIP3    H124761   3.222   6.108   0.177
 8272TIP3    H224762   3.128   6.032   0.269
 8273TIP3   OH224763   2.220   0.821   5.434
 8273TIP3    H124764   2.198   0.729   5.452
 8273TIP3    H224765   2.298   0.816   5.378
 8274TIP3   OH224766   4.548   6.314   6.243
 8274TIP3    H124767   4.589   6.395   6.212
 8274TIP3    H224768   4.550   6.321   6.338
 8275TIP3   OH224769   6.423   1.778   2.081
 8275TIP3    H124770   6.511   1.816   2.087
 8275TIP3    H224771   6.414   1.728   2.162
 8276TIP3   OH224772   0.062   4.421   0.199
 8276TIP3    H124773   0.115   4.376   0.133
 8276TIP3    H224774   0.050   4.356   0.268
 8277TIP3   OH224775   4.913   7.742   1.020
 8277TIP3    H124776   4.913   7.651   1.049
 8277TIP3    H224777   4.838   7.749   0.962
 8278TIP3   OH224778   2.220   4.188   3.989
 8278TIP3    H124779   2.303   4.167   4.032
 8278TIP3    H224780   2.172   4.239   4.054
 8279TIP3   OH224781   8.257   1.688   6.765
 8279TIP3    H124782   8.214   1.639   6.694
 8279TIP3    H224783   8.299   1.620   6.818
 8280TIP3   OH224784   7.251   3.851   5.823
 8280TIP3    H124785   7.342   3.878   5.815
 8280TIP3    H224786   7.200   3.930   5.807
 8281TIP3   OH224787   7.098   3.255   0.035
 8281TIP3    H124788   7.134   3.227   0.119
 8281TIP3    H224789   7.032   3.189   0.015
 8282TIP3   OH224790   4.406   2.554   4.249
 8282TIP3    H124791   4.448   2.524   4.169
 8282TIP3    H224792   4.433   2.491   4.316
 8283TIP3   OH224793   5.256   7.621   6.171
 8283TIP3    H124794   5.215   7.705   6.148
 8283TIP3    H224795   5.323   7.608   6.105
 8284TIP3   OH224796   4.471   4.235   5.374
 8284TIP3    H124797   4.412   4.170   5.411
 8284TIP3    H224798   4.558   4.199   5.387
 8285TIP3   OH224799   5.820   1.073   6.481
 8285TIP3    H124800   5.731   1.040   6.477
 8285TIP3    H224801   5.820   1.134   6.555
 8286TIP3   OH224802   1.199   0.906   1.386
 8286TIP3    H124803   1.251   0.865   1.455
 8286TIP3    H224804   1.205   1.000   1.404
 8287TIP3   OH224805   0.531   3.169   5.795
 8287TIP3    H124806   0.489   3.085   5.775
 8287TIP3    H224807   0.594   3.149   5.864
 8288TIP3   OH224808   2.105   0.455   5.868
 8288TIP3    H124809   2.186   0.506   5.879
 8288TIP3    H224810   2.051   0.479   5.942
 8289TIP3   OH224811   4.313   1.867   5.630
 8289TIP3    H124812   4.258   1.946   5.640
 8289TIP3    H224813   4.307   1.824   5.715
 8290TIP3   OH224814   2.521   6.353   3.292
 8290TIP3    H124815   2.445   6.323   3.242
 8290TIP3    H224816   2.596   6.328   3.238
 8291TIP3   OH224817   0.208   0.686   4.810
 8291TIP3    H124818   0.186   0.595   4.828
 8291TIP3    H224819   0.241   0.720   4.893
 8292TIP3   OH224820   1.889   7.407   2.741
 8292TIP3    H124821   1.815   7.348   2.756
 8292TIP3    H224822   1.896   7.412   2.646
 8293TIP3   OH224823   2.416   5.060   1.354
 8293TIP3    H124824   2.490   5.059   1.415
 8293TIP3    H224825   2.454   5.089   1.271
 8294TIP3   OH224826   7.480   7.454   5.642
 8294TIP3    H124827   7.490   7.549   5.653
 8294TIP3    H224828   7.425   7.445   5.564
 8295TIP3   OH224829   6.508   2.998   3.834
 8295TIP3    H124830   6.432   3.054   3.819
 8295TIP3    H224831   6.583   3.056   3.821
 8296TIP3   OH224832   7.876   2.823   3.379
 8296TIP3    H124833   7.805   2.761   3.363
 8296TIP3    H224834   7.954   2.781   3.342
 8297TIP3   OH224835   4.791   3.585   6.527
 8297TIP3    H124836   4.873   3.598   6.478
 8297TIP3    H224837   4.724   3.624   6.471
 8298TIP3   OH224838   1.822   3.434   5.619
 8298TIP3    H124839   1.805   3.484   5.539
 8298TIP3    H224840   1.753   3.367   5.620
 8299TIP3   OH224841   2.335   7.058   0.039
 8299TIP3    H124842   2.363   7.040  -0.050
 8299TIP3    H224843   2.368   7.146   0.058
 8300TIP3   OH224844   1.618   5.857   0.142
 8300TIP3    H124845   1.575   5.919   0.202
 8300TIP3    H224846   1.584   5.772   0.168
 8301TIP3   OH224847   1.840   2.179   5.844
 8301TIP3    H124848   1.884   2.218   5.768
 8301TIP3    H224849   1.884   2.095   5.856
 8302TIP3   OH224850   3.461   4.545   6.608
 8302TIP3    H124851   3.439   4.615   6.670
 8302TIP3    H224852   3.451   4.585   6.522
 8303TIP3   OH224853   0.130   6.280   5.615
 8303TIP3    H124854   0.140   6.186   5.606
 8303TIP3    H224855   0.218   6.316   5.602
 8304TIP3   OH224856   2.940   7.364   2.458
 8304TIP3    H124857   2.852   7.347   2.491
 8304TIP3    H224858   2.979   7.423   2.523
 8305TIP3   OH224859   0.791   6.433   6.031
 8305TIP3    H124860   0.796   6.414   5.938
 8305TIP3    H224861   0.709   6.483   6.041
 8306TIP3   OH224862   2.263   3.702   0.237
 8306TIP3    H124863   2.357   3.717   0.226
 8306TIP3    H224864   2.246   3.717   0.330
 8307TIP3   OH224865   7.670   1.274   6.505
 8307TIP3    H124866   7.705   1.212   6.441
 8307TIP3    H224867   7.582   1.293   6.473
 8308TIP3   OH224868   1.002   4.681   5.702
 8308TIP3    H124869   0.923   4.675   5.648
 8308TIP3    H224870   1.030   4.590   5.712
 8309TIP3   OH224871   4.614   7.224   2.022
 8309TIP3    H124872   4.569   7.255   1.943
 8309TIP3    H224873   4.554   7.246   2.094
 8310TIP3   OH224874   7.840   2.010   5.366
 8310TIP3    H124875   7.828   2.103   5.344
 8310TIP3    H224876   7.928   2.006   5.404
 8311TIP3   OH224877   6.726   7.209   3.621
 8311TIP3    H124878   6.774   7.291   3.633
 8311TIP3    H224879   6.789   7.150   3.579
 8312TIP3   OH224880   1.284   0.447   2.754
 8312TIP3    H124881   1.248   0.458   2.666
 8312TIP3    H224882   1.270   0.355   2.774
 8313TIP3   OH224883   1.384   1.969   6.431
 8313TIP3    H124884   1.307   1.920   6.460
 8313TIP3    H224885   1.432   1.908   6.375
 8314TIP3   OH224886   6.958   3.708   3.236
 8314TIP3    H124887   6.944   3.802   3.250
 8314TIP3    H224888   6.937   3.668   3.321
 8315TIP3   OH224889   6.766   2.366   6.282
 8315TIP3    H124890   6.824   2.396   6.352
 8315TIP3    H224891   6.713   2.297   6.322
 8316TIP3   OH224892   6.038   5.249   4.748
 8316TIP3    H124893   5.974   5.319   4.739
 8316TIP3    H224894   5.993   5.171   4.716
 8317TIP3   OH224895   0.818   7.704   0.731
 8317TIP3    H124896   0.784   7.727   0.817
 8317TIP3    H224897   0.741   7.680   0.680
 8318TIP3   OH224898   1.402   3.502   4.823
 8318TIP3    H124899   1.485   3.493   4.868
 8318TIP3    H224900   1.408   3.586   4.777
 8319TIP3   OH224901   0.945   7.472   5.493
 8319TIP3    H124902   0.851   7.457   5.505
 8319TIP3    H224903   0.950   7.545   5.432
 8320TIP3   OH224904   1.620   7.302   5.605
 8320TIP3    H124905   1.542   7.338   5.645
 8320TIP3    H224906   1.600   7.209   5.592
 8321TIP3   OH224907   4.833   4.934   4.721
 8321TIP3    H124908   4.755   4.879   4.720
 8321TIP3    H224909   4.829   4.982   4.638
 8322TIP3   OH224910   3.350   3.537   4.837
 8322TIP3    H124911   3.433   3.581   4.854
 8322TIP3    H224912   3.311   3.525   4.924
 8323TIP3   OH224913   1.653   6.849   1.119
 8323TIP3    H124914   1.610   6.785   1.174
 8323TIP3    H224915   1.583   6.910   1.094
 8324TIP3   OH224916   7.717   0.896   4.278
 8324TIP3    H124917   7.679   0.930   4.197
 8324TIP3    H224918   7.664   0.935   4.348
 8325TIP3   OH224919   4.509   1.207   3.997
 8325TIP3    H124920   4.545   1.119   4.001
 8325TIP3    H224921   4.444   1.210   4.067
 8326TIP3   OH224922   6.896   5.802   3.962
 8326TIP3    H124923   6.837   5.876   3.950
 8326TIP3    H224924   6.862   5.756   4.038
 8327TIP3   OH224925   1.060   3.539   2.964
 8327TIP3    H124926   1.055   3.500   2.876
 8327TIP3    H224927   0.977   3.586   2.974
 8328TIP3   OH224928   2.779   7.577   2.158
 8328TIP3    H124929   2.801   7.668   2.137
 8328TIP3    H224930   2.684   7.573   2.146
 8329TIP3   OH224931   5.556   2.234   0.849
 8329TIP3    H124932   5.482   2.236   0.788
 8329TIP3    H224933   5.546   2.151   0.896
 8330TIP3   OH224934   7.509   2.831   6.260
 8330TIP3    H124935   7.582   2.774   6.284
 8330TIP3    H224936   7.465   2.850   6.343
 8331TIP3   OH224937   3.547   6.740   1.217
 8331TIP3    H124938   3.462   6.773   1.187
 8331TIP3    H224939   3.576   6.804   1.282
 8332TIP3   OH224940   0.508   1.911   1.034
 8332TIP3    H124941   0.528   1.874   0.948
 8332TIP3    H224942   0.491   1.835   1.089
 8333TIP3   OH224943   0.501   4.508   5.188
 8333TIP3    H124944   0.426   4.487   5.244
 8333TIP3    H224945   0.535   4.590   5.224
 8334TIP3   OH224946   4.631   7.093   1.418
 8334TIP3    H124947   4.569   7.025   1.390
 8334TIP3    H224948   4.672   7.122   1.337
 8335TIP3   OH224949   5.572   6.874   1.010
 8335TIP3    H124950   5.489   6.895   0.969
 8335TIP3    H224951   5.633   6.862   0.937
 8336TIP3   OH224952   7.802   3.134   1.101
 8336TIP3    H124953   7.787   3.083   1.180
 8336TIP3    H224954   7.722   3.185   1.089
 8337TIP3   OH224955   5.334   3.118   6.106
 8337TIP3    H124956   5.381   3.040   6.075
 8337TIP3    H224957   5.301   3.159   6.026
 8338TIP3   OH224958   2.010   4.443   0.071
 8338TIP3    H124959   1.921   4.417   0.047
 8338TIP3    H224960   2.014   4.536   0.052
 8339TIP3   OH224961   1.860   6.289   0.770
 8339TIP3    H124962   1.873   6.327   0.857
 8339TIP3    H224963   1.939   6.312   0.721
 8340TIP3   OH224964   0.229   5.296   2.069
 8340TIP3    H124965   0.316   5.336   2.065
 8340TIP3    H224966   0.200   5.312   2.159
 8341TIP3   OH224967   6.583   0.977   6.661
 8341TIP3    H124968   6.568   1.030   6.583
 8341TIP3    H224969   6.667   0.934   6.644
 8342TIP3   OH224970   7.568   6.574   4.428
 8342TIP3    H124971   7.637   6.519   4.467
 8342TIP3    H224972   7.603   6.599   4.342
 8343TIP3   OH224973   7.032   7.358   0.697
 8343TIP3    H124974   7.122   7.332   0.717
 8343TIP3    H224975   6.993   7.280   0.657
 8344TIP3   OH224976   5.446   0.794   1.774
 8344TIP3    H124977   5.516   0.846   1.734
 8344TIP3    H224978   5.465   0.797   1.868
 8345TIP3   OH224979   1.325   5.014   1.040
 8345TIP3    H124980   1.262   4.949   1.070
 8345TIP3    H224981   1.395   5.011   1.105
 8346TIP3   OH224982   5.059   6.379   5.622
 8346TIP3    H124983   5.090   6.365   5.712
 8346TIP3    H224984   5.110   6.454   5.591
 8347TIP3   OH224985   6.490   6.280   5.244
 8347TIP3    H124986   6.542   6.323   5.176
 8347TIP3    H224987   6.524   6.190   5.247
 8348TIP3   OH224988   7.705   4.208   1.466
 8348TIP3    H124989   7.643   4.137   1.453
 8348TIP3    H224990   7.749   4.188   1.549
 8349TIP3   OH224991   3.272   2.816   4.823
 8349TIP3    H124992   3.264   2.910   4.837
 8349TIP3    H224993   3.351   2.791   4.870
 8350TIP3   OH224994   6.824   4.525   1.432
 8350TIP3    H124995   6.740   4.479   1.441
 8350TIP3    H224996   6.863   4.521   1.519
 8351TIP3   OH224997   7.658   4.584   1.664
 8351TIP3    H124998   7.650   4.495   1.697
 8351TIP3    H224999   7.715   4.628   1.727
 8352TIP3   OH225000   3.313   6.556   2.024
 8352TIP3    H125001   3.327   6.461   2.025
 8352TIP3    H225002   3.400   6.592   2.006
 8353TIP3   OH225003   2.574   7.351   4.864
 8353TIP3    H125004   2.520   7.427   4.839
 8353TIP3    H225005   2.516   7.276   4.853
 8354TIP3   OH225006   4.374   5.141   0.637
 8354TIP3    H125007   4.401   5.226   0.603
 8354TIP3    H225008   4.316   5.162   0.710
 8355TIP3   OH225009   2.980   7.354   6.366
 8355TIP3    H125010   2.945   7.438   6.396
 8355TIP3    H225011   2.904   7.308   6.331
 8356TIP3   OH225012   3.854   2.059   2.265
 8356TIP3    H125013   3.944   2.054   2.297
 8356TIP3    H225014   3.858   2.021   2.177
 8357TIP3   OH225015   5.263   4.197   2.267
 8357TIP3    H125016   5.305   4.117   2.238
 8357TIP3    H225017   5.256   4.188   2.362
 8358TIP3   OH225018   1.852   5.975   0.415
 8358TIP3    H125019   1.817   6.039   0.352
 8358TIP3    H225020   1.911   5.921   0.363
 8359TIP3   OH225021   6.908   0.263   1.447
 8359TIP3    H125022   6.864   0.212   1.379
 8359TIP3    H225023   6.995   0.222   1.454
 8360TIP3   OH225024   7.808   2.369   1.120
 8360TIP3    H125025   7.884   2.427   1.121
 8360TIP3    H225026   7.801   2.340   1.029
 8361TIP3   OH225027   5.264   5.605   2.451
 8361TIP3    H125028   5.219   5.688   2.463
 8361TIP3    H225029   5.348   5.616   2.497
 8362TIP3   OH225030   2.730   5.310   5.739
 8362TIP3    H125031   2.817   5.326   5.701
 8362TIP3    H225032   2.749   5.267   5.822
 8363TIP3   OH225033   4.764   2.624   3.764
 8363TIP3    H125034   4.745   2.541   3.806
 8363TIP3    H225035   4.679   2.658   3.737
 8364TIP3   OH225036   7.229   5.267   1.960
 8364TIP3    H125037   7.215   5.193   1.901
 8364TIP3    H225038   7.164   5.332   1.933
 8365TIP3   OH225039   3.525   1.488   4.078
 8365TIP3    H125040   3.445   1.529   4.111
 8365TIP3    H225041   3.556   1.434   4.151
 8366TIP3   OH225042   2.169   3.849   3.252
 8366TIP3    H125043   2.199   3.893   3.332
 8366TIP3    H225044   2.116   3.776   3.284
 8367TIP3   OH225045   0.722   7.523   5.722
 8367TIP3    H125046   0.627   7.536   5.731
 8367TIP3    H225047   0.731   7.431   5.699
 8368TIP3   OH225048   7.731   6.198   0.903
 8368TIP3    H125049   7.662   6.224   0.964
 8368TIP3    H225050   7.802   6.262   0.919
 8369TIP3   OH225051   1.652   6.351   1.896
 8369TIP3    H125052   1.679   6.261   1.876
 8369TIP3    H225053   1.630   6.389   1.811
 8370TIP3   OH225054   2.206   0.324   1.226
 8370TIP3    H125055   2.275   0.280   1.276
 8370TIP3    H225056   2.246   0.345   1.142
 8371TIP3   OH225057   6.027   7.226   0.238
 8371TIP3    H125058   6.086   7.251   0.310
 8371TIP3    H225059   5.956   7.178   0.281
 8372TIP3   OH225060   0.765   3.514   5.375
 8372TIP3    H125061   0.734   3.501   5.285
 8372TIP3    H225062   0.823   3.440   5.391
 8373TIP3   OH225063   5.459   4.309   3.891
 8373TIP3    H125064   5.522   4.252   3.847
 8373TIP3    H225065   5.509   4.350   3.961
 8374TIP3   OH225066   6.567   2.759   6.598
 8374TIP3    H125067   6.644   2.794   6.643
 8374TIP3    H225068   6.528   2.835   6.556
 8375TIP3   OH225069   6.574   5.605   4.609
 8375TIP3    H125070   6.611   5.589   4.696
 8375TIP3    H225071   6.542   5.695   4.613
 8376TIP3   OH225072   7.380   1.789   0.126
 8376TIP3    H125073   7.390   1.881   0.148
 8376TIP3    H225074   7.367   1.745   0.210
 8377TIP3   OH225075   4.172   3.418   0.597
 8377TIP3    H125076   4.252   3.392   0.644
 8377TIP3    H225077   4.188   3.391   0.507
 8378TIP3   OH225078   4.343   0.232   3.246
 8378TIP3    H125079   4.332   0.174   3.171
 8378TIP3    H225080   4.420   0.198   3.293
 8379TIP3   OH225081   4.115   1.190   3.984
 8379TIP3    H125082   4.139   1.283   3.982
 8379TIP3    H225083   4.127   1.160   3.893
 8380TIP3   OH225084   2.629   6.325   5.264
 8380TIP3    H125085   2.567   6.274   5.316
 8380TIP3    H225086   2.692   6.261   5.231
 8381TIP3   OH225087   2.776   1.323   4.747
 8381TIP3    H125088   2.845   1.355   4.805
 8381TIP3    H225089   2.823   1.284   4.674
 8382TIP3   OH225090   1.149   1.737   3.779
 8382TIP3    H125091   1.135   1.703   3.868
 8382TIP3    H225092   1.113   1.669   3.722
 8383TIP3   OH225093   6.220   0.231   4.659
 8383TIP3    H125094   6.303   0.184   4.666
 8383TIP3    H225095   6.242   0.323   4.673
 8384TIP3   OH225096   3.804   1.568   2.523
 8384TIP3    H125097   3.839   1.532   2.605
 8384TIP3    H225098   3.710   1.553   2.528
 8385TIP3   OH225099   0.490   1.287   4.586
 8385TIP3    H125100   0.570   1.337   4.569
 8385TIP3    H225101   0.480   1.229   4.510
 8386TIP3   OH225102   0.041   7.059   6.635
 8386TIP3    H125103  -0.006   6.977   6.618
 8386TIP3    H225104   0.051   7.100   6.549
 8387TIP3   OH225105   8.200   7.029   5.085
 8387TIP3    H125106   8.287   7.067   5.096
 8387TIP3    H225107   8.184   6.983   5.168
 8388TIP3   OH225108   4.459   1.702   0.081
 8388TIP3    H125109   4.390   1.759   0.112
 8388TIP3    H225110   4.507   1.676   0.160
 8389TIP3   OH225111   6.084   4.211   1.866
 8389TIP3    H125112   6.158   4.189   1.810
 8389TIP3    H225113   6.110   4.182   1.953
 8390TIP3   OH225114   7.168   6.886   2.930
 8390TIP3    H125115   7.253   6.843   2.929
 8390TIP3    H225116   7.134   6.872   2.842
 8391TIP3   OH225117   4.138   1.396   0.651
 8391TIP3    H125118   4.209   1.438   0.602
 8391TIP3    H225119   4.123   1.314   0.604
 8392TIP3   OH225120   1.828   7.003   5.419
 8392TIP3    H125121   1.884   7.028   5.493
 8392TIP3    H225122   1.739   7.024   5.447
 8393TIP3   OH225123   5.621   5.735   6.703
 8393TIP3    H125124   5.543   5.737   6.648
 8393TIP3    H225125   5.667   5.656   6.676
 8394TIP3   OH225126   3.867   1.461   4.031
 8394TIP3    H125127   3.806   1.392   4.005
 8394TIP3    H225128   3.894   1.438   4.120
 8395TIP3   OH225129   3.391   7.453   4.119
 8395TIP3    H125130   3.440   7.396   4.178
 8395TIP3    H225131   3.386   7.404   4.037
 8396TIP3   OH225132   6.514   7.356   3.056
 8396TIP3    H125133   6.603   7.324   3.067
 8396TIP3    H225134   6.515   7.401   2.972
 8397TIP3   OH225135   2.456   6.167   2.182
 8397TIP3    H125136   2.395   6.237   2.157
 8397TIP3    H225137   2.537   6.189   2.136
 8398TIP3   OH225138   3.109   1.882   0.558
 8398TIP3    H125139   3.027   1.861   0.604
 8398TIP3    H225140   3.143   1.958   0.604
 8399TIP3   OH225141   3.551   2.434   2.973
 8399TIP3    H125142   3.476   2.482   3.007
 8399TIP3    H225143   3.577   2.376   3.044
 8400TIP3   OH225144   2.985   3.580   5.470
 8400TIP3    H125145   3.030   3.495   5.469
 8400TIP3    H225146   2.929   3.577   5.548
 8401TIP3   OH225147   3.990   4.007   6.242
 8401TIP3    H125148   3.986   4.081   6.302
 8401TIP3    H225149   4.072   4.019   6.194
 8402TIP3   OH225150   6.713   5.546   4.828
 8402TIP3    H125151   6.725   5.459   4.790
 8402TIP3    H225152   6.785   5.598   4.793
 8403TIP3   OH225153   0.677   6.376   4.688
 8403TIP3    H125154   0.641   6.334   4.610
 8403TIP3    H225155   0.719   6.305   4.737
 8404TIP3   OH225156   5.501   2.305   3.043
 8404TIP3    H125157   5.584   2.275   3.007
 8404TIP3    H225158   5.455   2.342   2.967
 8405TIP3   OH225159   6.624   0.421   1.504
 8405TIP3    H125160   6.665   0.346   1.461
 8405TIP3    H225161   6.686   0.447   1.572
 8406TIP3   OH225162   3.793   7.373   1.411
 8406TIP3    H125163   3.835   7.364   1.496
 8406TIP3    H225164   3.842   7.442   1.367
 8407TIP3   OH225165   5.808   0.344   4.533
 8407TIP3    H125166   5.864   0.421   4.536
 8407TIP3    H225167   5.830   0.294   4.611
 8408TIP3   OH225168   3.508   3.807   5.754
 8408TIP3    H125169   3.539   3.765   5.674
 8408TIP3    H225170   3.532   3.745   5.824
 8409TIP3   OH225171   0.955   1.239   1.246
 8409TIP3    H125172   0.952   1.148   1.218
 8409TIP3    H225173   0.905   1.240   1.328
 8410TIP3   OH225174   6.279   5.196   2.353
 8410TIP3    H125175   6.235   5.165   2.273
 8410TIP3    H225176   6.344   5.128   2.373
 8411TIP3   OH225177   1.306   2.388   6.488
 8411TIP3    H125178   1.337   2.320   6.428
 8411TIP3    H225179   1.226   2.352   6.526
 8412TIP3   OH225180   2.950   0.334   3.272
 8412TIP3    H125181   2.918   0.425   3.268
 8412TIP3    H225182   2.874   0.281   3.247
 8413TIP3   OH225183   5.448   2.582   4.885
 8413TIP3    H125184   5.451   2.537   4.970
 8413TIP3    H225185   5.355   2.585   4.863
 8414TIP3   OH225186   3.795   4.224   2.800
 8414TIP3    H125187   3.842   4.141   2.807
 8414TIP3    H225188   3.777   4.233   2.707
 8415TIP3   OH225189   4.285   4.680   4.866
 8415TIP3    H125190   4.289   4.772   4.893
 8415TIP3    H225191   4.226   4.680   4.791
 8416TIP3   OH225192   7.352   4.696   3.049
 8416TIP3    H125193   7.447   4.690   3.053
 8416TIP3    H225194   7.330   4.772   3.103
 8417TIP3   OH225195   1.088   1.944   2.268
 8417TIP3    H125196   1.053   1.988   2.191
 8417TIP3    H225197   1.104   1.854   2.239
 8418TIP3   OH225198   7.304   0.966   5.310
 8418TIP3    H125199   7.381   1.019   5.331
 8418TIP3    H225200   7.262   1.013   5.238
 8419TIP3   OH225201   5.080   2.536   4.561
 8419TIP3    H125202   4.988   2.560   4.548
 8419TIP3    H225203   5.078   2.471   4.631
 8420TIP3   OH225204   2.678   1.942   3.810
 8420TIP3    H125205   2.600   1.989   3.779
 8420TIP3    H225206   2.672   1.947   3.906
 8421TIP3   OH225207   4.587   5.407   6.284
 8421TIP3    H125208   4.603   5.379   6.374
 8421TIP3    H225209   4.498   5.376   6.265
 8422TIP3   OH225210   3.240   4.781   1.375
 8422TIP3    H125211   3.332   4.764   1.393
 8422TIP3    H225212   3.220   4.726   1.299
 8423TIP3   OH225213   2.375   6.660   2.691
 8423TIP3    H125214   2.389   6.743   2.737
 8423TIP3    H225215   2.419   6.595   2.746
 8424TIP3   OH225216   6.231   5.139   0.466
 8424TIP3    H125217   6.146   5.162   0.428
 8424TIP3    H225218   6.248   5.051   0.433
 8425TIP3   OH225219   3.932   7.621   5.965
 8425TIP3    H125220   3.841   7.628   5.995
 8425TIP3    H225221   3.967   7.544   6.011
 8426TIP3   OH225222   0.813   5.596   1.473
 8426TIP3    H125223   0.821   5.596   1.378
 8426TIP3    H225224   0.899   5.568   1.505
 8427TIP3   OH225225   0.663   6.717   2.863
 8427TIP3    H125226   0.700   6.771   2.933
 8427TIP3    H225227   0.576   6.754   2.848
 8428TIP3   OH225228   2.405   2.025   4.731
 8428TIP3    H125229   2.392   2.117   4.707
 8428TIP3    H225230   2.442   2.028   4.819
 8429TIP3   OH225231   2.558   4.897   6.562
 8429TIP3    H125232   2.466   4.900   6.539
 8429TIP3    H225233   2.581   4.987   6.582
 8430TIP3   OH225234   4.416   0.870   1.107
 8430TIP3    H125235   4.452   0.801   1.050
 8430TIP3    H225236   4.358   0.919   1.050
 8431TIP3   OH225237   3.935   7.181   5.796
 8431TIP3    H125238   3.883   7.142   5.726
 8431TIP3    H225239   4.025   7.158   5.776
 8432TIP3   OH225240   1.676   5.454   0.524
 8432TIP3    H125241   1.750   5.489   0.574
 8432TIP3    H225242   1.699   5.361   0.511
 8433TIP3   OH225243   1.058   5.150   0.666
 8433TIP3    H125244   1.131   5.117   0.719
 8433TIP3    H225245   1.081   5.129   0.576
 8434TIP3   OH225246   5.177   6.844   5.660
 8434TIP3    H125247   5.117   6.779   5.695
 8434TIP3    H225248   5.212   6.889   5.736
 8435TIP3   OH225249   3.447   3.170   3.436
 8435TIP3    H125250   3.369   3.208   3.477
 8435TIP3    H225251   3.450   3.211   3.349
 8436TIP3   OH225252   2.114   1.245   2.379
 8436TIP3    H125253   2.117   1.321   2.320
 8436TIP3    H225254   2.129   1.281   2.466
 8437TIP3   OH225255   2.029   3.438   5.350
 8437TIP3    H125256   1.969   3.369   5.380
 8437TIP3    H225257   1.980   3.520   5.365
 8438TIP3   OH225258   2.990   4.702   1.687
 8438TIP3    H125259   3.080   4.670   1.683
 8438TIP3    H225260   2.936   4.625   1.669
 8439TIP3   OH225261   5.932   3.430   3.610
 8439TIP3    H125262   5.884   3.438   3.528
 8439TIP3    H225263   5.949   3.336   3.619
 8440TIP3   OH225264   5.241   6.928   1.730
 8440TIP3    H125265   5.218   7.011   1.772
 8440TIP3    H225266   5.266   6.870   1.803
 8441TIP3   OH225267   7.657   7.748   6.209
 8441TIP3    H125268   7.636   7.841   6.200
 8441TIP3    H225269   7.743   7.747   6.252
 8442TIP3   OH225270   3.293   1.063   5.259
 8442TIP3    H125271   3.325   1.067   5.349
 8442TIP3    H225272   3.366   1.028   5.209
 8443TIP3   OH225273   3.461   2.711   6.169
 8443TIP3    H125274   3.523   2.663   6.115
 8443TIP3    H225275   3.378   2.663   6.158
 8444TIP3   OH225276   2.603   0.726   4.896
 8444TIP3    H125277   2.585   0.699   4.806
 8444TIP3    H225278   2.607   0.645   4.946
 8445TIP3   OH225279   3.662   3.650   1.350
 8445TIP3    H125280   3.629   3.662   1.439
 8445TIP3    H225281   3.612   3.577   1.315
 8446TIP3   OH225282   6.058   1.257   0.102
 8446TIP3    H125283   6.101   1.307   0.032
 8446TIP3    H225284   6.002   1.322   0.147
 8447TIP3   OH225285   4.890   4.426   3.882
 8447TIP3    H125286   4.907   4.369   3.956
 8447TIP3    H225287   4.796   4.443   3.885
 8448TIP3   OH225288   4.284   4.078   2.942
 8448TIP3    H125289   4.359   4.023   2.921
 8448TIP3    H225290   4.222   4.019   2.985
 8449TIP3   OH225291   0.123   0.749   4.442
 8449TIP3    H125292   0.156   0.678   4.497
 8449TIP3    H225293   0.135   0.828   4.495
 8450TIP3   OH225294   4.895   6.204   0.824
 8450TIP3    H125295   4.925   6.219   0.734
 8450TIP3    H225296   4.917   6.112   0.841
 8451TIP3   OH225297   5.590   5.910   3.206
 8451TIP3    H125298   5.589   5.859   3.286
 8451TIP3    H225299   5.503   5.896   3.167
 8452TIP3   OH225300   0.006   3.705   5.058
 8452TIP3    H125301  -0.002   3.767   4.986
 8452TIP3    H225302   0.062   3.635   5.023
 8453TIP3   OH225303   7.410   5.584   5.554
 8453TIP3    H125304   7.494   5.572   5.598
 8453TIP3    H225305   7.349   5.530   5.604
 8454TIP3   OH225306   5.017   1.094   0.575
 8454TIP3    H125307   5.094   1.101   0.518
 8454TIP3    H225308   5.001   1.183   0.606
 8455TIP3   OH225309   1.711   2.009   1.885
 8455TIP3    H125310   1.664   1.954   1.823
 8455TIP3    H225311   1.803   2.000   1.860
 8456TIP3   OH225312   6.110   7.375   3.261
 8456TIP3    H125313   6.084   7.363   3.169
 8456TIP3    H225314   6.175   7.445   3.258
 8457TIP3   OH225315   4.866   0.680   3.298
 8457TIP3    H125316   4.908   0.754   3.342
 8457TIP3    H225317   4.913   0.671   3.216
 8458TIP3   OH225318   6.602   0.263   5.219
 8458TIP3    H125319   6.641   0.181   5.250
 8458TIP3    H225320   6.519   0.270   5.267
 8459TIP3   OH225321   4.558   0.578   6.281
 8459TIP3    H125322   4.554   0.484   6.293
 8459TIP3    H225323   4.467   0.608   6.289
 8460TIP3   OH225324   7.391   3.243   5.928
 8460TIP3    H125325   7.482   3.215   5.943
 8460TIP3    H225326   7.397   3.314   5.864
 8461TIP3   OH225327   8.046   3.465   3.177
 8461TIP3    H125328   7.999   3.481   3.095
 8461TIP3    H225329   8.091   3.547   3.195
 8462TIP3   OH225330   8.209   3.571   5.702
 8462TIP3    H125331   8.219   3.550   5.795
 8462TIP3    H225332   8.164   3.495   5.665
 8463TIP3   OH225333   3.863   4.437   4.070
 8463TIP3    H125334   3.803   4.395   4.008
 8463TIP3    H225335   3.945   4.389   4.061
 8464TIP3   OH225336   5.194   4.123   0.471
 8464TIP3    H125337   5.117   4.131   0.528
 8464TIP3    H225338   5.208   4.211   0.438
 8465TIP3   OH225339   3.793   0.240   5.466
 8465TIP3    H125340   3.771   0.321   5.511
 8465TIP3    H225341   3.746   0.172   5.514
 8466TIP3   OH225342   3.086   3.686   5.030
 8466TIP3    H125343   3.111   3.749   4.962
 8466TIP3    H225344   3.162   3.627   5.036
 8467TIP3   OH225345   3.280   2.423   1.738
 8467TIP3    H125346   3.297   2.509   1.699
 8467TIP3    H225347   3.185   2.414   1.737
 8468TIP3   OH225348   1.482   2.658   3.687
 8468TIP3    H125349   1.531   2.685   3.609
 8468TIP3    H225350   1.391   2.659   3.660
 8469TIP3   OH225351   5.492   6.585   4.980
 8469TIP3    H125352   5.533   6.505   5.013
 8469TIP3    H225353   5.405   6.586   5.021
 8470TIP3   OH225354   1.081   0.261   3.743
 8470TIP3    H125355   1.167   0.298   3.723
 8470TIP3    H225356   1.070   0.274   3.837
 8471TIP3   OH225357   6.129   6.172   3.046
 8471TIP3    H125358   6.074   6.237   3.090
 8471TIP3    H225359   6.115   6.187   2.953
 8472TIP3   OH225360   6.645   4.964   5.538
 8472TIP3    H125361   6.703   4.901   5.496
 8472TIP3    H225362   6.627   5.029   5.471
 8473TIP3   OH225363   6.286   5.133   2.018
 8473TIP3    H125364   6.362   5.086   1.983
 8473TIP3    H225365   6.226   5.141   1.943
 8474TIP3   OH225366   7.018   6.365   0.062
 8474TIP3    H125367   7.018   6.338  -0.030
 8474TIP3    H225368   7.030   6.460   0.058
 8475TIP3   OH225369   6.288   1.271   4.358
 8475TIP3    H125370   6.194   1.283   4.371
 8475TIP3    H225371   6.317   1.354   4.319
 8476TIP3   OH225372   2.129   5.073   1.952
 8476TIP3    H125373   2.181   5.089   1.872
 8476TIP3    H225374   2.047   5.120   1.937
 8477TIP3   OH225375   0.669   2.153   0.138
 8477TIP3    H125376   0.716   2.232   0.111
 8477TIP3    H225377   0.588   2.154   0.087
 8478TIP3   OH225378   2.678   0.953   5.305
 8478TIP3    H125379   2.680   0.866   5.343
 8478TIP3    H225380   2.589   0.963   5.272
 8479TIP3   OH225381   2.091   7.232   4.132
 8479TIP3    H125382   2.043   7.154   4.106
 8479TIP3    H225383   2.144   7.254   4.056
 8480TIP3   OH225384   7.439   1.807   5.174
 8480TIP3    H125385   7.499   1.830   5.244
 8480TIP3    H225386   7.394   1.728   5.205
 8481TIP3   OH225387   5.290   0.677   5.050
 8481TIP3    H125388   5.253   0.610   4.993
 8481TIP3    H225389   5.353   0.631   5.105
 8482TIP3   OH225390   2.088   5.629   3.047
 8482TIP3    H125391   2.048   5.555   3.093
 8482TIP3    H225392   2.161   5.590   2.998
 8483TIP3   OH225393   7.914   3.293   3.336
 8483TIP3    H125394   7.975   3.353   3.292
 8483TIP3    H225395   7.970   3.242   3.395
 8484TIP3   OH225396   5.511   2.390   5.739
 8484TIP3    H125397   5.560   2.437   5.672
 8484TIP3    H225398   5.499   2.302   5.702
 8485TIP3   OH225399   4.040   3.319   2.161
 8485TIP3    H125400   3.946   3.312   2.171
 8485TIP3    H225401   4.052   3.384   2.092
 8486TIP3   OH225402   5.145   0.042   4.274
 8486TIP3    H125403   5.212   0.065   4.339
 8486TIP3    H225404   5.189  -0.021   4.217
 8487TIP3   OH225405   6.688   6.740   3.346
 8487TIP3    H125406   6.623   6.754   3.415
 8487TIP3    H225407   6.759   6.693   3.389
 8488TIP3   OH225408   0.072   0.156   5.655
 8488TIP3    H125409   0.009   0.214   5.611
 8488TIP3    H225410   0.020   0.110   5.721
 8489TIP3   OH225411   0.406   1.543   5.381
 8489TIP3    H125412   0.438   1.464   5.338
 8489TIP3    H225413   0.361   1.591   5.312
 8490TIP3   OH225414   8.127   2.843   6.232
 8490TIP3    H125415   8.138   2.809   6.321
 8490TIP3    H225416   8.138   2.767   6.176
 8491TIP3   OH225417   2.100   1.465   3.710
 8491TIP3    H125418   2.134   1.554   3.708
 8491TIP3    H225419   2.047   1.461   3.789
 8492TIP3   OH225420   0.530   5.932   1.734
 8492TIP3    H125421   0.561   5.892   1.816
 8492TIP3    H225422   0.605   5.928   1.675
 8493TIP3   OH225423   1.364   4.445   2.149
 8493TIP3    H125424   1.456   4.423   2.160
 8493TIP3    H225425   1.332   4.464   2.237
 8494TIP3   OH225426   3.817   5.245   5.224
 8494TIP3    H125427   3.749   5.256   5.158
 8494TIP3    H225428   3.777   5.274   5.305
 8495TIP3   OH225429   6.509   0.305   0.507
 8495TIP3    H125430   6.489   0.245   0.579
 8495TIP3    H225431   6.516   0.390   0.549
 8496TIP3   OH225432   3.452   7.567   1.573
 8496TIP3    H125433   3.531   7.620   1.580
 8496TIP3    H225434   3.415   7.567   1.661
 8497TIP3   OH225435   6.856   5.267   2.449
 8497TIP3    H125436   6.864   5.236   2.539
 8497TIP3    H225437   6.783   5.329   2.451
 8498TIP3   OH225438   0.593   4.051   0.521
 8498TIP3    H125439   0.641   4.079   0.599
 8498TIP3    H225440   0.520   4.000   0.555
 8499TIP3   OH225441   6.924   7.509   6.219
 8499TIP3    H125442   7.004   7.458   6.208
 8499TIP3    H225443   6.854   7.444   6.218
 8500TIP3   OH225444   3.371   2.005   1.919
 8500TIP3    H125445   3.399   2.091   1.886
 8500TIP3    H225446   3.336   1.960   1.842
 8501TIP3   OH225447   7.018   0.385   3.245
 8501TIP3    H125448   6.992   0.299   3.277
 8501TIP3    H225449   6.985   0.446   3.310
 8502TIP3   OH225450   4.031   5.833   1.050
 8502TIP3    H125451   4.042   5.925   1.074
 8502TIP3    H225452   3.936   5.820   1.047
 8503TIP3   OH225453   5.084   7.300   4.263
 8503TIP3    H125454   5.088   7.319   4.170
 8503TIP3    H225455   5.127   7.374   4.305
 8504TIP3   OH225456   0.747   2.752   1.400
 8504TIP3    H125457   0.673   2.723   1.347
 8504TIP3    H225458   0.784   2.672   1.436
 8505TIP3   OH225459   7.763   5.176   6.304
 8505TIP3    H125460   7.723   5.184   6.391
 8505TIP3    H225461   7.856   5.159   6.322
 8506TIP3   OH225462   3.273   2.401   0.958
 8506TIP3    H125463   3.334   2.439   0.894
 8506TIP3    H225464   3.207   2.469   0.970
 8507TIP3   OH225465   5.436   2.440   1.946
 8507TIP3    H125466   5.495   2.372   1.914
 8507TIP3    H225467   5.386   2.467   1.869
 8508TIP3   OH225468   3.331   1.508   3.203
 8508TIP3    H125469   3.341   1.590   3.253
 8508TIP3    H225470   3.410   1.502   3.151
 8509TIP3   OH225471   3.835   0.365   2.778
 8509TIP3    H125472   3.829   0.289   2.721
 8509TIP3    H225473   3.812   0.439   2.722
 8510TIP3   OH225474   4.527   3.795   6.502
 8510TIP3    H125475   4.458   3.759   6.558
 8510TIP3    H225476   4.575   3.855   6.559
 8511TIP3   OH225477   3.469   3.212   4.348
 8511TIP3    H125478   3.510   3.298   4.345
 8511TIP3    H225479   3.497   3.174   4.431
 8512TIP3   OH225480   3.636   3.278   4.876
 8512TIP3    H125481   3.628   3.360   4.925
 8512TIP3    H225482   3.547   3.258   4.848
 8513TIP3   OH225483   1.487   2.589   2.909
 8513TIP3    H125484   1.504   2.546   2.992
 8513TIP3    H225485   1.552   2.552   2.849
 8514TIP3   OH225486   4.871   1.574   4.896
 8514TIP3    H125487   4.881   1.524   4.977
 8514TIP3    H225488   4.918   1.523   4.831
 8515TIP3   OH225489   3.072   5.280   3.288
 8515TIP3    H125490   3.139   5.256   3.224
 8515TIP3    H225491   3.096   5.368   3.316
 8516TIP3   OH225492   4.211   0.104   5.846
 8516TIP3    H125493   4.132   0.090   5.793
 8516TIP3    H225494   4.258   0.021   5.842
 8517TIP3   OH225495   5.366   1.569   5.947
 8517TIP3    H125496   5.280   1.573   5.990
 8517TIP3    H225497   5.419   1.634   5.993
 8518TIP3   OH225498   2.446   6.786   5.330
 8518TIP3    H125499   2.512   6.761   5.265
 8518TIP3    H225500   2.453   6.720   5.398
 8519TIP3   OH225501   3.391   6.613   5.399
 8519TIP3    H125502   3.457   6.668   5.442
 8519TIP3    H225503   3.443   6.546   5.354
 8520TIP3   OH225504   1.815   2.260   0.792
 8520TIP3    H125505   1.889   2.294   0.842
 8520TIP3    H225506   1.798   2.327   0.726
 8521TIP3   OH225507   1.783   2.431   0.187
 8521TIP3    H125508   1.840   2.381   0.130
 8521TIP3    H225509   1.809   2.522   0.174
 8522TIP3   OH225510   7.420   3.433   0.955
 8522TIP3    H125511   7.428   3.417   0.861
 8522TIP3    H225512   7.363   3.510   0.961
 8523TIP3   OH225513   3.908   0.165   4.651
 8523TIP3    H125514   3.839   0.226   4.626
 8523TIP3    H225515   3.933   0.192   4.739
 8524TIP3   OH225516   8.024   4.026   3.694
 8524TIP3    H125517   8.007   3.973   3.772
 8524TIP3    H225518   8.059   3.963   3.630
 8525TIP3   OH225519   3.433   2.741   3.181
 8525TIP3    H125520   3.480   2.707   3.257
 8525TIP3    H225521   3.360   2.791   3.218
 8526TIP3   OH225522   8.111   1.856   1.356
 8526TIP3    H125523   8.123   1.851   1.261
 8526TIP3    H225524   8.199   1.847   1.392
 8527TIP3   OH225525   6.495   7.323   0.387
 8527TIP3    H125526   6.485   7.333   0.293
 8527TIP3    H225527   6.588   7.301   0.400
 8528TIP3   OH225528   0.794   2.461   1.894
 8528TIP3    H125529   0.734   2.436   1.823
 8528TIP3    H225530   0.754   2.424   1.973
 8529TIP3   OH225531   2.542   7.765   5.443
 8529TIP3    H125532   2.541   7.674   5.473
 8529TIP3    H225533   2.495   7.763   5.359
 8530TIP3   OH225534   1.257   5.607   6.707
 8530TIP3    H125535   1.226   5.537   6.650
 8530TIP3    H225536   1.321   5.655   6.654
 8531TIP3   OH225537   7.675   1.919   6.540
 8531TIP3    H125538   7.650   1.840   6.588
 8531TIP3    H225539   7.701   1.888   6.454
 8532TIP3   OH225540   6.026   2.554   5.440
 8532TIP3    H125541   6.025   2.551   5.536
 8532TIP3    H225542   6.036   2.647   5.419
 8533TIP3   OH225543   3.845   3.120   5.455
 8533TIP3    H125544   3.853   3.025   5.466
 8533TIP3    H225545   3.876   3.156   5.538
 8534TIP3   OH225546   3.335   3.483   3.510
 8534TIP3    H125547   3.307   3.406   3.558
 8534TIP3    H225548   3.393   3.530   3.569
 8535TIP3   OH225549   2.964   2.488   2.929
 8535TIP3    H125550   3.020   2.413   2.949
 8535TIP3    H225551   3.021   2.550   2.884
 8536TIP3   OH225552   7.720   3.145   1.871
 8536TIP3    H125553   7.786   3.201   1.831
 8536TIP3    H225554   7.678   3.101   1.797
 8537TIP3   OH225555   6.467   2.723   4.770
 8537TIP3    H125556   6.433   2.638   4.741
 8537TIP3    H225557   6.508   2.760   4.692
 8538TIP3   OH225558   4.410   0.954   4.931
 8538TIP3    H125559   4.370   0.871   4.958
 8538TIP3    H225560   4.354   1.021   4.971
 8539TIP3   OH225561   5.432   1.330   5.181
 8539TIP3    H125562   5.361   1.287   5.133
 8539TIP3    H225563   5.406   1.323   5.273
 8540TIP3   OH225564   5.035   6.764   3.859
 8540TIP3    H125565   5.069   6.775   3.948
 8540TIP3    H225566   5.110   6.783   3.802
 8541TIP3   OH225567   2.861   2.390   4.944
 8541TIP3    H125568   2.893   2.395   5.034
 8541TIP3    H225569   2.860   2.480   4.913
 8542TIP3   OH225570   5.202   1.446   1.640
 8542TIP3    H125571   5.137   1.409   1.700
 8542TIP3    H225572   5.268   1.377   1.632
 8543TIP3   OH225573   5.434   4.069   4.624
 8543TIP3    H125574   5.400   4.013   4.554
 8543TIP3    H225575   5.523   4.090   4.598
 8544TIP3   OH225576   5.109   2.244   1.633
 8544TIP3    H125577   5.050   2.191   1.686
 8544TIP3    H225578   5.164   2.290   1.697
 8545TIP3   OH225579   0.249   6.987   1.370
 8545TIP3    H125580   0.314   7.048   1.336
 8545TIP3    H225581   0.224   7.022   1.455
 8546TIP3   OH225582   7.445   5.264   2.147
 8546TIP3    H125583   7.358   5.267   2.106
 8546TIP3    H225584   7.486   5.186   2.110
 8547TIP3   OH225585   5.401   4.979   3.657
 8547TIP3    H125586   5.443   5.062   3.680
 8547TIP3    H225587   5.350   5.000   3.578
 8548TIP3   OH225588   7.787   0.498   4.687
 8548TIP3    H125589   7.855   0.494   4.754
 8548TIP3    H225590   7.793   0.587   4.652
 8549TIP3   OH225591   5.963   2.690   2.894
 8549TIP3    H125592   5.947   2.596   2.906
 8549TIP3    H225593   6.014   2.695   2.813
 8550TIP3   OH225594   1.873   4.673   1.003
 8550TIP3    H125595   1.876   4.727   0.923
 8550TIP3    H225596   1.910   4.589   0.977
 8551TIP3   OH225597   5.525   5.975   0.920
 8551TIP3    H125598   5.515   5.926   0.838
 8551TIP3    H225599   5.436   6.001   0.943
 8552TIP3   OH225600   6.079   1.837   4.037
 8552TIP3    H125601   6.163   1.812   3.999
 8552TIP3    H225602   6.014   1.799   3.978
 8553TIP3   OH225603   0.268   6.033   4.279
 8553TIP3    H125604   0.226   5.956   4.242
 8553TIP3    H225605   0.203   6.070   4.339
 8554TIP3   OH225606   5.711   3.012   2.818
 8554TIP3    H125607   5.706   2.926   2.861
 8554TIP3    H225608   5.762   3.066   2.879
 8555TIP3   OH225609   5.132   0.477   1.501
 8555TIP3    H125610   5.143   0.551   1.441
 8555TIP3    H225611   5.221   0.451   1.524
 8556TIP3   OH225612   4.355   3.200   4.145
 8556TIP3    H125613   4.414   3.220   4.218
 8556TIP3    H225614   4.309   3.121   4.172
 8557TIP3   OH225615   3.586   3.804   3.800
 8557TIP3    H125616   3.509   3.797   3.858
 8557TIP3    H225617   3.605   3.898   3.798
 8558TIP3   OH225618   3.178   2.944   4.458
 8558TIP3    H125619   3.174   3.020   4.516
 8558TIP3    H225620   3.198   2.981   4.372
 8559TIP3   OH225621   0.987   2.652   6.346
 8559TIP3    H125622   1.006   2.592   6.418
 8559TIP3    H225623   1.033   2.615   6.271
 8560TIP3   OH225624   0.966   6.608   3.889
 8560TIP3    H125625   0.931   6.640   3.972
 8560TIP3    H225626   1.019   6.680   3.856
 8561TIP3   OH225627   2.318   6.916   0.772
 8561TIP3    H125628   2.225   6.900   0.757
 8561TIP3    H225629   2.321   7.005   0.808
 8562TIP3   OH225630   5.286   2.402   2.901
 8562TIP3    H125631   5.333   2.384   2.819
 8562TIP3    H225632   5.267   2.496   2.898
 8563TIP3   OH225633   0.157   6.103   1.498
 8563TIP3    H125634   0.092   6.093   1.428
 8563TIP3    H225635   0.146   6.194   1.528
 8564TIP3   OH225636   8.124   2.125   3.710
 8564TIP3    H125637   8.084   2.211   3.701
 8564TIP3    H225638   8.050   2.065   3.719
 8565TIP3   OH225639   0.595   0.619   3.272
 8565TIP3    H125640   0.541   0.649   3.199
 8565TIP3    H225641   0.625   0.700   3.314
 8566TIP3   OH225642   4.260   5.538   4.565
 8566TIP3    H125643   4.198   5.594   4.613
 8566TIP3    H225644   4.280   5.587   4.486
 8567TIP3   OH225645   0.279   3.341   4.539
 8567TIP3    H125646   0.287   3.435   4.556
 8567TIP3    H225647   0.325   3.327   4.456
 8568TIP3   OH225648   1.840   3.489   4.566
 8568TIP3    H125649   1.918   3.537   4.537
 8568TIP3    H225650   1.849   3.483   4.661
 8569TIP3   OH225651   1.465   3.042   0.656
 8569TIP3    H125652   1.494   3.134   0.657
 8569TIP3    H225653   1.450   3.023   0.564
 8570TIP3   OH225654   6.348   7.385   2.441
 8570TIP3    H125655   6.256   7.363   2.453
 8570TIP3    H225656   6.348   7.446   2.367
 8571TIP3   OH225657   3.242   3.503   0.973
 8571TIP3    H125658   3.162   3.482   1.021
 8571TIP3    H225659   3.230   3.592   0.942
 8572TIP3   OH225660   1.721   6.283   3.141
 8572TIP3    H125661   1.755   6.205   3.097
 8572TIP3    H225662   1.707   6.345   3.069
 8573TIP3   OH225663   7.261   2.867   1.077
 8573TIP3    H125664   7.349   2.890   1.107
 8573TIP3    H225665   7.214   2.950   1.077
 8574TIP3   OH225666   6.972   1.841   6.171
 8574TIP3    H125667   6.876   1.848   6.162
 8574TIP3    H225668   7.005   1.864   6.084
 8575TIP3   OH225669   6.043   7.655   0.793
 8575TIP3    H125670   6.027   7.598   0.718
 8575TIP3    H225671   6.093   7.729   0.758
 8576TIP3   OH225672   5.732   1.080   1.419
 8576TIP3    H125673   5.736   1.173   1.400
 8576TIP3    H225674   5.814   1.060   1.464
 8577TIP3   OH225675   1.483   5.642   3.114
 8577TIP3    H125676   1.544   5.576   3.081
 8577TIP3    H225677   1.538   5.719   3.128
 8578TIP3   OH225678   7.014   3.754   6.344
 8578TIP3    H125679   7.046   3.836   6.306
 8578TIP3    H225680   6.922   3.749   6.317
 8579TIP3   OH225681   5.832   4.158   1.122
 8579TIP3    H125682   5.837   4.254   1.116
 8579TIP3    H225683   5.856   4.128   1.035
 8580TIP3   OH225684   6.034   3.952   0.378
 8580TIP3    H125685   6.125   3.933   0.354
 8580TIP3    H225686   6.018   4.040   0.343
 8581TIP3   OH225687   2.809   7.103   3.833
 8581TIP3    H125688   2.719   7.124   3.861
 8581TIP3    H225689   2.837   7.180   3.784
 8582TIP3   OH225690   1.746   5.206   1.614
 8582TIP3    H125691   1.772   5.272   1.550
 8582TIP3    H225692   1.708   5.135   1.562
 8583TIP3   OH225693   0.021   3.907   5.273
 8583TIP3    H125694   0.017   3.850   5.196
 8583TIP3    H225695   0.005   3.995   5.238
 8584TIP3   OH225696   8.177   2.158   1.623
 8584TIP3    H125697   8.208   2.226   1.563
 8584TIP3    H225698   8.257   2.113   1.651
 8585TIP3   OH225699   6.775   4.008   5.568
 8585TIP3    H125700   6.842   4.065   5.604
 8585TIP3    H225701   6.791   3.923   5.609
 8586TIP3   OH225702   1.593   4.108   2.130
 8586TIP3    H125703   1.611   4.196   2.096
 8586TIP3    H225704   1.599   4.117   2.225
 8587TIP3   OH225705   3.244   6.008   5.138
 8587TIP3    H125706   3.223   6.101   5.148
 8587TIP3    H225707   3.333   6.007   5.103
 8588TIP3   OH225708   0.643   3.354   3.884
 8588TIP3    H125709   0.670   3.444   3.868
 8588TIP3    H225710   0.635   3.348   3.979
 8589TIP3   OH225711   7.844   5.293   1.401
 8589TIP3    H125712   7.824   5.204   1.428
 8589TIP3    H225713   7.804   5.348   1.468
 8590TIP3   OH225714   1.839   5.977   2.247
 8590TIP3    H125715   1.814   6.069   2.235
 8590TIP3    H225716   1.931   5.974   2.220
 8591TIP3   OH225717   1.318   2.960   3.620
 8591TIP3    H125718   1.355   2.878   3.587
 8591TIP3    H225719   1.261   2.933   3.692
 8592TIP3   OH225720   1.071   2.364   2.023
 8592TIP3    H125721   1.137   2.297   2.004
 8592TIP3    H225722   1.079   2.379   2.118
 8593TIP3   OH225723   2.018   4.912   4.645
 8593TIP3    H125724   1.945   4.853   4.630
 8593TIP3    H225725   2.013   4.975   4.573
 8594TIP3   OH225726   7.148   5.876   3.173
 8594TIP3    H125727   7.240   5.897   3.155
 8594TIP3    H225728   7.151   5.827   3.255
 8595TIP3   OH225729   5.844   2.336   2.485
 8595TIP3    H125730   5.784   2.395   2.438
 8595TIP3    H225731   5.800   2.251   2.483
 8596TIP3   OH225732   7.853   7.207   0.237
 8596TIP3    H125733   7.762   7.193   0.210
 8596TIP3    H225734   7.860   7.302   0.247
 8597TIP3   OH225735   4.037   3.165   6.757
 8597TIP3    H125736   4.093   3.116   6.696
 8597TIP3    H225737   4.026   3.250   6.714
 8598TIP3   OH225738   3.231   4.120   3.468
 8598TIP3    H125739   3.171   4.170   3.523
 8598TIP3    H225740   3.212   4.148   3.379
 8599TIP3   OH225741   7.101   0.408   2.693
 8599TIP3    H125742   7.131   0.499   2.698
 8599TIP3    H225743   7.049   0.404   2.613
 8600TIP3   OH225744   1.331   7.452   0.695
 8600TIP3    H125745   1.420   7.467   0.665
 8600TIP3    H225746   1.288   7.406   0.622
 8601TIP3   OH225747   1.576   4.378   2.290
 8601TIP3    H125748   1.616   4.296   2.321
 8601TIP3    H225749   1.643   4.444   2.306
 8602TIP3   OH225750   2.248   7.244   2.522
 8602TIP3    H125751   2.199   7.226   2.442
 8602TIP3    H225752   2.301   7.321   2.501
 8603TIP3   OH225753   0.347   1.701   4.354
 8603TIP3    H125754   0.410   1.740   4.415
 8603TIP3    H225755   0.271   1.680   4.408
 8604TIP3   OH225756   3.075   3.671   3.842
 8604TIP3    H125757   3.097   3.578   3.839
 8604TIP3    H225758   3.159   3.716   3.836
 8605TIP3   OH225759   2.641   0.536   5.853
 8605TIP3    H125760   2.575   0.496   5.796
 8605TIP3    H225761   2.720   0.538   5.801
 8606TIP3   OH225762   3.639   2.509   2.714
 8606TIP3    H125763   3.686   2.432   2.681
 8606TIP3    H225764   3.615   2.485   2.804
 8607TIP3   OH225765   7.368   7.195   5.719
 8607TIP3    H125766   7.401   7.271   5.671
 8607TIP3    H225767   7.374   7.220   5.811
 8608TIP3   OH225768   3.517   2.823   5.434
 8608TIP3    H125769   3.513   2.731   5.461
 8608TIP3    H225770   3.470   2.826   5.351
 8609TIP3   OH225771   2.555   1.387   1.328
 8609TIP3    H125772   2.499   1.456   1.292
 8609TIP3    H225773   2.518   1.306   1.293
 8610TIP3   OH225774   1.726   4.203   0.706
 8610TIP3    H125775   1.710   4.203   0.801
 8610TIP3    H225776   1.783   4.127   0.691
 8611TIP3   OH225777   5.332   0.601   2.882
 8611TIP3    H125778   5.412   0.633   2.840
 8611TIP3    H225779   5.286   0.681   2.910
 8612TIP3   OH225780   0.215   3.682   5.924
 8612TIP3    H125781   0.166   3.764   5.913
 8612TIP3    H225782   0.299   3.709   5.959
 8613TIP3   OH225783   5.961   0.504   2.596
 8613TIP3    H125784   6.036   0.535   2.545
 8613TIP3    H225785   5.898   0.577   2.594
 8614TIP3   OH225786   4.047   7.201   2.764
 8614TIP3    H125787   4.035   7.286   2.721
 8614TIP3    H225788   3.996   7.208   2.845
 8615TIP3   OH225789   1.454   0.996   4.633
 8615TIP3    H125790   1.462   0.932   4.704
 8615TIP3    H225791   1.360   1.005   4.620
 8616TIP3   OH225792   3.405   1.375   1.636
 8616TIP3    H125793   3.330   1.325   1.603
 8616TIP3    H225794   3.412   1.349   1.728
 8617TIP3   OH225795   4.182   1.950   5.275
 8617TIP3    H125796   4.272   1.940   5.247
 8617TIP3    H225797   4.135   1.878   5.232
 8618TIP3   OH225798   1.104   7.730   0.765
 8618TIP3    H125799   1.067   7.783   0.696
 8618TIP3    H225800   1.029   7.683   0.802
 8619TIP3   OH225801   0.735   0.600   2.813
 8619TIP3    H125802   0.715   0.668   2.877
 8619TIP3    H225803   0.831   0.598   2.810
 8620TIP3   OH225804   1.313   7.351   1.309
 8620TIP3    H125805   1.260   7.286   1.355
 8620TIP3    H225806   1.259   7.430   1.308
 8621TIP3   OH225807   3.205   2.643   5.365
 8621TIP3    H125808   3.213   2.692   5.283
 8621TIP3    H225809   3.291   2.653   5.407
 8622TIP3   OH225810   3.857   0.153   3.702
 8622TIP3    H125811   3.821   0.096   3.634
 8622TIP3    H225812   3.927   0.101   3.742
 8623TIP3   OH225813   2.619   6.647   4.861
 8623TIP3    H125814   2.626   6.679   4.951
 8623TIP3    H225815   2.649   6.557   4.864
 8624TIP3   OH225816   6.275   5.121   0.732
 8624TIP3    H125817   6.254   5.132   0.639
 8624TIP3    H225818   6.210   5.173   0.778
 8625TIP3   OH225819   1.826   1.825   5.698
 8625TIP3    H125820   1.817   1.834   5.603
 8625TIP3    H225821   1.907   1.871   5.719
 8626TIP3   OH225822   4.573   2.885   2.958
 8626TIP3    H125823   4.501   2.825   2.941
 8626TIP3    H225824   4.637   2.866   2.889
 8627TIP3   OH225825   4.321   1.909   3.516
 8627TIP3    H125826   4.298   1.991   3.558
 8627TIP3    H225827   4.376   1.934   3.441
 8628TIP3   OH225828   0.735   3.065   3.504
 8628TIP3    H125829   0.807   3.128   3.505
 8628TIP3    H225830   0.701   3.064   3.594
 8629TIP3   OH225831   2.587   2.330   4.942
 8629TIP3    H125832   2.570   2.265   5.010
 8629TIP3    H225833   2.682   2.340   4.940
 8630TIP3   OH225834   6.113   6.226   3.798
 8630TIP3    H125835   6.104   6.178   3.880
 8630TIP3    H225836   6.092   6.317   3.821
 8631TIP3   OH225837   8.022   2.491   6.776
 8631TIP3    H125838   8.066   2.407   6.790
 8631TIP3    H225839   8.089   2.547   6.739
 8632TIP3   OH225840   1.626   0.366   2.058
 8632TIP3    H125841   1.596   0.340   1.971
 8632TIP3    H225842   1.615   0.287   2.112
 8633TIP3   OH225843   2.434   5.431   3.814
 8633TIP3    H125844   2.497   5.366   3.845
 8633TIP3    H225845   2.421   5.410   3.721
 8634TIP3   OH225846   1.650   5.377   6.176
 8634TIP3    H125847   1.653   5.381   6.272
 8634TIP3    H225848   1.573   5.323   6.158
 8635TIP3   OH225849   5.497   6.397   3.548
 8635TIP3    H125850   5.436   6.360   3.611
 8635TIP3    H225851   5.578   6.347   3.561
 8636TIP3   OH225852   6.904   4.179   2.587
 8636TIP3    H125853   6.889   4.245   2.519
 8636TIP3    H225854   6.990   4.142   2.566
 8637TIP3   OH225855   5.003   1.720   5.359
 8637TIP3    H125856   4.931   1.775   5.330
 8637TIP3    H225857   5.027   1.756   5.445
 8638TIP3   OH225858   3.359   3.828   2.731
 8638TIP3    H125859   3.423   3.838   2.660
 8638TIP3    H225860   3.400   3.874   2.806
 8639TIP3   OH225861   3.058   2.774   3.669
 8639TIP3    H125862   3.043   2.761   3.763
 8639TIP3    H225863   3.152   2.793   3.663
 8640TIP3   OH225864   3.202   6.056   6.268
 8640TIP3    H125865   3.151   6.124   6.224
 8640TIP3    H225866   3.176   6.062   6.360
 8641TIP3   OH225867   1.367   5.881   2.522
 8641TIP3    H125868   1.445   5.906   2.471
 8641TIP3    H225869   1.374   5.786   2.531
 8642TIP3   OH225870   0.480   2.375   3.269
 8642TIP3    H125871   0.511   2.375   3.179
 8642TIP3    H225872   0.559   2.357   3.321
 8643TIP3   OH225873   5.369   7.660   2.319
 8643TIP3    H125874   5.394   7.671   2.228
 8643TIP3    H225875   5.372   7.748   2.356
 8644TIP3   OH225876   4.203   4.956   5.173
 8644TIP3    H125877   4.261   4.963   5.097
 8644TIP3    H225878   4.262   4.942   5.246
 8645TIP3   OH225879   2.850   4.078   2.344
 8645TIP3    H125880   2.758   4.102   2.338
 8645TIP3    H225881   2.880   4.073   2.253
 8646TIP3   OH225882   8.183   0.785   1.189
 8646TIP3    H125883   8.241   0.859   1.206
 8646TIP3    H225884   8.223   0.712   1.238
 8647TIP3   OH225885   2.859   7.279   3.604
 8647TIP3    H125886   2.935   7.231   3.571
 8647TIP3    H225887   2.897   7.351   3.655
 8648TIP3   OH225888   4.696   6.075   5.981
 8648TIP3    H125889   4.729   6.150   6.031
 8648TIP3    H225890   4.663   6.113   5.900
 8649TIP3   OH225891   7.619   2.862   5.815
 8649TIP3    H125892   7.591   2.892   5.902
 8649TIP3    H225893   7.616   2.940   5.760
 8650TIP3   OH225894   1.914   2.523   2.903
 8650TIP3    H125895   1.912   2.430   2.925
 8650TIP3    H225896   1.978   2.560   2.964
 8651TIP3   OH225897   8.288   3.042   1.844
 8651TIP3    H125898   8.322   3.131   1.836
 8651TIP3    H225899   8.211   3.051   1.901
 8652TIP3   OH225900   1.615   7.068   4.871
 8652TIP3    H125901   1.655   7.033   4.951
 8652TIP3    H225902   1.526   7.091   4.897
 8653TIP3   OH225903   0.936   4.081   4.803
 8653TIP3    H125904   1.025   4.114   4.811
 8653TIP3    H225905   0.933   4.006   4.862
 8654TIP3   OH225906   5.366   3.275   5.120
 8654TIP3    H125907   5.379   3.189   5.159
 8654TIP3    H225908   5.446   3.324   5.143
 8655TIP3   OH225909   8.083   4.481   4.906
 8655TIP3    H125910   8.137   4.560   4.918
 8655TIP3    H225911   8.058   4.455   4.994
 8656TIP3   OH225912   7.485   2.833   3.998
 8656TIP3    H125913   7.394   2.805   3.992
 8656TIP3    H225914   7.500   2.886   3.920
 8657TIP3   OH225915   7.444   3.186   4.624
 8657TIP3    H125916   7.363   3.165   4.577
 8657TIP3    H225917   7.508   3.202   4.554
 8658TIP3   OH225918   8.107   4.765   3.004
 8658TIP3    H125919   8.125   4.824   3.076
 8658TIP3    H225920   8.135   4.812   2.926
 8659TIP3   OH225921   2.585   2.057   3.232
 8659TIP3    H125922   2.586   2.090   3.142
 8659TIP3    H225923   2.634   2.123   3.282
 8660TIP3   OH225924   5.880   3.417   2.798
 8660TIP3    H125925   5.867   3.392   2.707
 8660TIP3    H225926   5.849   3.507   2.804
 8661TIP3   OH225927   7.643   3.909   3.893
 8661TIP3    H125928   7.648   3.982   3.954
 8661TIP3    H225929   7.550   3.888   3.888
 8662TIP3   OH225930   3.023   4.499   2.974
 8662TIP3    H125931   3.028   4.590   2.945
 8662TIP3    H225932   2.936   4.470   2.947
 8663TIP3   OH225933   3.776   5.552   5.283
 8663TIP3    H125934   3.863   5.591   5.289
 8663TIP3    H225935   3.769   5.524   5.192
 8664TIP3   OH225936   5.437   6.385   6.246
 8664TIP3    H125937   5.379   6.311   6.227
 8664TIP3    H225938   5.525   6.349   6.237
 8665TIP3   OH225939   0.046   1.175   3.624
 8665TIP3    H125940   0.061   1.087   3.658
 8665TIP3    H225941   0.001   1.162   3.541
 8666TIP3   OH225942   4.662   5.400   1.330
 8666TIP3    H125943   4.617   5.345   1.266
 8666TIP3    H225944   4.724   5.451   1.278
 8667TIP3   OH225945   2.357   6.618   3.390
 8667TIP3    H125946   2.428   6.571   3.433
 8667TIP3    H225947   2.400   6.685   3.337
 8668TIP3   OH225948   5.198   4.246   5.727
 8668TIP3    H125949   5.147   4.166   5.715
 8668TIP3    H225950   5.132   4.313   5.748
 8669TIP3   OH225951   0.059   2.383   5.720
 8669TIP3    H125952  -0.008   2.345   5.662
 8669TIP3    H225953   0.009   2.426   5.789
 8670TIP3   OH225954   4.345   3.410   3.983
 8670TIP3    H125955   4.439   3.427   3.973
 8670TIP3    H225956   4.341   3.343   4.052
 8671TIP3   OH225957   2.462   5.366   2.298
 8671TIP3    H125958   2.369   5.382   2.282
 8671TIP3    H225959   2.468   5.271   2.308
 8672TIP3   OH225960   7.961   2.121   6.137
 8672TIP3    H125961   8.052   2.134   6.112
 8672TIP3    H225962   7.955   2.028   6.157
 8673TIP3   OH225963   5.520   3.298   5.912
 8673TIP3    H125964   5.562   3.322   5.829
 8673TIP3    H225965   5.586   3.249   5.959
 8674TIP3   OH225966   2.294   5.652   4.481
 8674TIP3    H125967   2.263   5.725   4.535
 8674TIP3    H225968   2.314   5.691   4.396
 8675TIP3   OH225969   1.761   6.112   0.195
 8675TIP3    H125970   1.671   6.081   0.202
 8675TIP3    H225971   1.765   6.157   0.111
 8676TIP3   OH225972   8.080   1.567   6.606
 8676TIP3    H125973   8.085   1.499   6.539
 8676TIP3    H225974   8.031   1.527   6.678
 8677TIP3   OH225975   1.916   7.499   4.703
 8677TIP3    H125976   1.887   7.590   4.710
 8677TIP3    H225977   1.886   7.458   4.784
 8678TIP3   OH225978   7.935   4.633   0.345
 8678TIP3    H125979   7.992   4.583   0.287
 8678TIP3    H225980   7.851   4.636   0.299
 8679TIP3   OH225981   2.800   2.921   2.960
 8679TIP3    H125982   2.792   2.982   3.034
 8679TIP3    H225983   2.802   2.834   3.001
 8680TIP3   OH225984   6.115   2.029   6.019
 8680TIP3    H125985   6.076   1.944   6.040
 8680TIP3    H225986   6.186   2.039   6.083
 8681TIP3   OH225987   7.383   6.736   2.990
 8681TIP3    H125988   7.450   6.667   2.999
 8681TIP3    H225989   7.406   6.801   3.057
 8682TIP3   OH225990   2.090   3.017   4.852
 8682TIP3    H125991   2.141   3.045   4.776
 8682TIP3    H225992   1.999   3.025   4.824
 8683TIP3   OH225993   2.109   3.093   1.575
 8683TIP3    H125994   2.142   3.166   1.628
 8683TIP3    H225995   2.062   3.135   1.503
 8684TIP3   OH225996   7.229   6.850   1.024
 8684TIP3    H125997   7.280   6.785   1.073
 8684TIP3    H225998   7.216   6.809   0.938
 8685TIP3   OH225999   0.215   5.633   6.475
 8685TIP3    H126000   0.141   5.587   6.435
 8685TIP3    H226001   0.278   5.564   6.495
 8686TIP3   OH226002   4.833   0.423   0.892
 8686TIP3    H126003   4.843   0.518   0.881
 8686TIP3    H226004   4.834   0.388   0.803
 8687TIP3   OH226005   4.777   5.968   3.263
 8687TIP3    H126006   4.821   6.005   3.339
 8687TIP3    H226007   4.728   6.042   3.225
 8688TIP3   OH226008   1.737   3.980   1.555
 8688TIP3    H126009   1.793   4.041   1.602
 8688TIP3    H226010   1.648   4.014   1.567
 8689TIP3   OH226011   6.804   6.202   6.754
 8689TIP3    H126012   6.731   6.231   6.699
 8689TIP3    H226013   6.853   6.142   6.698
 8690TIP3   OH226014   0.161   0.734   2.912
 8690TIP3    H126015   0.248   0.702   2.936
 8690TIP3    H226016   0.177   0.788   2.835
 8691TIP3   OH226017   5.293   6.475   5.136
 8691TIP3    H126018   5.271   6.382   5.138
 8691TIP3    H226019   5.345   6.490   5.215
 8692TIP3   OH226020   3.566   0.416   6.497
 8692TIP3    H126021   3.651   0.371   6.494
 8692TIP3    H226022   3.587   0.508   6.511
 8693TIP3   OH226023   6.824   5.777   6.598
 8693TIP3    H126024   6.842   5.683   6.592
 8693TIP3    H226025   6.737   5.783   6.637
 8694TIP3   OH226026   4.233   7.034   4.232
 8694TIP3    H126027   4.260   7.009   4.320
 8694TIP3    H226028   4.309   7.078   4.195
 8695TIP3   OH226029   2.102   3.591   0.812
 8695TIP3    H126030   2.101   3.682   0.783
 8695TIP3    H226031   2.126   3.541   0.734
 8696TIP3   OH226032   3.113   3.140   0.634
 8696TIP3    H126033   3.133   3.181   0.550
 8696TIP3    H226034   3.020   3.156   0.647
 8697TIP3   OH226035   0.827   3.999   5.714
 8697TIP3    H126036   0.820   3.937   5.641
 8697TIP3    H226037   0.907   3.973   5.760
 8698TIP3   OH226038   6.492   7.754   5.302
 8698TIP3    H126039   6.506   7.681   5.242
 8698TIP3    H226040   6.554   7.739   5.373
 8699TIP3   OH226041   4.303   1.918   0.161
 8699TIP3    H126042   4.384   1.943   0.116
 8699TIP3    H226043   4.319   1.941   0.253
 8700TIP3   OH226044   7.008   5.759   5.427
 8700TIP3    H126045   7.013   5.699   5.501
 8700TIP3    H226046   7.094   5.753   5.386
 8701TIP3   OH226047   2.789   3.291   6.439
 8701TIP3    H126048   2.859   3.242   6.395
 8701TIP3    H226049   2.748   3.227   6.497
 8702TIP3   OH226050   0.931   6.918   2.746
 8702TIP3    H126051   1.025   6.900   2.738
 8702TIP3    H226052   0.911   6.897   2.837
 8703TIP3   OH226053   7.982   3.800   4.805
 8703TIP3    H126054   8.012   3.709   4.800
 8703TIP3    H226055   7.919   3.800   4.877
 8704TIP3   OH226056   2.420   4.344   6.069
 8704TIP3    H126057   2.465   4.390   6.139
 8704TIP3    H226058   2.432   4.399   5.992
 8705TIP3   OH226059   6.665   1.342   1.039
 8705TIP3    H126060   6.610   1.305   1.109
 8705TIP3    H226061   6.645   1.435   1.040
 8706TIP3   OH226062   3.345   2.266   6.463
 8706TIP3    H126063   3.325   2.197   6.400
 8706TIP3    H226064   3.300   2.238   6.543
 8707TIP3   OH226065   2.170   5.277   2.195
 8707TIP3    H126066   2.188   5.369   2.215
 8707TIP3    H226067   2.115   5.280   2.117
 8708TIP3   OH226068   5.053   4.328   1.276
 8708TIP3    H126069   4.968   4.350   1.314
 8708TIP3    H226070   5.054   4.373   1.191
 8709TIP3   OH226071   1.147   0.916   2.625
 8709TIP3    H126072   1.155   0.989   2.687
 8709TIP3    H226073   1.165   0.956   2.540
 8710TIP3   OH226074   4.547   3.139   0.369
 8710TIP3    H126075   4.626   3.150   0.315
 8710TIP3    H226076   4.567   3.065   0.426
 8711TIP3   OH226077   7.151   3.743   4.066
 8711TIP3    H126078   7.117   3.664   4.023
 8711TIP3    H226079   7.182   3.798   3.994
 8712TIP3   OH226080   6.169   1.528   3.850
 8712TIP3    H126081   6.244   1.577   3.818
 8712TIP3    H226082   6.195   1.498   3.937
 8713TIP3   OH226083   3.465   7.177   3.480
 8713TIP3    H126084   3.474   7.146   3.570
 8713TIP3    H226085   3.484   7.100   3.427
 8714TIP3   OH226086   5.678   0.712   2.355
 8714TIP3    H126087   5.715   0.756   2.431
 8714TIP3    H226088   5.603   0.664   2.389
 8715TIP3   OH226089   3.494   5.494   4.807
 8715TIP3    H126090   3.487   5.556   4.879
 8715TIP3    H226091   3.435   5.528   4.740
 8716TIP3   OH226092   4.110   3.516   4.047
 8716TIP3    H126093   4.037   3.516   3.984
 8716TIP3    H226094   4.182   3.474   4.000
 8717TIP3   OH226095   5.393   4.901   0.638
 8717TIP3    H126096   5.392   4.973   0.701
 8717TIP3    H226097   5.304   4.865   0.640
 8718TIP3   OH226098   3.737   3.877   6.292
 8718TIP3    H126099   3.699   3.961   6.266
 8718TIP3    H226100   3.792   3.898   6.368
 8719TIP3   OH226101   3.404   5.700   3.521
 8719TIP3    H126102   3.472   5.753   3.562
 8719TIP3    H226103   3.450   5.622   3.490
 8720TIP3   OH226104   1.735   2.243   6.420
 8720TIP3    H126105   1.797   2.245   6.492
 8720TIP3    H226106   1.790   2.242   6.341
 8721TIP3   OH226107   2.325   2.332   4.326
 8721TIP3    H126108   2.323   2.385   4.406
 8721TIP3    H226109   2.401   2.363   4.278
 8722TIP3   OH226110   2.989   5.551   1.893
 8722TIP3    H126111   2.994   5.532   1.987
 8722TIP3    H226112   2.948   5.637   1.888
 8723TIP3   OH226113   0.233   2.760   6.781
 8723TIP3    H126114   0.276   2.822   6.722
 8723TIP3    H226115   0.204   2.688   6.725
 8724TIP3   OH226116   7.446   0.596   3.686
 8724TIP3    H126117   7.388   0.569   3.757
 8724TIP3    H226118   7.439   0.526   3.621
 8725TIP3   OH226119   2.273   1.020   5.602
 8725TIP3    H126120   2.317   0.966   5.668
 8725TIP3    H226121   2.251   0.958   5.533
 8726TIP3   OH226122   2.722   7.559   6.051
 8726TIP3    H126123   2.743   7.572   5.959
 8726TIP3    H226124   2.674   7.476   6.053
 8727TIP3   OH226125   6.204   2.918   2.016
 8727TIP3    H126126   6.242   2.887   2.098
 8727TIP3    H226127   6.153   2.995   2.041
 8728TIP3   OH226128   6.917   6.127   5.215
 8728TIP3    H126129   7.009   6.123   5.238
 8728TIP3    H226130   6.887   6.212   5.246
 8729TIP3   OH226131   1.558   1.781   2.241
 8729TIP3    H126132   1.609   1.710   2.203
 8729TIP3    H226133   1.524   1.745   2.323
 8730TIP3   OH226134   2.112   6.378   6.050
 8730TIP3    H126135   2.038   6.366   6.110
 8730TIP3    H226136   2.076   6.423   5.975
 8731TIP3   OH226137   8.069   4.197   1.531
 8731TIP3    H126138   8.156   4.233   1.550
 8731TIP3    H226139   8.030   4.258   1.469
 8732TIP3   OH226140   8.216   6.351   2.639
 8732TIP3    H126141   8.266   6.284   2.687
 8732TIP3    H226142   8.129   6.313   2.628
 8733TIP3   OH226143   7.094   3.126   5.867
 8733TIP3    H126144   7.178   3.083   5.882
 8733TIP3    H226145   7.111   3.219   5.881
 8734TIP3   OH226146   5.603   7.729   6.156
 8734TIP3    H126147   5.668   7.791   6.191
 8734TIP3    H226148   5.651   7.647   6.148
 8735TIP3   OH226149   6.640   6.009   1.244
 8735TIP3    H126150   6.731   6.038   1.241
 8735TIP3    H226151   6.589   6.089   1.252
 8736TIP3   OH226152   7.497   4.190   2.622
 8736TIP3    H126153   7.564   4.225   2.564
 8736TIP3    H226154   7.434   4.261   2.632
 8737TIP3   OH226155   0.833   0.537   5.752
 8737TIP3    H126156   0.805   0.454   5.791
 8737TIP3    H226157   0.924   0.522   5.725
 8738TIP3   OH226158   2.407   0.049   6.582
 8738TIP3    H126159   2.492   0.060   6.541
 8738TIP3    H226160   2.415  -0.033   6.632
 8739TIP3   OH226161   1.439   2.825   6.321
 8739TIP3    H126162   1.363   2.858   6.369
 8739TIP3    H226163   1.421   2.732   6.308
 8740TIP3   OH226164   7.713   0.875   0.790
 8740TIP3    H126165   7.728   0.969   0.800
 8740TIP3    H226166   7.762   0.834   0.861
 8741TIP3   OH226167   7.015   5.688   1.352
 8741TIP3    H126168   6.931   5.652   1.324
 8741TIP3    H226169   7.018   5.776   1.313
 8742TIP3   OH226170   5.532   1.704   4.982
 8742TIP3    H126171   5.502   1.746   5.062
 8742TIP3    H226172   5.457   1.706   4.924
 8743TIP3   OH226173   1.110   0.891   3.309
 8743TIP3    H126174   1.128   0.975   3.268
 8743TIP3    H226175   1.066   0.840   3.241
 8744TIP3   OH226176   5.794   6.612   4.263
 8744TIP3    H126177   5.770   6.684   4.204
 8744TIP3    H226178   5.778   6.646   4.351
 8745TIP3   OH226179   2.718   2.889   5.648
 8745TIP3    H126180   2.760   2.803   5.652
 8745TIP3    H226181   2.750   2.934   5.726
 8746TIP3   OH226182   1.153   6.555   5.364
 8746TIP3    H126183   1.200   6.631   5.399
 8746TIP3    H226184   1.201   6.480   5.398
 8747TIP3   OH226185   7.110   3.798   2.064
 8747TIP3    H126186   7.103   3.738   1.990
 8747TIP3    H226187   7.201   3.789   2.093
 8748TIP3   OH226188   5.289   4.481   4.726
 8748TIP3    H126189   5.372   4.440   4.752
 8748TIP3    H226190   5.225   4.411   4.734
 8749TIP3   OH226191   6.992   2.003   3.542
 8749TIP3    H126192   6.931   2.048   3.485
 8749TIP3    H226193   7.051   1.957   3.483
 8750TIP3   OH226194   3.546   4.251   5.158
 8750TIP3    H126195   3.564   4.268   5.250
 8750TIP3    H226196   3.451   4.254   5.151
 8751TIP3   OH226197   5.769   5.685   0.245
 8751TIP3    H126198   5.714   5.737   0.304
 8751TIP3    H226199   5.790   5.606   0.296
 8752TIP3   OH226200   7.985   2.525   1.792
 8752TIP3    H126201   8.076   2.529   1.824
 8752TIP3    H226202   7.981   2.590   1.722
 8753TIP3   OH226203   3.392   1.044   1.056
 8753TIP3    H126204   3.353   1.098   0.988
 8753TIP3    H226205   3.337   0.966   1.059
 8754TIP3   OH226206   5.514   6.942   5.989
 8754TIP3    H126207   5.520   6.847   5.978
 8754TIP3    H226208   5.605   6.972   5.992
 8755TIP3   OH226209   0.360   2.869   4.849
 8755TIP3    H126210   0.304   2.833   4.917
 8755TIP3    H226211   0.446   2.831   4.866
 8756TIP3   OH226212   6.700   0.266   0.150
 8756TIP3    H126213   6.746   0.225   0.077
 8756TIP3    H226214   6.663   0.193   0.200
 8757TIP3   OH226215   2.839   2.668   3.102
 8757TIP3    H126216   2.870   2.609   3.033
 8757TIP3    H226217   2.900   2.654   3.174
 8758TIP3   OH226218   5.154   1.698   3.862
 8758TIP3    H126219   5.127   1.622   3.914
 8758TIP3    H226220   5.071   1.742   3.841
 8759TIP3   OH226221   2.337   4.797   5.345
 8759TIP3    H126222   2.278   4.770   5.275
 8759TIP3    H226223   2.417   4.823   5.300
 8760TIP3   OH226224   0.142   1.971   5.236
 8760TIP3    H126225   0.160   2.010   5.321
 8760TIP3    H226226   0.193   1.889   5.235
 8761TIP3   OH226227   5.377   2.140   4.311
 8761TIP3    H126228   5.341   2.052   4.301
 8761TIP3    H226229   5.387   2.172   4.221
 8762TIP3   OH226230   3.688   1.325   5.404
 8762TIP3    H126231   3.661   1.415   5.383
 8762TIP3    H226232   3.742   1.298   5.330
 8763TIP3   OH226233   0.963   1.373   0.237
 8763TIP3    H126234   0.990   1.299   0.291
 8763TIP3    H226235   0.908   1.335   0.169
 8764TIP3   OH226236   7.465   0.084   0.184
 8764TIP3    H126237   7.460   0.086   0.088
 8764TIP3    H226238   7.558   0.080   0.203
 8765TIP3   OH226239   6.799   0.031   4.863
 8765TIP3    H126240   6.881   0.060   4.823
 8765TIP3    H226241   6.757   0.112   4.892
 8766TIP3   OH226242   1.792   0.096   4.343
 8766TIP3    H126243   1.886   0.078   4.349
 8766TIP3    H226244   1.778   0.114   4.250
 8767TIP3   OH226245   2.544   6.634   4.086
 8767TIP3    H126246   2.572   6.570   4.020
 8767TIP3    H226247   2.615   6.637   4.149
 8768TIP3   OH226248   1.255   7.664   4.017
 8768TIP3    H126249   1.184   7.725   3.999
 8768TIP3    H226250   1.312   7.712   4.078
 8769TIP3   OH226251   4.580   4.151   2.676
 8769TIP3    H126252   4.506   4.205   2.649
 8769TIP3    H226253   4.647   4.167   2.610
 8770TIP3   OH226254   5.508   2.129   3.949
 8770TIP3    H126255   5.557   2.047   3.953
 8770TIP3    H226256   5.562   2.193   3.995
 8771TIP3   OH226257   7.097   6.964   3.799
 8771TIP3    H126258   7.189   6.989   3.805
 8771TIP3    H226259   7.050   7.034   3.846
 8772TIP3   OH226260   6.219   7.746   1.533
 8772TIP3    H126261   6.221   7.797   1.614
 8772TIP3    H226262   6.260   7.662   1.557
 8773TIP3   OH226263   2.333   1.543   1.223
 8773TIP3    H126264   2.386   1.560   1.145
 8773TIP3    H226265   2.270   1.476   1.196
 8774TIP3   OH226266   2.815   7.043   4.403
 8774TIP3    H126267   2.761   7.119   4.427
 8774TIP3    H226268   2.881   7.079   4.344
 8775TIP3   OH226269   0.494   3.890   6.352
 8775TIP3    H126270   0.488   3.883   6.256
 8775TIP3    H226271   0.408   3.863   6.383
 8776TIP3   OH226272   4.373   1.987   3.921
 8776TIP3    H126273   4.338   2.042   3.851
 8776TIP3    H226274   4.315   2.003   3.995
 8777TIP3   OH226275   7.366   1.665   4.608
 8777TIP3    H126276   7.378   1.597   4.541
 8777TIP3    H226277   7.326   1.619   4.682
 8778TIP3   OH226278   1.101   2.530   2.428
 8778TIP3    H126279   1.085   2.572   2.513
 8778TIP3    H226280   1.130   2.442   2.449
 8779TIP3   OH226281   1.518   4.188   6.009
 8779TIP3    H126282   1.583   4.257   6.024
 8779TIP3    H226283   1.481   4.171   6.096
 8780TIP3   OH226284   5.958   1.465   3.665
 8780TIP3    H126285   6.002   1.521   3.729
 8780TIP3    H226286   5.922   1.526   3.601
 8781TIP3   OH226287   5.983   2.268   4.258
 8781TIP3    H126288   6.011   2.358   4.241
 8781TIP3    H226289   5.943   2.240   4.176
 8782TIP3   OH226290   7.875   0.275   0.408
 8782TIP3    H126291   7.840   0.230   0.486
 8782TIP3    H226292   7.823   0.241   0.336
 8783TIP3   OH226293   3.175   1.767   5.582
 8783TIP3    H126294   3.246   1.706   5.604
 8783TIP3    H226295   3.215   1.830   5.523
 8784TIP3   OH226296   0.431   0.503   6.035
 8784TIP3    H126297   0.354   0.558   6.047
 8784TIP3    H226298   0.417   0.428   6.092
 8785TIP3   OH226299   2.388   6.881   3.987
 8785TIP3    H126300   2.466   6.826   3.980
 8785TIP3    H226301   2.335   6.856   3.911
 8786TIP3   OH226302   4.863   7.622   3.516
 8786TIP3    H126303   4.915   7.568   3.575
 8786TIP3    H226304   4.803   7.669   3.573
 8787TIP3   OH226305   1.038   7.296   0.607
 8787TIP3    H126306   1.055   7.373   0.553
 8787TIP3    H226307   0.951   7.267   0.580
 8788TIP3   OH226308   3.275   5.146   1.751
 8788TIP3    H126309   3.294   5.207   1.681
 8788TIP3    H226310   3.231   5.072   1.708
 8789TIP3   OH226311   0.521   6.336   6.500
 8789TIP3    H126312   0.534   6.281   6.577
 8789TIP3    H226313   0.505   6.274   6.429
 8790TIP3   OH226314   0.047   2.298   3.413
 8790TIP3    H126315   0.083   2.295   3.502
 8790TIP3    H226316   0.022   2.207   3.394
 8791TIP3   OH226317   0.364   5.908   6.453
 8791TIP3    H126318   0.300   5.839   6.441
 8791TIP3    H226319   0.443   5.863   6.482
 8792TIP3   OH226320   2.070   2.472   1.331
 8792TIP3    H126321   1.993   2.420   1.308
 8792TIP3    H226322   2.045   2.563   1.313
 8793TIP3   OH226323   7.077   1.070   5.541
 8793TIP3    H126324   7.003   1.031   5.495
 8793TIP3    H226325   7.146   1.074   5.475
 8794TIP3   OH226326   7.789   1.482   6.320
 8794TIP3    H126327   7.710   1.473   6.374
 8794TIP3    H226328   7.779   1.415   6.253
 8795TIP3   OH226329   4.615   3.647   4.525
 8795TIP3    H126330   4.591   3.674   4.436
 8795TIP3    H226331   4.538   3.667   4.578
 8796TIP3   OH226332   7.872   2.023   3.643
 8796TIP3    H126333   7.823   1.960   3.696
 8796TIP3    H226334   7.874   1.985   3.556
 8797TIP3   OH226335   5.360   0.060   4.475
 8797TIP3    H126336   5.381   0.151   4.498
 8797TIP3    H226337   5.426   0.008   4.521
 8798TIP3   OH226338   5.921   3.031   3.262
 8798TIP3    H126339   5.994   3.005   3.318
 8798TIP3    H226340   5.912   2.959   3.199
 8799TIP3   OH226341   1.607   7.399   3.393
 8799TIP3    H126342   1.541   7.468   3.390
 8799TIP3    H226343   1.690   7.443   3.375
 8800TIP3   OH226344   6.727   1.774   5.390
 8800TIP3    H126345   6.758   1.764   5.480
 8800TIP3    H226346   6.652   1.834   5.398
 8801TIP3   OH226347   5.099   6.801   2.969
 8801TIP3    H126348   5.027   6.862   2.986
 8801TIP3    H226349   5.061   6.714   2.985
 8802TIP3   OH226350   6.971   7.438   3.497
 8802TIP3    H126351   7.038   7.376   3.525
 8802TIP3    H226352   6.974   7.434   3.401
 8803TIP3   OH226353   0.050   1.751   4.169
 8803TIP3    H126354   0.109   1.810   4.216
 8803TIP3    H226355  -0.036   1.766   4.208
 8804TIP3   OH226356   2.762   7.851   3.143
 8804TIP3    H126357   2.717   7.768   3.158
 8804TIP3    H226358   2.767   7.859   3.048
 8805TIP3   OH226359   1.564   2.562   4.235
 8805TIP3    H126360   1.578   2.504   4.161
 8805TIP3    H226361   1.515   2.509   4.298
 8806TIP3   OH226362   4.936   2.893   6.172
 8806TIP3    H126363   4.928   2.816   6.229
 8806TIP3    H226364   4.997   2.950   6.219
 8807TIP3   OH226365   1.041   2.158   5.843
 8807TIP3    H126366   1.029   2.081   5.788
 8807TIP3    H226367   0.964   2.212   5.825
 8808TIP3   OH226368   0.020   1.036   5.015
 8808TIP3    H126369   0.100   1.081   4.987
 8808TIP3    H226370   0.045   0.994   5.098
 8809TIP3   OH226371   1.443   3.357   5.660
 8809TIP3    H126372   1.522   3.304   5.669
 8809TIP3    H226373   1.432   3.368   5.565
 8810TIP3   OH226374   1.380   5.888   4.233
 8810TIP3    H126375   1.298   5.868   4.188
 8810TIP3    H226376   1.353   5.909   4.323
 8811TIP3   OH226377   5.018   1.446   4.620
 8811TIP3    H126378   4.932   1.474   4.586
 8811TIP3    H226379   5.007   1.352   4.636
 8812TIP3   OH226380   0.233   0.132   1.148
 8812TIP3    H126381   0.146   0.154   1.115
 8812TIP3    H226382   0.277   0.216   1.158
 8813TIP3   OH226383   2.350   5.368   5.895
 8813TIP3    H126384   2.297   5.291   5.873
 8813TIP3    H226385   2.339   5.379   5.989
 8814TIP3   OH226386   5.367   5.701   1.765
 8814TIP3    H126387   5.379   5.613   1.802
 8814TIP3    H226388   5.335   5.754   1.838
 8815TIP3   OH226389   7.200   7.486   3.760
 8815TIP3    H126390   7.231   7.465   3.672
 8815TIP3    H226391   7.118   7.437   3.770
 8816TIP3   OH226392   3.964   6.680   4.220
 8816TIP3    H126393   3.884   6.665   4.271
 8816TIP3    H226394   4.035   6.670   4.283
 8817TIP3   OH226395   5.926   0.172   4.348
 8817TIP3    H126396   5.869   0.233   4.396
 8817TIP3    H226397   5.959   0.113   4.416
 8818TIP3   OH226398   8.107   7.295   4.576
 8818TIP3    H126399   8.191   7.339   4.586
 8818TIP3    H226400   8.053   7.358   4.527
 8819TIP3   OH226401   3.222   5.814   0.896
 8819TIP3    H126402   3.217   5.726   0.934
 8819TIP3    H226403   3.200   5.801   0.804
 8820TIP3   OH226404   5.892   1.695   2.392
 8820TIP3    H126405   5.835   1.634   2.345
 8820TIP3    H226406   5.964   1.714   2.331
 8821TIP3   OH226407   4.037   1.596   5.212
 8821TIP3    H126408   4.131   1.601   5.225
 8821TIP3    H226409   4.001   1.666   5.267
 8822TIP3   OH226410   7.209   1.717   6.193
 8822TIP3    H126411   7.278   1.763   6.242
 8822TIP3    H226412   7.128   1.760   6.218
 8823TIP3   OH226413   6.756   4.170   3.250
 8823TIP3    H126414   6.831   4.141   3.197
 8823TIP3    H226415   6.771   4.264   3.263
 8824TIP3   OH226416   3.808   4.155   5.827
 8824TIP3    H126417   3.784   4.116   5.743
 8824TIP3    H226418   3.725   4.161   5.875
 8825TIP3   OH226419   6.368   5.257   3.195
 8825TIP3    H126420   6.430   5.326   3.171
 8825TIP3    H226421   6.413   5.207   3.263
 8826TIP3   OH226422   2.569   7.135   2.165
 8826TIP3    H126423   2.630   7.209   2.168
 8826TIP3    H226424   2.524   7.138   2.249
 8827TIP3   OH226425   0.567   3.004   0.841
 8827TIP3    H126426   0.596   3.021   0.931
 8827TIP3    H226427   0.647   3.009   0.789
 8828TIP3   OH226428   7.303   7.196   2.125
 8828TIP3    H126429   7.286   7.112   2.168
 8828TIP3    H226430   7.268   7.184   2.037
 8829TIP3   OH226431   2.745   6.622   2.860
 8829TIP3    H126432   2.834   6.603   2.887
 8829TIP3    H226433   2.710   6.537   2.830
 8830TIP3   OH226434   4.681   4.331   6.422
 8830TIP3    H126435   4.600   4.370   6.391
 8830TIP3    H226436   4.738   4.405   6.440
 8831TIP3   OH226437   6.146   3.597   4.032
 8831TIP3    H126438   6.131   3.658   4.105
 8831TIP3    H226439   6.137   3.511   4.072
 8832TIP3   OH226440   1.874   6.492   0.114
 8832TIP3    H126441   1.893   6.428   0.045
 8832TIP3    H226442   1.959   6.509   0.156
 8833TIP3   OH226443   2.728   5.328   2.419
 8833TIP3    H126444   2.655   5.300   2.364
 8833TIP3    H226445   2.747   5.253   2.475
 8834TIP3   OH226446   4.331   4.165   4.187
 8834TIP3    H126447   4.256   4.169   4.246
 8834TIP3    H226448   4.378   4.247   4.204
 8835TIP3   OH226449   6.439   1.834   5.198
 8835TIP3    H126450   6.409   1.869   5.114
 8835TIP3    H226451   6.458   1.911   5.251
 8836TIP3   OH226452   0.631   1.750   6.402
 8836TIP3    H126453   0.654   1.776   6.491
 8836TIP3    H226454   0.710   1.707   6.369
 8837TIP3   OH226455   2.602   1.286   6.537
 8837TIP3    H126456   2.509   1.295   6.517
 8837TIP3    H226457   2.607   1.294   6.632
 8838TIP3   OH226458   4.472   5.040   1.636
 8838TIP3    H126459   4.426   5.123   1.622
 8838TIP3    H226460   4.565   5.062   1.632
 8839TIP3   OH226461   6.633   0.167   2.174
 8839TIP3    H126462   6.641   0.261   2.156
 8839TIP3    H226463   6.619   0.163   2.269
 8840TIP3   OH226464   7.820   4.752   1.811
 8840TIP3    H126465   7.894   4.810   1.799
 8840TIP3    H226466   7.768   4.792   1.881
 8841TIP3   OH226467   4.426   7.688   2.889
 8841TIP3    H126468   4.366   7.616   2.910
 8841TIP3    H226469   4.513   7.647   2.886
 8842TIP3   OH226470   0.073   7.237   4.056
 8842TIP3    H126471   0.057   7.317   4.006
 8842TIP3    H226472  -0.007   7.227   4.109
 8843TIP3   OH226473   5.033   7.196   1.655
 8843TIP3    H126474   4.976   7.273   1.654
 8843TIP3    H226475   4.976   7.123   1.630
 8844TIP3   OH226476   6.867   7.682   3.564
 8844TIP3    H126477   6.921   7.605   3.548
 8844TIP3    H226478   6.809   7.657   3.635
 8845TIP3   OH226479   4.439   4.675   2.559
 8845TIP3    H126480   4.486   4.681   2.642
 8845TIP3    H226481   4.349   4.655   2.583
 8846TIP3   OH226482   2.710   1.099   6.075
 8846TIP3    H126483   2.722   1.146   5.993
 8846TIP3    H226484   2.725   1.166   6.143
 8847TIP3   OH226485   1.350   5.750   5.054
 8847TIP3    H126486   1.386   5.668   5.019
 8847TIP3    H226487   1.427   5.796   5.088
 8848TIP3   OH226488   2.939   3.034   4.951
 8848TIP3    H126489   2.861   3.037   5.007
 8848TIP3    H226490   2.988   3.112   4.976
 8849TIP3   OH226491   4.907   6.154   2.239
 8849TIP3    H126492   4.991   6.108   2.229
 8849TIP3    H226493   4.903   6.178   2.332
 8850TIP3   OH226494   1.794   1.664   0.684
 8850TIP3    H126495   1.831   1.685   0.769
 8850TIP3    H226496   1.746   1.743   0.658
 8851TIP3   OH226497   6.479   6.688   1.415
 8851TIP3    H126498   6.469   6.601   1.377
 8851TIP3    H226499   6.551   6.727   1.367
 8852TIP3   OH226500   3.431   0.574   4.209
 8852TIP3    H126501   3.489   0.613   4.274
 8852TIP3    H226502   3.481   0.501   4.173
 8853TIP3   OH226503   0.737   5.684   4.724
 8853TIP3    H126504   0.756   5.649   4.637
 8853TIP3    H226505   0.809   5.744   4.743
 8854TIP3   OH226506   2.351   7.273   5.291
 8854TIP3    H126507   2.308   7.338   5.346
 8854TIP3    H226508   2.387   7.209   5.352
 8855TIP3   OH226509   7.275   2.574   4.233
 8855TIP3    H126510   7.187   2.538   4.231
 8855TIP3    H226511   7.278   2.626   4.314
 8856TIP3   OH226512   4.447   6.951   4.458
 8856TIP3    H126513   4.447   6.889   4.385
 8856TIP3    H226514   4.538   6.954   4.486
 8857TIP3   OH226515   2.794   2.651   5.767
 8857TIP3    H126516   2.857   2.609   5.707
 8857TIP3    H226517   2.810   2.608   5.851
 8858TIP3   OH226518   2.348   2.234   2.823
 8858TIP3    H126519   2.315   2.154   2.783
 8858TIP3    H226520   2.392   2.280   2.751
 8859TIP3   OH226521   4.638   2.638   6.020
 8859TIP3    H126522   4.633   2.700   6.093
 8859TIP3    H226523   4.723   2.655   5.980
 8860TIP3   OH226524   1.379   3.042   5.252
 8860TIP3    H126525   1.298   3.075   5.213
 8860TIP3    H226526   1.444   3.050   5.183
 8861TIP3   OH226527   8.321   1.043   5.365
 8861TIP3    H126528   8.316   1.090   5.448
 8861TIP3    H226529   8.230   1.037   5.336
 8862TIP3   OH226530   6.586   2.840   4.566
 8862TIP3    H126531   6.639   2.920   4.574
 8862TIP3    H226532   6.632   2.788   4.500
 8863TIP3   OH226533   3.472   5.903   0.992
 8863TIP3    H126534   3.473   5.997   0.972
 8863TIP3    H226535   3.385   5.874   0.967
 8864TIP3   OH226536   6.863   1.226   0.887
 8864TIP3    H126537   6.799   1.268   0.945
 8864TIP3    H226538   6.810   1.174   0.826
 8865TIP3   OH226539   4.897   1.544   0.126
 8865TIP3    H126540   4.992   1.543   0.111
 8865TIP3    H226541   4.873   1.452   0.132
 8866TIP3   OH226542   0.554   2.518   6.064
 8866TIP3    H126543   0.625   2.578   6.045
 8866TIP3    H226544   0.556   2.455   5.991
 8867TIP3   OH226545   1.762   6.114   1.780
 8867TIP3    H126546   1.718   6.112   1.695
 8867TIP3    H226547   1.817   6.036   1.780
 8868TIP3   OH226548   2.861   7.742   6.227
 8868TIP3    H126549   2.811   7.675   6.182
 8868TIP3    H226550   2.946   7.702   6.243
 8869TIP3   OH226551   1.963   2.588   0.822
 8869TIP3    H126552   1.970   2.677   0.856
 8869TIP3    H226553   2.032   2.540   0.867
 8870TIP3   OH226554   2.217   6.814   0.142
 8870TIP3    H126555   2.247   6.901   0.116
 8870TIP3    H226556   2.293   6.758   0.128
 8871TIP3   OH226557   3.306   3.853   4.179
 8871TIP3    H126558   3.262   3.937   4.164
 8871TIP3    H226559   3.386   3.876   4.226
 8872TIP3   OH226560   7.783   2.040   3.178
 8872TIP3    H126561   7.741   2.090   3.107
 8872TIP3    H226562   7.754   2.083   3.258
 8873TIP3   OH226563   7.541   2.321   2.103
 8873TIP3    H126564   7.495   2.306   2.186
 8873TIP3    H226565   7.478   2.367   2.048
 8874TIP3   OH226566   0.046   3.563   1.815
 8874TIP3    H126567   0.003   3.600   1.737
 8874TIP3    H226568   0.026   3.626   1.885
 8875TIP3   OH226569   5.811   2.843   2.077
 8875TIP3    H126570   5.863   2.892   2.141
 8875TIP3    H226571   5.867   2.770   2.052
 8876TIP3   OH226572   2.566   4.277   5.689
 8876TIP3    H126573   2.491   4.220   5.678
 8876TIP3    H226574   2.642   4.218   5.684
 8877TIP3   OH226575   7.678   4.629   3.834
 8877TIP3    H126576   7.771   4.640   3.854
 8877TIP3    H226577   7.637   4.608   3.919
 8878TIP3   OH226578   5.050   0.929   4.763
 8878TIP3    H126579   5.126   0.932   4.822
 8878TIP3    H226580   4.987   0.873   4.808
 8879TIP3   OH226581   7.804   7.287   1.913
 8879TIP3    H126582   7.749   7.229   1.966
 8879TIP3    H226583   7.887   7.241   1.905
 8880TIP3   OH226584   6.454   1.990   6.681
 8880TIP3    H126585   6.369   1.952   6.661
 8880TIP3    H226586   6.448   2.015   6.773
 8881TIP3   OH226587   6.495   2.938   3.409
 8881TIP3    H126588   6.478   2.852   3.369
 8881TIP3    H226589   6.458   3.001   3.347
 8882TIP3   OH226590   0.786   2.751   6.572
 8882TIP3    H126591   0.858   2.747   6.510
 8882TIP3    H226592   0.825   2.729   6.656
 8883TIP3   OH226593   3.878   5.406   1.735
 8883TIP3    H126594   3.835   5.458   1.668
 8883TIP3    H226595   3.963   5.384   1.698
 8884TIP3   OH226596   1.318   0.440   5.439
 8884TIP3    H126597   1.363   0.517   5.402
 8884TIP3    H226598   1.282   0.471   5.522
 8885TIP3   OH226599   3.079   6.598   1.666
 8885TIP3    H126600   3.075   6.551   1.749
 8885TIP3    H226601   3.000   6.571   1.619
 8886TIP3   OH226602   5.825   1.145   6.049
 8886TIP3    H126603   5.733   1.150   6.074
 8886TIP3    H226604   5.825   1.161   5.955
 8887TIP3   OH226605   7.872   1.345   4.936
 8887TIP3    H126606   7.895   1.420   4.881
 8887TIP3    H226607   7.918   1.271   4.897
 8888TIP3   OH226608   6.062   1.959   0.602
 8888TIP3    H126609   5.984   1.905   0.606
 8888TIP3    H226610   6.090   1.955   0.510
 8889TIP3   OH226611   5.094   4.854   5.560
 8889TIP3    H126612   5.033   4.826   5.628
 8889TIP3    H226613   5.130   4.936   5.593
 8890TIP3   OH226614   1.255   6.853   3.420
 8890TIP3    H126615   1.264   6.933   3.369
 8890TIP3    H226616   1.341   6.839   3.459
 8891TIP3   OH226617   3.396   0.856   4.031
 8891TIP3    H126618   3.391   0.764   4.007
 8891TIP3    H226619   3.344   0.863   4.111
 8892TIP3   OH226620   3.832   1.897   2.026
 8892TIP3    H126621   3.841   1.803   2.039
 8892TIP3    H226622   3.778   1.906   1.948
 8893TIP3   OH226623   5.848   3.518   4.170
 8893TIP3    H126624   5.871   3.491   4.081
 8893TIP3    H226625   5.914   3.475   4.225
 8894TIP3   OH226626   2.297   3.264   0.221
 8894TIP3    H126627   2.386   3.269   0.257
 8894TIP3    H226628   2.299   3.190   0.161
 8895TIP3   OH226629   6.649   2.591   0.708
 8895TIP3    H126630   6.555   2.606   0.714
 8895TIP3    H226631   6.660   2.499   0.730
 8896TIP3   OH226632   1.936   6.803   1.092
 8896TIP3    H126633   1.842   6.797   1.111
 8896TIP3    H226634   1.946   6.887   1.048
 8897TIP3   OH226635   1.054   3.150   6.042
 8897TIP3    H126636   1.140   3.121   6.011
 8897TIP3    H226637   1.069   3.239   6.074
 8898TIP3   OH226638   3.358   0.658   0.760
 8898TIP3    H126639   3.300   0.584   0.775
 8898TIP3    H226640   3.371   0.697   0.846
 8899TIP3   OH226641   0.225   1.694   0.213
 8899TIP3    H126642   0.226   1.790   0.204
 8899TIP3    H226643   0.145   1.667   0.168
 8900TIP3   OH226644   5.828   0.654   4.207
 8900TIP3    H126645   5.800   0.719   4.144
 8900TIP3    H226646   5.787   0.680   4.289
 8901TIP3   OH226647   2.596   7.410   6.639
 8901TIP3    H126648   2.538   7.448   6.704
 8901TIP3    H226649   2.684   7.439   6.664
 8902TIP3   OH226650   2.191   5.419   4.112
 8902TIP3    H126651   2.164   5.360   4.182
 8902TIP3    H226652   2.200   5.504   4.155
 8903TIP3   OH226653   2.958   3.279   2.628
 8903TIP3    H126654   2.946   3.189   2.659
 8903TIP3    H226655   3.053   3.292   2.629
 8904TIP3   OH226656   1.140   4.384   0.767
 8904TIP3    H126657   1.157   4.319   0.699
 8904TIP3    H226658   1.065   4.434   0.734
 8905TIP3   OH226659   3.964   7.730   3.185
 8905TIP3    H126660   3.880   7.750   3.227
 8905TIP3    H226661   4.013   7.812   3.191
 8906TIP3   OH226662   4.337   6.572   5.680
 8906TIP3    H126663   4.369   6.495   5.726
 8906TIP3    H226664   4.382   6.646   5.721
 8907TIP3   OH226665   4.587   2.289   0.580
 8907TIP3    H126666   4.680   2.307   0.575
 8907TIP3    H226667   4.575   2.250   0.667
 8908TIP3   OH226668   4.119   5.768   0.795
 8908TIP3    H126669   4.137   5.779   0.888
 8908TIP3    H226670   4.109   5.857   0.762
 8909TIP3   OH226671   3.343   5.619   5.629
 8909TIP3    H126672   3.338   5.681   5.702
 8909TIP3    H226673   3.432   5.628   5.596
 8910TIP3   OH226674   7.694   2.151   3.423
 8910TIP3    H126675   7.761   2.139   3.490
 8910TIP3    H226676   7.612   2.131   3.467
 8911TIP3   OH226677   0.444   3.498   2.704
 8911TIP3    H126678   0.396   3.580   2.692
 8911TIP3    H226679   0.534   3.524   2.722
 8912TIP3   OH226680   8.343   5.411   6.453
 8912TIP3    H126681   8.273   5.422   6.388
 8912TIP3    H226682   8.297   5.392   6.535
 8913TIP3   OH226683   2.927   7.417   3.057
 8913TIP3    H126684   2.878   7.435   2.977
 8913TIP3    H226685   2.868   7.364   3.111
 8914TIP3   OH226686   1.732   6.892   0.289
 8914TIP3    H126687   1.709   6.806   0.324
 8914TIP3    H226688   1.826   6.901   0.307
 8915TIP3   OH226689   6.571   2.112   3.392
 8915TIP3    H126690   6.523   2.078   3.468
 8915TIP3    H226691   6.507   2.114   3.321
 8916TIP3   OH226692   1.195   2.933   2.304
 8916TIP3    H126693   1.251   2.856   2.312
 8916TIP3    H226694   1.107   2.901   2.325
 8917TIP3   OH226695   2.084   2.808   2.078
 8917TIP3    H126696   2.137   2.887   2.064
 8917TIP3    H226697   2.007   2.839   2.126
 8918TIP3   OH226698   5.146   0.676   1.315
 8918TIP3    H126699   5.150   0.682   1.219
 8918TIP3    H226700   5.066   0.723   1.339
 8919TIP3   OH226701   1.106   5.017   6.687
 8919TIP3    H126702   1.148   5.066   6.757
 8919TIP3    H226703   1.153   5.043   6.608
 8920TIP3   OH226704   2.913   6.299   4.724
 8920TIP3    H126705   2.859   6.224   4.747
 8920TIP3    H226706   2.948   6.331   4.807
 8921TIP3   OH226707   8.215   7.614   5.334
 8921TIP3    H126708   8.146   7.565   5.289
 8921TIP3    H226709   8.167   7.670   5.396
 8922TIP3   OH226710   4.739   1.867   3.392
 8922TIP3    H126711   4.783   1.883   3.309
 8922TIP3    H226712   4.735   1.772   3.399
 8923TIP3   OH226713   4.975   5.701   1.301
 8923TIP3    H126714   4.922   5.651   1.240
 8923TIP3    H226715   5.063   5.665   1.292
 8924TIP3   OH226716   2.986   1.116   5.423
 8924TIP3    H126717   3.051   1.181   5.450
 8924TIP3    H226718   2.903   1.153   5.454
 8925TIP3   OH226719   7.439   3.663   2.747
 8925TIP3    H126720   7.439   3.734   2.682
 8925TIP3    H226721   7.487   3.699   2.822
 8926TIP3   OH226722   1.869   3.095   3.688
 8926TIP3    H126723   1.896   3.025   3.628
 8926TIP3    H226724   1.914   3.076   3.770
 8927TIP3   OH226725   6.007   1.802   5.137
 8927TIP3    H126726   6.011   1.753   5.054
 8927TIP3    H226727   6.078   1.765   5.189
 8928TIP3   OH226728   6.970   4.227   1.249
 8928TIP3    H126729   6.932   4.196   1.331
 8928TIP3    H226730   7.004   4.314   1.270
 8929TIP3   OH226731   4.202   7.467   1.390
 8929TIP3    H126732   4.183   7.399   1.454
 8929TIP3    H226733   4.242   7.420   1.317
 8930TIP3   OH226734   4.029   4.285   0.601
 8930TIP3    H126735   4.085   4.210   0.617
 8930TIP3    H226736   3.942   4.256   0.628
 8931TIP3   OH226737   2.872   2.971   6.133
 8931TIP3    H126738   2.959   3.004   6.108
 8931TIP3    H226739   2.875   2.878   6.111
 8932TIP3   OH226740   4.871   1.227   5.996
 8932TIP3    H126741   4.893   1.169   6.069
 8932TIP3    H226742   4.791   1.190   5.959
 8933TIP3   OH226743   4.229   4.450   4.282
 8933TIP3    H126744   4.218   4.452   4.187
 8933TIP3    H226745   4.247   4.541   4.306
 8934TIP3   OH226746   2.070   1.555   6.709
 8934TIP3    H126747   2.061   1.509   6.626
 8934TIP3    H226748   2.058   1.647   6.686
 8935TIP3   OH226749   0.218   4.159   4.780
 8935TIP3    H126750   0.156   4.185   4.848
 8935TIP3    H226751   0.301   4.200   4.805
 8936TIP3   OH226752   4.010   4.507   2.097
 8936TIP3    H126753   4.078   4.502   2.030
 8936TIP3    H226754   3.928   4.496   2.048
 8937TIP3   OH226755   7.776   0.881   2.817
 8937TIP3    H126756   7.858   0.906   2.859
 8937TIP3    H226757   7.803   0.827   2.743
 8938TIP3   OH226758   0.150   6.465   3.584
 8938TIP3    H126759   0.209   6.517   3.640
 8938TIP3    H226760   0.074   6.521   3.571
 8939TIP3   OH226761   6.093   4.499   4.790
 8939TIP3    H126762   6.151   4.549   4.846
 8939TIP3    H226763   6.020   4.474   4.847
 8940TIP3   OH226764   1.125   3.544   4.228
 8940TIP3    H126765   1.091   3.632   4.212
 8940TIP3    H226766   1.071   3.487   4.172
 8941TIP3   OH226767   7.311   2.978   5.760
 8941TIP3    H126768   7.340   2.960   5.670
 8941TIP3    H226769   7.378   2.938   5.815
 8942TIP3   OH226770   5.029   3.183   0.511
 8942TIP3    H126771   5.098   3.246   0.533
 8942TIP3    H226772   4.951   3.236   0.498
 8943TIP3   OH226773   2.129   6.605   2.534
 8943TIP3    H126774   2.209   6.607   2.588
 8943TIP3    H226775   2.146   6.536   2.470
 8944TIP3   OH226776   7.774   1.044   5.408
 8944TIP3    H126777   7.805   1.050   5.318
 8944TIP3    H226778   7.813   1.120   5.451
 8945TIP3   OH226779   4.162   2.162   5.102
 8945TIP3    H126780   4.140   2.153   5.009
 8945TIP3    H226781   4.172   2.072   5.134
 8946TIP3   OH226782   2.976   0.699   1.273
 8946TIP3    H126783   3.067   0.682   1.250
 8946TIP3    H226784   2.925   0.644   1.214
 8947TIP3   OH226785   3.477   3.581   3.708
 8947TIP3    H126786   3.491   3.524   3.784
 8947TIP3    H226787   3.531   3.658   3.726
 8948TIP3   OH226788   6.311   5.114   2.676
 8948TIP3    H126789   6.268   5.037   2.638
 8948TIP3    H226790   6.263   5.132   2.756
 8949TIP3   OH226791   1.719   5.588   4.655
 8949TIP3    H126792   1.720   5.662   4.716
 8949TIP3    H226793   1.778   5.524   4.695
 8950TIP3   OH226794   0.178   5.630   5.476
 8950TIP3    H126795   0.173   5.539   5.502
 8950TIP3    H226796   0.202   5.678   5.556
 8951TIP3   OH226797   7.660   7.125   1.527
 8951TIP3    H126798   7.690   7.210   1.559
 8951TIP3    H226799   7.708   7.111   1.446
 8952TIP3   OH226800   1.614   1.279   2.840
 8952TIP3    H126801   1.674   1.345   2.874
 8952TIP3    H226802   1.668   1.225   2.782
 8953TIP3   OH226803   3.819   3.636   3.229
 8953TIP3    H126804   3.797   3.618   3.321
 8953TIP3    H226805   3.914   3.646   3.229
 8954TIP3   OH226806   4.564   6.048   6.634
 8954TIP3    H126807   4.630   6.020   6.569
 8954TIP3    H226808   4.578   6.143   6.642
 8955TIP3   OH226809   1.807   1.770   5.398
 8955TIP3    H126810   1.796   1.815   5.314
 8955TIP3    H226811   1.726   1.722   5.411
 8956TIP3   OH226812   5.655   0.432   4.097
 8956TIP3    H126813   5.608   0.457   4.177
 8956TIP3    H226814   5.747   0.448   4.118
 8957TIP3   OH226815   4.078   0.275   3.547
 8957TIP3    H126816   3.996   0.279   3.596
 8957TIP3    H226817   4.108   0.366   3.544
 8958TIP3   OH226818   4.138   6.822   4.068
 8958TIP3    H126819   4.165   6.903   4.111
 8958TIP3    H226820   4.097   6.771   4.138
 8959TIP3   OH226821   4.380   5.089   3.927
 8959TIP3    H126822   4.378   5.009   3.978
 8959TIP3    H226823   4.355   5.158   3.989
 8960TIP3   OH226824   1.775   4.926   4.946
 8960TIP3    H126825   1.766   4.871   4.868
 8960TIP3    H226826   1.735   5.009   4.922
 8961TIP3   OH226827   2.136   1.778   4.156
 8961TIP3    H126828   2.215   1.767   4.210
 8961TIP3    H226829   2.071   1.813   4.216
 8962TIP3   OH226830   1.948   0.818   1.594
 8962TIP3    H126831   1.978   0.815   1.685
 8962TIP3    H226832   1.919   0.908   1.581
 8963TIP3   OH226833   6.249   0.509   6.649
 8963TIP3    H126834   6.303   0.584   6.672
 8963TIP3    H226835   6.207   0.483   6.732
 8964TIP3   OH226836   0.022   3.510   1.068
 8964TIP3    H126837   0.062   3.550   0.991
 8964TIP3    H226838   0.081   3.531   1.140
 8965TIP3   OH226839   4.624   3.823   3.875
 8965TIP3    H126840   4.690   3.754   3.869
 8965TIP3    H226841   4.673   3.905   3.868
 8966TIP3   OH226842   1.610   4.387   3.935
 8966TIP3    H126843   1.609   4.424   4.024
 8966TIP3    H226844   1.608   4.463   3.877
 8967TIP3   OH226845   6.191   7.685   5.858
 8967TIP3    H126846   6.208   7.637   5.939
 8967TIP3    H226847   6.184   7.776   5.886
 8968TIP3   OH226848   7.567   1.199   0.362
 8968TIP3    H126849   7.529   1.139   0.426
 8968TIP3    H226850   7.579   1.281   0.409
 8969TIP3   OH226851   4.731   5.089   4.083
 8969TIP3    H126852   4.694   5.099   4.170
 8969TIP3    H226853   4.734   4.994   4.069
 8970TIP3   OH226854   4.137   1.638   4.607
 8970TIP3    H126855   4.149   1.557   4.557
 8970TIP3    H226856   4.204   1.634   4.676
 8971TIP3   OH226857   6.193   5.465   2.869
 8971TIP3    H126858   6.220   5.528   2.936
 8971TIP3    H226859   6.196   5.514   2.787
 8972TIP3   OH226860   4.737   3.571   1.709
 8972TIP3    H126861   4.773   3.482   1.709
 8972TIP3    H226862   4.811   3.627   1.731
 8973TIP3   OH226863   0.391   4.390   3.981
 8973TIP3    H126864   0.479   4.357   3.965
 8973TIP3    H226865   0.333   4.319   3.954
 8974TIP3   OH226866   5.247   3.305   3.111
 8974TIP3    H126867   5.285   3.218   3.098
 8974TIP3    H226868   5.199   3.323   3.030
 8975TIP3   OH226869   0.058   5.608   2.181
 8975TIP3    H126870   0.106   5.527   2.198
 8975TIP3    H226871   0.082   5.666   2.254
 8976TIP3   OH226872   7.094   7.423   5.741
 8976TIP3    H126873   7.059   7.357   5.801
 8976TIP3    H226874   7.053   7.403   5.657
 8977TIP3   OH226875   3.688   1.433   1.527
 8977TIP3    H126876   3.695   1.351   1.478
 8977TIP3    H226877   3.594   1.448   1.535
 8978TIP3   OH226878   6.393   3.782   3.472
 8978TIP3    H126879   6.395   3.701   3.523
 8978TIP3    H226880   6.439   3.760   3.390
 8979TIP3   OH226881   2.505   3.438   5.186
 8979TIP3    H126882   2.593   3.425   5.221
 8979TIP3    H226883   2.460   3.355   5.202
 8980TIP3   OH226884   7.348   2.099   1.196
 8980TIP3    H126885   7.304   2.065   1.273
 8980TIP3    H226886   7.403   2.027   1.165
 8981TIP3   OH226887   8.251   4.571   6.004
 8981TIP3    H126888   8.244   4.658   6.044
 8981TIP3    H226889   8.345   4.558   5.991
 8982TIP3   OH226890   6.714   2.116   5.259
 8982TIP3    H126891   6.703   2.191   5.200
 8982TIP3    H226892   6.688   2.040   5.206
 8983TIP3   OH226893   1.065   5.527   4.461
 8983TIP3    H126894   1.131   5.492   4.521
 8983TIP3    H226895   0.990   5.469   4.470
 8984TIP3   OH226896   3.066   0.801   1.553
 8984TIP3    H126897   2.990   0.859   1.542
 8984TIP3    H226898   3.071   0.752   1.471
 8985TIP3   OH226899   1.882   3.737   6.622
 8985TIP3    H126900   1.929   3.670   6.573
 8985TIP3    H226901   1.792   3.732   6.588
 8986TIP3   OH226902   4.463   4.555   4.526
 8986TIP3    H126903   4.466   4.621   4.596
 8986TIP3    H226904   4.449   4.472   4.572
 8987TIP3   OH226905   7.295   0.742   1.145
 8987TIP3    H126906   7.336   0.756   1.230
 8987TIP3    H226907   7.358   0.778   1.082
 8988TIP3   OH226908   7.127   2.980   0.506
 8988TIP3    H126909   7.219   3.000   0.523
 8988TIP3    H226910   7.103   3.035   0.432
 8989TIP3   OH226911   1.793   0.211   0.602
 8989TIP3    H126912   1.820   0.301   0.586
 8989TIP3    H226913   1.803   0.168   0.517
 8990TIP3   OH226914   1.537   5.134   6.403
 8990TIP3    H126915   1.627   5.146   6.433
 8990TIP3    H226916   1.503   5.223   6.393
 8991TIP3   OH226917   7.756   5.297   3.977
 8991TIP3    H126918   7.743   5.206   3.951
 8991TIP3    H226919   7.781   5.292   4.069
 8992TIP3   OH226920   6.133   6.308   6.082
 8992TIP3    H126921   6.138   6.389   6.031
 8992TIP3    H226922   6.224   6.286   6.101
 8993TIP3   OH226923   6.810   2.837   2.829
 8993TIP3    H126924   6.731   2.883   2.858
 8993TIP3    H226925   6.868   2.907   2.799
 8994TIP3   OH226926   3.304   1.680   4.144
 8994TIP3    H126927   3.333   1.714   4.228
 8994TIP3    H226928   3.211   1.664   4.155
 8995TIP3   OH226929   1.765   7.247   1.248
 8995TIP3    H126930   1.764   7.335   1.209
 8995TIP3    H226931   1.674   7.230   1.272
 8996TIP3   OH226932   5.842   0.493   2.281
 8996TIP3    H126933   5.808   0.582   2.279
 8996TIP3    H226934   5.823   0.462   2.369
 8997TIP3   OH226935   5.795   4.662   3.304
 8997TIP3    H126936   5.781   4.670   3.399
 8997TIP3    H226937   5.885   4.690   3.290
 8998TIP3   OH226938   3.430   4.823   3.732
 8998TIP3    H126939   3.493   4.892   3.752
 8998TIP3    H226940   3.443   4.758   3.801
 8999TIP3   OH226941   2.078   4.775   3.635
 8999TIP3    H126942   2.135   4.835   3.683
 8999TIP3    H226943   2.000   4.767   3.690
 9000TIP3   OH226944   5.646   1.460   1.966
 9000TIP3    H126945   5.565   1.511   1.973
 9000TIP3    H226946   5.692   1.478   2.048
 9001TIP3   OH226947   8.039   4.273   3.803
 9001TIP3    H126948   8.052   4.253   3.896
 9001TIP3    H226949   8.025   4.187   3.762
 9002TIP3   OH226950   3.119   5.437   2.910
 9002TIP3    H126951   3.166   5.359   2.881
 9002TIP3    H226952   3.090   5.480   2.830
 9003TIP3   OH226953   4.139   7.548   3.476
 9003TIP3    H126954   4.126   7.528   3.384
 9003TIP3    H226955   4.234   7.550   3.488
 9004TIP3   OH226956   1.543   2.961   2.428
 9004TIP3    H126957   1.540   3.041   2.374
 9004TIP3    H226958   1.542   2.890   2.364
 9005TIP3   OH226959   0.243   6.676   6.204
 9005TIP3    H126960   0.298   6.607   6.167
 9005TIP3    H226961   0.180   6.631   6.259
 9006TIP3   OH226962   1.770   4.510   1.519
 9006TIP3    H126963   1.785   4.458   1.441
 9006TIP3    H226964   1.703   4.574   1.493
 9007TIP3   OH226965   6.409   6.589   2.734
 9007TIP3    H126966   6.336   6.547   2.780
 9007TIP3    H226967   6.425   6.670   2.783
 9008TIP3   OH226968   2.231   4.952   3.826
 9008TIP3    H126969   2.255   4.869   3.868
 9008TIP3    H226970   2.312   5.003   3.828
 9009TIP3   OH226971   5.169   7.409   2.759
 9009TIP3    H126972   5.164   7.354   2.838
 9009TIP3    H226973   5.096   7.379   2.705
 9010TIP3   OH226974   0.413   5.444   6.561
 9010TIP3    H126975   0.450   5.448   6.473
 9010TIP3    H226976   0.390   5.352   6.574
 9011TIP3   OH226977   1.756   3.390   4.111
 9011TIP3    H126978   1.770   3.301   4.142
 9011TIP3    H226979   1.731   3.439   4.190
 9012TIP3   OH226980   5.930   5.322   2.028
 9012TIP3    H126981   5.987   5.387   2.070
 9012TIP3    H226982   5.974   5.238   2.044
 9013TIP3   OH226983   1.913   6.399   4.187
 9013TIP3    H126984   1.849   6.467   4.208
 9013TIP3    H226985   1.970   6.395   4.263
 9014TIP3   OH226986   5.090   5.775   5.992
 9014TIP3    H126987   5.003   5.802   6.018
 9014TIP3    H226988   5.085   5.679   5.985
 9015TIP3   OH226989   2.477   3.520   4.197
 9015TIP3    H126990   2.440   3.437   4.227
 9015TIP3    H226991   2.569   3.517   4.224
 9016TIP3   OH226992   3.454   7.759   3.199
 9016TIP3    H126993   3.475   7.820   3.128
 9016TIP3    H226994   3.441   7.815   3.275
 9017TIP3   OH226995   6.033   2.755   5.117
 9017TIP3    H126996   5.971   2.828   5.125
 9017TIP3    H226997   6.065   2.741   5.207
 9018TIP3   OH226998   7.438   4.137   1.687
 9018TIP3    H126999   7.408   4.137   1.778
 9018TIP3    H227000   7.481   4.221   1.676
 9019TIP3   OH227001   5.805   2.112   4.864
 9019TIP3    H127002   5.721   2.122   4.909
 9019TIP3    H227003   5.826   2.200   4.831
 9020TIP3   OH227004   4.566   1.886   6.431
 9020TIP3    H127005   4.473   1.885   6.452
 9020TIP3    H227006   4.577   1.816   6.367
 9021TIP3   OH227007   1.585   3.561   0.387
 9021TIP3    H127008   1.590   3.481   0.335
 9021TIP3    H227009   1.643   3.543   0.462
 9022TIP3   OH227010   0.988   7.310   3.678
 9022TIP3    H127011   0.935   7.243   3.636
 9022TIP3    H227012   1.053   7.262   3.729
 9023TIP3   OH227013   1.965   0.106   3.566
 9023TIP3    H127014   1.921   0.155   3.635
 9023TIP3    H227015   2.049   0.079   3.604
 9024TIP3   OH227016   4.513   1.461   2.659
 9024TIP3    H127017   4.433   1.503   2.627
 9024TIP3    H227018   4.581   1.489   2.598
 9025TIP3   OH227019   5.799   6.254   3.883
 9025TIP3    H127020   5.817   6.167   3.917
 9025TIP3    H227021   5.705   6.253   3.863
 9026TIP3   OH227022   3.620   4.049   1.780
 9026TIP3    H127023   3.573   3.966   1.773
 9026TIP3    H227024   3.665   4.058   1.696
 9027TIP3   OH227025   6.723   5.503   3.938
 9027TIP3    H127026   6.720   5.572   3.872
 9027TIP3    H227027   6.644   5.452   3.924
 9028TIP3   OH227028   0.347   3.404   5.822
 9028TIP3    H127029   0.412   3.334   5.829
 9028TIP3    H227030   0.321   3.404   5.730
 9029TIP3   OH227031   7.194   2.533   5.258
 9029TIP3    H127032   7.146   2.518   5.176
 9029TIP3    H227033   7.152   2.610   5.296
 9030TIP3   OH227034   1.492   3.199   0.400
 9030TIP3    H127035   1.555   3.250   0.451
 9030TIP3    H227036   1.507   3.226   0.309
 9031TIP3   OH227037   6.520   5.819   3.306
 9031TIP3    H127038   6.494   5.899   3.351
 9031TIP3    H227039   6.533   5.846   3.215
 9032TIP3   OH227040   7.598   2.559   0.897
 9032TIP3    H127041   7.593   2.599   0.810
 9032TIP3    H227042   7.599   2.632   0.958
 9033TIP3   OH227043   0.478   6.960   5.436
 9033TIP3    H127044   0.443   7.047   5.455
 9033TIP3    H227045   0.489   6.958   5.341
 9034TIP3   OH227046   6.519   2.679   3.030
 9034TIP3    H127047   6.575   2.631   2.967
 9034TIP3    H227048   6.430   2.649   3.010
 9035TIP3   OH227049   1.764   5.287   2.133
 9035TIP3    H127050   1.716   5.250   2.058
 9035TIP3    H227051   1.798   5.370   2.101
 9036TIP3   OH227052   0.261   6.374   2.712
 9036TIP3    H127053   0.227   6.348   2.797
 9036TIP3    H227054   0.205   6.447   2.685
 9037TIP3   OH227055   1.472   3.987   5.180
 9037TIP3    H127056   1.448   4.045   5.108
 9037TIP3    H227057   1.463   3.899   5.144
 9038TIP3   OH227058   8.245   1.617   3.507
 9038TIP3    H127059   8.156   1.589   3.488
 9038TIP3    H227060   8.299   1.573   3.441
 9039TIP3   OH227061   3.784   0.156   3.008
 9039TIP3    H127062   3.786   0.251   3.017
 9039TIP3    H227063   3.731   0.140   2.930
 9040TIP3   OH227064   5.590   0.503   1.346
 9040TIP3    H127065   5.609   0.597   1.353
 9040TIP3    H227066   5.542   0.495   1.264
 9041TIP3   OH227067   3.469   5.735   1.726
 9041TIP3    H127068   3.548   5.701   1.683
 9041TIP3    H227069   3.455   5.821   1.686
 9042TIP3   OH227070   1.574   5.004   0.891
 9042TIP3    H127071   1.598   4.920   0.931
 9042TIP3    H227072   1.490   5.027   0.931
 9043TIP3   OH227073   8.103   1.724   5.653
 9043TIP3    H127074   8.043   1.703   5.581
 9043TIP3    H227075   8.060   1.795   5.701
 9044TIP3   OH227076   5.180   3.813   3.073
 9044TIP3    H127077   5.137   3.763   3.004
 9044TIP3    H227078   5.261   3.845   3.034
 9045TIP3   OH227079   2.584   5.548   2.614
 9045TIP3    H127080   2.610   5.461   2.585
 9045TIP3    H227081   2.666   5.593   2.632
 9046TIP3   OH227082   6.282   0.741   6.359
 9046TIP3    H127083   6.283   0.690   6.440
 9046TIP3    H227084   6.299   0.676   6.290
 9047TIP3   OH227085   4.505   0.988   5.268
 9047TIP3    H127086   4.500   1.070   5.317
 9047TIP3    H227087   4.451   0.927   5.319
 9048TIP3   OH227088   1.297   4.596   1.913
 9048TIP3    H127089   1.311   4.548   1.995
 9048TIP3    H227090   1.206   4.626   1.917
 9049TIP3   OH227091   7.811   2.553   6.536
 9049TIP3    H127092   7.763   2.470   6.534
 9049TIP3    H227093   7.869   2.545   6.612
 9050TIP3   OH227094   0.108   3.299   6.284
 9050TIP3    H127095   0.036   3.355   6.314
 9050TIP3    H227096   0.136   3.337   6.201
 9051TIP3   OH227097   7.038   1.792   0.842
 9051TIP3    H127098   6.992   1.722   0.794
 9051TIP3    H227099   7.087   1.839   0.774
 9052TIP3   OH227100   0.820   0.247   0.272
 9052TIP3    H127101   0.760   0.300   0.218
 9052TIP3    H227102   0.822   0.162   0.228
 9053TIP3   OH227103   2.395   6.456   4.759
 9053TIP3    H127104   2.490   6.466   4.750
 9053TIP3    H227105   2.382   6.433   4.852
 9054TIP3   OH227106   5.623   2.003   0.143
 9054TIP3    H127107   5.697   1.991   0.202
 9054TIP3    H227108   5.598   2.095   0.153
 9055TIP3   OH227109   6.628   0.885   0.553
 9055TIP3    H127110   6.651   0.794   0.574
 9055TIP3    H227111   6.536   0.880   0.528
 9056TIP3   OH227112   3.703   2.580   3.807
 9056TIP3    H127113   3.609   2.562   3.815
 9056TIP3    H227114   3.708   2.671   3.778
 9057TIP3   OH227115   7.951   5.821   6.374
 9057TIP3    H127116   7.959   5.916   6.372
 9057TIP3    H227117   8.041   5.789   6.375
 9058TIP3   OH227118   3.830   3.348   1.300
 9058TIP3    H127119   3.738   3.370   1.290
 9058TIP3    H227120   3.849   3.364   1.393
 9059TIP3   OH227121   7.008   6.601   2.497
 9059TIP3    H127122   7.069   6.553   2.440
 9059TIP3    H227123   7.048   6.595   2.584
 9060TIP3   OH227124   0.984   4.549   5.208
 9060TIP3    H127125   0.904   4.503   5.235
 9060TIP3    H227126   0.997   4.616   5.275
 9061TIP3   OH227127   7.880   5.398   6.460
 9061TIP3    H127128   7.884   5.372   6.552
 9061TIP3    H227129   7.809   5.462   6.457
 9062TIP3   OH227130   2.632   6.189   1.490
 9062TIP3    H127131   2.601   6.228   1.572
 9062TIP3    H227132   2.601   6.249   1.422
 9063TIP3   OH227133   7.172   3.507   0.425
 9063TIP3    H127134   7.268   3.503   0.431
 9063TIP3    H227135   7.155   3.558   0.346
 9064TIP3   OH227136   4.756   5.250   2.733
 9064TIP3    H127137   4.781   5.321   2.791
 9064TIP3    H227138   4.739   5.293   2.649
 9065TIP3   OH227139   1.711   2.792   1.054
 9065TIP3    H127140   1.728   2.783   1.148
 9065TIP3    H227141   1.798   2.793   1.014
 9066TIP3   OH227142   2.438   5.179   5.322
 9066TIP3    H127143   2.376   5.138   5.382
 9066TIP3    H227144   2.524   5.152   5.354
 9067TIP3   OH227145   2.796   7.822   2.874
 9067TIP3    H127146   2.706   7.802   2.848
 9067TIP3    H227147   2.850   7.780   2.806
 9068TIP3   OH227148   3.456   1.017   0.355
 9068TIP3    H127149   3.518   0.962   0.403
 9068TIP3    H227150   3.510   1.061   0.289
 9069TIP3   OH227151   7.760   6.430   0.180
 9069TIP3    H127152   7.853   6.424   0.158
 9069TIP3    H227153   7.746   6.360   0.243
 9070TIP3   OH227154   4.624   3.432   3.178
 9070TIP3    H127155   4.665   3.448   3.263
 9070TIP3    H227156   4.584   3.346   3.186
 9071TIP3   OH227157   5.967   0.480   5.194
 9071TIP3    H127158   6.021   0.400   5.200
 9071TIP3    H227159   5.910   0.464   5.119
 9072TIP3   OH227160   0.822   4.732   2.406
 9072TIP3    H127161   0.857   4.652   2.367
 9072TIP3    H227162   0.850   4.728   2.498
 9073TIP3   OH227163   3.811   5.141   1.754
 9073TIP3    H127164   3.851   5.228   1.755
 9073TIP3    H227165   3.720   5.156   1.780
 9074TIP3   OH227166   0.352   2.276   0.588
 9074TIP3    H127167   0.438   2.281   0.548
 9074TIP3    H227168   0.354   2.193   0.637
 9075TIP3   OH227169   1.625   2.378   5.281
 9075TIP3    H127170   1.688   2.308   5.264
 9075TIP3    H227171   1.583   2.394   5.196
 9076TIP3   OH227172   1.646   0.359   5.880
 9076TIP3    H127173   1.567   0.412   5.877
 9076TIP3    H227174   1.614   0.269   5.879
 9077TIP3   OH227175   6.355   6.406   4.770
 9077TIP3    H127176   6.418   6.334   4.774
 9077TIP3    H227177   6.355   6.443   4.858
 9078TIP3   OH227178   4.318   4.744   5.577
 9078TIP3    H127179   4.245   4.794   5.614
 9078TIP3    H227180   4.350   4.800   5.505
 9079TIP3   OH227181   6.783   5.831   1.532
 9079TIP3    H127182   6.789   5.779   1.612
 9079TIP3    H227183   6.788   5.767   1.461
 9080TIP3   OH227184   4.118   3.322   6.316
 9080TIP3    H127185   4.034   3.358   6.342
 9080TIP3    H227186   4.125   3.341   6.222
 9081TIP3   OH227187   3.583   3.624   6.439
 9081TIP3    H127188   3.605   3.588   6.353
 9081TIP3    H227189   3.544   3.710   6.421
 9082TIP3   OH227190   7.262   3.994   4.683
 9082TIP3    H127191   7.249   4.067   4.744
 9082TIP3    H227192   7.225   3.918   4.728
 9083TIP3   OH227193   6.889   1.785   3.698
 9083TIP3    H127194   6.816   1.823   3.746
 9083TIP3    H227195   6.946   1.860   3.679
 9084TIP3   OH227196   2.492   1.938   1.524
 9084TIP3    H127197   2.432   1.933   1.599
 9084TIP3    H227198   2.447   1.893   1.453
 9085TIP3   OH227199   4.324   2.213   3.118
 9085TIP3    H127200   4.365   2.127   3.104
 9085TIP3    H227201   4.262   2.198   3.190
 9086TIP3   OH227202   5.069   7.392   5.819
 9086TIP3    H127203   5.048   7.372   5.910
 9086TIP3    H227204   5.091   7.306   5.781
 9087TIP3   OH227205   4.143   2.076   4.847
 9087TIP3    H127206   4.220   2.029   4.816
 9087TIP3    H227207   4.106   2.117   4.768
 9088TIP3   OH227208   4.036   6.216   2.059
 9088TIP3    H127209   4.016   6.288   2.119
 9088TIP3    H227210   3.955   6.165   2.056
 9089TIP3   OH227211   6.755   4.920   5.297
 9089TIP3    H127212   6.711   4.837   5.281
 9089TIP3    H227213   6.685   4.986   5.292
 9090TIP3   OH227214   1.688   3.861   2.049
 9090TIP3    H127215   1.647   3.944   2.072
 9090TIP3    H227216   1.776   3.884   2.020
 9091TIP3   OH227217   2.615   3.233   0.902
 9091TIP3    H127218   2.657   3.169   0.960
 9091TIP3    H227219   2.607   3.188   0.818
 9092TIP3   OH227220   3.294   1.820   5.285
 9092TIP3    H127221   3.343   1.849   5.208
 9092TIP3    H227222   3.218   1.775   5.249
 9093TIP3   OH227223   4.433   3.880   5.155
 9093TIP3    H127224   4.436   3.841   5.242
 9093TIP3    H227225   4.341   3.900   5.140
 9094TIP3   OH227226   7.687   1.442   0.460
 9094TIP3    H127227   7.740   1.498   0.403
 9094TIP3    H227228   7.737   1.434   0.540
 9095TIP3   OH227229   1.364   2.817   2.591
 9095TIP3    H127230   1.417   2.873   2.534
 9095TIP3    H227231   1.388   2.843   2.680
 9096TIP3   OH227232   4.608   0.583   3.096
 9096TIP3    H127233   4.591   0.645   3.025
 9096TIP3    H227234   4.676   0.525   3.061
 9097TIP3   OH227235   8.261   3.751   4.083
 9097TIP3    H127236   8.257   3.728   3.990
 9097TIP3    H227237   8.216   3.680   4.127
 9098TIP3   OH227238   0.144   0.561   3.315
 9098TIP3    H127239   0.144   0.575   3.410
 9098TIP3    H227240   0.053   0.573   3.289
 9099TIP3   OH227241   6.993   1.452   1.937
 9099TIP3    H127242   7.028   1.508   2.006
 9099TIP3    H227243   7.021   1.364   1.961
 9100TIP3   OH227244   8.067   6.438   5.140
 9100TIP3    H127245   7.997   6.476   5.193
 9100TIP3    H227246   8.091   6.508   5.079
 9101TIP3   OH227247   1.716   5.336   5.140
 9101TIP3    H127248   1.807   5.313   5.157
 9101TIP3    H227249   1.667   5.291   5.208
 9102TIP3   OH227250   5.844   1.266   2.715
 9102TIP3    H127251   5.928   1.294   2.751
 9102TIP3    H227252   5.835   1.315   2.634
 9103TIP3   OH227253   6.366   3.589   4.347
 9103TIP3    H127254   6.380   3.659   4.283
 9103TIP3    H227255   6.454   3.553   4.362
 9104TIP3   OH227256   3.713   7.621   6.756
 9104TIP3    H127257   3.763   7.558   6.704
 9104TIP3    H227258   3.768   7.700   6.759
 9105TIP3   OH227259   4.128   2.673   2.356
 9105TIP3    H127260   4.068   2.605   2.386
 9105TIP3    H227261   4.164   2.710   2.437
 9106TIP3   OH227262   6.879   4.443   3.309
 9106TIP3    H127263   6.968   4.436   3.342
 9106TIP3    H227264   6.823   4.436   3.386
 9107TIP3   OH227265   3.954   2.511   6.532
 9107TIP3    H127266   3.996   2.579   6.479
 9107TIP3    H227267   3.860   2.529   6.523
 9108TIP3   OH227268   7.687   2.273   4.099
 9108TIP3    H127269   7.609   2.314   4.134
 9108TIP3    H227270   7.713   2.328   4.026
 9109TIP3   OH227271   7.037   4.574   3.963
 9109TIP3    H127272   7.114   4.628   3.947
 9109TIP3    H227273   7.054   4.493   3.916
 9110TIP3   OH227274   1.608   3.281   1.085
 9110TIP3    H127275   1.515   3.294   1.068
 9110TIP3    H227276   1.613   3.199   1.135
 9111TIP3   OH227277   4.221   6.117   1.273
 9111TIP3    H127278   4.143   6.101   1.221
 9111TIP3    H227279   4.238   6.034   1.318
 9112TIP3   OH227280   6.009   2.658   3.872
 9112TIP3    H127281   6.002   2.666   3.777
 9112TIP3    H227282   6.049   2.741   3.900
 9113TIP3   OH227283   7.232   1.355   3.652
 9113TIP3    H127284   7.200   1.422   3.712
 9113TIP3    H227285   7.183   1.370   3.571
 9114TIP3   OH227286   7.572   0.788   5.461
 9114TIP3    H127287   7.496   0.739   5.428
 9114TIP3    H227288   7.583   0.859   5.398
 9115TIP3   OH227289   3.230   5.437   3.675
 9115TIP3    H127290   3.288   5.446   3.750
 9115TIP3    H227291   3.282   5.393   3.608
 9116TIP3   OH227292   3.424   5.269   6.452
 9116TIP3    H127293   3.420   5.361   6.423
 9116TIP3    H227294   3.383   5.270   6.538
 9117TIP3   OH227295   7.131   5.126   1.278
 9117TIP3    H127296   7.202   5.063   1.294
 9117TIP3    H227297   7.151   5.163   1.191
 9118TIP3   OH227298   0.638   3.089   6.288
 9118TIP3    H127299   0.554   3.042   6.288
 9118TIP3    H227300   0.704   3.020   6.275
 9119TIP3   OH227301   7.076   4.759   0.755
 9119TIP3    H127302   7.082   4.695   0.684
 9119TIP3    H227303   7.164   4.795   0.763
 9120TIP3   OH227304   4.503   1.992   3.324
 9120TIP3    H127305   4.579   1.965   3.375
 9120TIP3    H227306   4.533   1.990   3.233
 9121TIP3   OH227307   2.955   5.037   1.285
 9121TIP3    H127308   3.013   4.999   1.218
 9121TIP3    H227309   3.006   5.108   1.323
 9122TIP3   OH227310   3.117   0.199   5.700
 9122TIP3    H127311   3.115   0.205   5.796
 9122TIP3    H227312   3.043   0.141   5.679
 9123TIP3   OH227313   6.307   3.469   3.486
 9123TIP3    H127314   6.249   3.398   3.515
 9123TIP3    H227315   6.330   3.516   3.566
 9124TIP3   OH227316   7.663   4.087   1.957
 9124TIP3    H127317   7.738   4.145   1.973
 9124TIP3    H227318   7.606   4.100   2.034
 9125TIP3   OH227319   2.872   1.627   4.579
 9125TIP3    H127320   2.931   1.589   4.644
 9125TIP3    H227321   2.816   1.686   4.629
 9126TIP3   OH227322   2.997   5.404   5.377
 9126TIP3    H127323   3.037   5.490   5.394
 9126TIP3    H227324   3.005   5.358   5.461
 9127TIP3   OH227325   6.341   0.488   3.447
 9127TIP3    H127326   6.279   0.560   3.435
 9127TIP3    H227327   6.332   0.435   3.368
 9128TIP3   OH227328   1.127   0.473   3.019
 9128TIP3    H127329   1.158   0.401   2.964
 9128TIP3    H227330   1.052   0.437   3.066
 9129TIP3   OH227331   1.529   0.598   4.364
 9129TIP3    H127332   1.446   0.603   4.412
 9129TIP3    H227333   1.505   0.566   4.277
 9130TIP3   OH227334   3.730   5.876   1.137
 9130TIP3    H127335   3.763   5.965   1.149
 9130TIP3    H227336   3.662   5.885   1.069
 9131TIP3   OH227337   8.259   7.489   0.339
 9131TIP3    H127338   8.207   7.464   0.416
 9131TIP3    H227339   8.203   7.465   0.265
 9132TIP3   OH227340   5.355   0.534   1.825
 9132TIP3    H127341   5.434   0.491   1.793
 9132TIP3    H227342   5.359   0.623   1.790
 9133TIP3   OH227343   7.197   4.153   4.890
 9133TIP3    H127344   7.156   4.085   4.944
 9133TIP3    H227345   7.170   4.235   4.930
 9134TIP3   OH227346   6.726   4.152   5.073
 9134TIP3    H127347   6.663   4.223   5.057
 9134TIP3    H227348   6.762   4.170   5.159
 9135TIP3   OH227349   4.796   3.480   5.318
 9135TIP3    H127350   4.799   3.552   5.256
 9135TIP3    H227351   4.710   3.488   5.359
 9136TIP3   OH227352   3.034   0.531   2.789
 9136TIP3    H127353   3.129   0.543   2.788
 9136TIP3    H227354   2.999   0.616   2.761
 9137TIP3   OH227355   6.128   3.586   3.295
 9137TIP3    H127356   6.120   3.527   3.221
 9137TIP3    H227357   6.189   3.541   3.355
 9138TIP3   OH227358   2.634   2.107   3.539
 9138TIP3    H127359   2.666   2.017   3.544
 9138TIP3    H227360   2.713   2.161   3.546
 9139TIP3   OH227361   1.052   5.016   4.899
 9139TIP3    H127362   1.036   4.936   4.848
 9139TIP3    H227363   1.148   5.020   4.907
 9140TIP3   OH227364   2.438   2.287   3.823
 9140TIP3    H127365   2.422   2.212   3.764
 9140TIP3    H227366   2.516   2.262   3.872
 9141TIP3   OH227367   5.181   4.982   0.839
 9141TIP3    H127368   5.098   4.996   0.885
 9141TIP3    H227369   5.198   5.064   0.794
 9142TIP3   OH227370   0.403   7.054   0.252
 9142TIP3    H127371   0.348   7.011   0.187
 9142TIP3    H227372   0.475   6.993   0.267
 9143TIP3   OH227373   6.823   4.086   0.122
 9143TIP3    H127374   6.736   4.051   0.140
 9143TIP3    H227375   6.808   4.179   0.104
 9144TIP3   OH227376   3.828   2.280   3.789
 9144TIP3    H127377   3.831   2.254   3.881
 9144TIP3    H227378   3.790   2.204   3.744
 9145TIP3   OH227379   7.010   6.771   5.984
 9145TIP3    H127380   7.072   6.781   6.056
 9145TIP3    H227381   7.064   6.754   5.908
 9146TIP3   OH227382   1.370   0.043   3.901
 9146TIP3    H127383   1.429  -0.018   3.946
 9146TIP3    H227384   1.425   0.085   3.834
 9147TIP3   OH227385   5.531   0.802   0.988
 9147TIP3    H127386   5.609   0.835   0.944
 9147TIP3    H227387   5.553   0.806   1.081
 9148TIP3   OH227388   1.753   1.395   6.451
 9148TIP3    H127389   1.829   1.389   6.393
 9148TIP3    H227390   1.755   1.314   6.502
 9149TIP3   OH227391   8.209   3.849   1.246
 9149TIP3    H127392   8.298   3.876   1.223
 9149TIP3    H227393   8.195   3.883   1.334
 9150TIP3   OH227394   8.001   0.413   3.038
 9150TIP3    H127395   8.045   0.328   3.045
 9150TIP3    H227396   8.052   0.461   2.972
 9151TIP3   OH227397   6.585   4.732   5.226
 9151TIP3    H127398   6.548   4.645   5.242
 9151TIP3    H227399   6.553   4.755   5.139
 9152TIP3   OH227400   6.194   4.315   0.903
 9152TIP3    H127401   6.246   4.378   0.954
 9152TIP3    H227402   6.105   4.350   0.907
 9153TIP3   OH227403   3.164   7.430   4.495
 9153TIP3    H127404   3.215   7.484   4.435
 9153TIP3    H227405   3.219   7.353   4.511
 9154TIP3   OH227406   2.527   7.493   4.548
 9154TIP3    H127407   2.571   7.575   4.531
 9154TIP3    H227408   2.495   7.500   4.638
 9155TIP3   OH227409   8.226   0.619   3.009
 9155TIP3    H127410   8.316   0.631   2.978
 9155TIP3    H227411   8.174   0.678   2.955
 9156TIP3   OH227412   1.520   0.231   3.274
 9156TIP3    H127413   1.463   0.229   3.197
 9156TIP3    H227414   1.603   0.265   3.241
 9157TIP3   OH227415   7.212   4.983   2.631
 9157TIP3    H127416   7.204   5.030   2.548
 9157TIP3    H227417   7.135   4.925   2.633
 9158TIP3   OH227418   3.095   2.081   2.524
 9158TIP3    H127419   3.076   2.130   2.444
 9158TIP3    H227420   3.130   2.146   2.584
 9159TIP3   OH227421   4.681   6.157   3.069
 9159TIP3    H127422   4.648   6.166   2.980
 9159TIP3    H227423   4.668   6.243   3.108
 9160TIP3   OH227424   4.881   0.642   5.200
 9160TIP3    H127425   4.874   0.552   5.170
 9160TIP3    H227426   4.793   0.678   5.193
 9161TIP3   OH227427   0.455   7.374   5.939
 9161TIP3    H127428   0.442   7.447   5.877
 9161TIP3    H227429   0.414   7.405   6.020
 9162TIP3   OH227430   5.372   4.841   5.309
 9162TIP3    H127431   5.341   4.887   5.231
 9162TIP3    H227432   5.438   4.780   5.276
 9163TIP3   OH227433   7.367   4.662   5.762
 9163TIP3    H127434   7.279   4.642   5.732
 9163TIP3    H227435   7.395   4.737   5.710
 9164TIP3   OH227436   7.045   5.332   0.231
 9164TIP3    H127437   7.083   5.406   0.279
 9164TIP3    H227438   7.095   5.327   0.150
 9165TIP3   OH227439   0.865   7.080   4.699
 9165TIP3    H127440   0.835   7.001   4.743
 9165TIP3    H227441   0.933   7.049   4.638
 9166TIP3   OH227442   5.264   4.608   0.598
 9166TIP3    H127443   5.290   4.677   0.537
 9166TIP3    H227444   5.332   4.541   0.589
 9167TIP3   OH227445   2.962   4.622   0.301
 9167TIP3    H127446   3.015   4.701   0.313
 9167TIP3    H227447   2.919   4.610   0.386
 9168TIP3   OH227448   7.682   3.760   1.466
 9168TIP3    H127449   7.628   3.838   1.453
 9168TIP3    H227450   7.625   3.698   1.512
 9169TIP3   OH227451   2.990   5.124   2.909
 9169TIP3    H127452   3.064   5.158   2.958
 9169TIP3    H227453   2.914   5.142   2.965
 9170TIP3   OH227454   2.150   5.402   4.479
 9170TIP3    H127455   2.186   5.490   4.475
 9170TIP3    H227456   2.059   5.412   4.454
 9171TIP3   OH227457   7.465   5.971   1.199
 9171TIP3    H127458   7.549   5.970   1.154
 9171TIP3    H227459   7.487   5.966   1.292
 9172TIP3   OH227460   6.579   0.951   0.235
 9172TIP3    H127461   6.542   0.891   0.170
 9172TIP3    H227462   6.511   1.017   0.248
 9173TIP3   OH227463   3.330   6.385   2.865
 9173TIP3    H127464   3.346   6.369   2.772
 9173TIP3    H227465   3.387   6.323   2.911
 9174TIP3   OH227466   0.384   2.783   3.970
 9174TIP3    H127467   0.386   2.733   3.888
 9174TIP3    H227468   0.291   2.805   3.982
 9175TIP3   OH227469   4.266   7.772   2.041
 9175TIP3    H127470   4.256   7.742   1.951
 9175TIP3    H227471   4.290   7.693   2.090
 9176TIP3   OH227472   7.063   1.999   2.038
 9176TIP3    H127473   6.996   2.042   2.092
 9176TIP3    H227474   7.140   1.996   2.095
 9177TIP3   OH227475   1.161   7.698   0.118
 9177TIP3    H127476   1.139   7.659   0.034
 9177TIP3    H227477   1.255   7.684   0.127
 9178TIP3   OH227478   1.668   2.054   2.940
 9178TIP3    H127479   1.726   1.980   2.955
 9178TIP3    H227480   1.691   2.086   2.853
 9179TIP3   OH227481   0.604   7.757   6.085
 9179TIP3    H127482   0.574   7.838   6.044
 9179TIP3    H227483   0.576   7.764   6.176
 9180TIP3   OH227484   5.234   4.556   5.535
 9180TIP3    H127485   5.176   4.629   5.511
 9180TIP3    H227486   5.177   4.494   5.579
 9181TIP3   OH227487   1.196   7.643   5.225
 9181TIP3    H127488   1.110   7.635   5.267
 9181TIP3    H227489   1.208   7.560   5.178
 9182TIP3   OH227490   0.561   5.541   0.369
 9182TIP3    H127491   0.593   5.466   0.320
 9182TIP3    H227492   0.479   5.566   0.325
 9183TIP3   OH227493   5.347   3.278   3.894
 9183TIP3    H127494   5.296   3.308   3.969
 9183TIP3    H227495   5.292   3.299   3.818
 9184TIP3   OH227496   1.902   6.626   2.993
 9184TIP3    H127497   1.841   6.555   2.976
 9184TIP3    H227498   1.876   6.696   2.933
 9185TIP3   OH227499   1.875   5.274   5.498
 9185TIP3    H127500   1.853   5.231   5.581
 9185TIP3    H227501   1.855   5.209   5.431
 9186TIP3   OH227502   5.863   4.655   5.223
 9186TIP3    H127503   5.955   4.648   5.251
 9186TIP3    H227504   5.868   4.673   5.129
 9187TIP3   OH227505   7.925   7.558   6.471
 9187TIP3    H127506   7.983   7.573   6.546
 9187TIP3    H227507   7.859   7.497   6.504
 9188TIP3   OH227508   8.056   0.653   4.105
 9188TIP3    H127509   8.144   0.647   4.068
 9188TIP3    H227510   8.070   0.675   4.197
 9189TIP3   OH227511   0.930   5.078   4.273
 9189TIP3    H127512   0.842   5.092   4.309
 9189TIP3    H227513   0.955   5.164   4.237
 9190TIP3   OH227514   1.760   2.335   4.130
 9190TIP3    H127515   1.751   2.240   4.119
 9190TIP3    H227516   1.851   2.353   4.105
 9191TIP3   OH227517   3.913   2.548   1.884
 9191TIP3    H127518   3.857   2.584   1.815
 9191TIP3    H227519   3.936   2.623   1.938
 9192TIP3   OH227520   6.600   1.513   5.396
 9192TIP3    H127521   6.680   1.492   5.443
 9192TIP3    H227522   6.598   1.609   5.392
 9193TIP3   OH227523   7.987   0.345   6.610
 9193TIP3    H127524   8.072   0.349   6.655
 9193TIP3    H227525   7.937   0.280   6.659
 9194TIP3   OH227526   1.793   3.777   1.775
 9194TIP3    H127527   1.818   3.834   1.703
 9194TIP3    H227528   1.846   3.806   1.849
 9195TIP3   OH227529   6.539   4.172   5.519
 9195TIP3    H127530   6.577   4.257   5.498
 9195TIP3    H227531   6.612   4.122   5.556
 9196TIP3   OH227532   4.857   0.065   4.328
 9196TIP3    H127533   4.947   0.059   4.297
 9196TIP3    H227534   4.833  -0.026   4.349
 9197TIP3   OH227535   1.719   0.574   1.190
 9197TIP3    H127536   1.786   0.604   1.251
 9197TIP3    H227537   1.740   0.482   1.174
 9198TIP3   OH227538   6.076   7.685   4.617
 9198TIP3    H127539   6.126   7.737   4.679
 9198TIP3    H227540   5.992   7.668   4.661
 9199TIP3   OH227541   4.531   2.869   1.425
 9199TIP3    H127542   4.473   2.794   1.415
 9199TIP3    H227543   4.472   2.944   1.435
 9200TIP3   OH227544   0.943   0.914   0.933
 9200TIP3    H127545   0.916   0.988   0.878
 9200TIP3    H227546   0.885   0.843   0.907
 9201TIP3   OH227547   6.032   3.269   2.573
 9201TIP3    H127548   5.998   3.331   2.509
 9201TIP3    H227549   6.063   3.323   2.645
 9202TIP3   OH227550   4.623   1.824   3.668
 9202TIP3    H127551   4.637   1.915   3.643
 9202TIP3    H227552   4.622   1.776   3.585
 9203TIP3   OH227553   7.283   4.146   0.033
 9203TIP3    H127554   7.359   4.187  -0.007
 9203TIP3    H227555   7.283   4.178   0.123
 9204TIP3   OH227556   7.131   2.627   5.767
 9204TIP3    H127557   7.100   2.537   5.761
 9204TIP3    H227558   7.206   2.623   5.825
 9205TIP3   OH227559   8.309   1.138   2.665
 9205TIP3    H127560   8.256   1.100   2.596
 9205TIP3    H227561   8.307   1.074   2.736
 9206TIP3   OH227562   1.798   4.852   2.229
 9206TIP3    H127563   1.852   4.834   2.152
 9206TIP3    H227564   1.709   4.862   2.194
 9207TIP3   OH227565   1.784   3.913   4.802
 9207TIP3    H127566   1.697   3.873   4.806
 9207TIP3    H227567   1.800   3.944   4.891
 9208TIP3   OH227568   6.196   3.157   0.700
 9208TIP3    H127569   6.114   3.109   0.712
 9208TIP3    H227570   6.169   3.242   0.666
 9209TIP3   OH227571   6.458   1.746   1.791
 9209TIP3    H127572   6.533   1.733   1.849
 9209TIP3    H227573   6.489   1.806   1.724
 9210TIP3   OH227574   7.145   3.811   5.508
 9210TIP3    H127575   7.209   3.875   5.539
 9210TIP3    H227576   7.176   3.787   5.420
 9211TIP3   OH227577   2.656   1.539   3.429
 9211TIP3    H127578   2.721   1.560   3.362
 9211TIP3    H227579   2.685   1.588   3.506
 9212TIP3   OH227580   7.547   0.854   5.709
 9212TIP3    H127581   7.549   0.819   5.620
 9212TIP3    H227582   7.506   0.785   5.761
 9213TIP3   OH227583   6.726   2.605   2.403
 9213TIP3    H127584   6.709   2.691   2.365
 9213TIP3    H227585   6.757   2.552   2.330
 9214TIP3   OH227586   1.419   1.236   3.924
 9214TIP3    H127587   1.509   1.211   3.942
 9214TIP3    H227588   1.384   1.264   4.009
 9215TIP3   OH227589   1.397   0.814   1.548
 9215TIP3    H127590   1.466   0.752   1.525
 9215TIP3    H227591   1.441   0.879   1.603
 9216TIP3   OH227592   4.968   0.223   1.825
 9216TIP3    H127593   4.971   0.233   1.920
 9216TIP3    H227594   5.055   0.249   1.796
 9217TIP3   OH227595   5.259   1.319   4.198
 9217TIP3    H127596   5.279   1.257   4.268
 9217TIP3    H227597   5.213   1.390   4.243
 9218TIP3   OH227598   4.126   7.398   5.984
 9218TIP3    H127599   4.199   7.426   5.929
 9218TIP3    H227600   4.144   7.305   6.001
 9219TIP3   OH227601   0.654   2.730   0.636
 9219TIP3    H127602   0.566   2.746   0.669
 9219TIP3    H227603   0.712   2.753   0.708
 9220TIP3   OH227604   3.770   7.500   5.014
 9220TIP3    H127605   3.816   7.492   4.930
 9220TIP3    H227606   3.837   7.527   5.076
 9221TIP3   OH227607   6.155   4.060   3.938
 9221TIP3    H127608   6.063   4.036   3.943
 9221TIP3    H227609   6.186   4.051   4.028
 9222TIP3   OH227610   2.712   3.544   1.702
 9222TIP3    H127611   2.667   3.627   1.690
 9222TIP3    H227612   2.741   3.520   1.614
 9223TIP3   OH227613   7.125   7.330   6.198
 9223TIP3    H127614   7.151   7.306   6.287
 9223TIP3    H227615   7.116   7.246   6.152
 9224TIP3   OH227616   2.608   6.234   0.858
 9224TIP3    H127617   2.580   6.171   0.792
 9224TIP3    H227618   2.569   6.201   0.940
 9225TIP3   OH227619   5.469   0.408   2.267
 9225TIP3    H127620   5.382   0.439   2.242
 9225TIP3    H227621   5.488   0.451   2.350
 9226TIP3   OH227622   2.183   7.222   2.249
 9226TIP3    H127623   2.166   7.308   2.210
 9226TIP3    H227624   2.176   7.161   2.176
 9227TIP3   OH227625   1.699   6.999   5.108
 9227TIP3    H127626   1.660   6.983   5.194
 9227TIP3    H227627   1.789   7.024   5.127
 9228TIP3   OH227628   5.482   7.629   6.385
 9228TIP3    H127629   5.390   7.650   6.404
 9228TIP3    H227630   5.502   7.680   6.306
 9229TIP3   OH227631   4.072   0.204   0.314
 9229TIP3    H127632   3.993   0.225   0.265
 9229TIP3    H227633   4.143   0.246   0.266
 9230TIP3   OH227634   6.676   2.664   1.454
 9230TIP3    H127635   6.750   2.627   1.501
 9230TIP3    H227636   6.610   2.681   1.521
 9231TIP3   OH227637   0.200   4.949   5.897
 9231TIP3    H127638   0.264   5.014   5.928
 9231TIP3    H227639   0.129   5.001   5.862
 9232TIP3   OH227640   0.617   2.091   2.807
 9232TIP3    H127641   0.534   2.051   2.833
 9232TIP3    H227642   0.665   2.021   2.762
 9233TIP3   OH227643   2.455   2.694   2.543
 9233TIP3    H127644   2.528   2.755   2.548
 9233TIP3    H227645   2.453   2.667   2.451
 9234TIP3   OH227646   5.355   4.022   3.871
 9234TIP3    H127647   5.419   4.081   3.832
 9234TIP3    H227648   5.311   3.981   3.797
 9235TIP3   OH227649   2.654   0.182   0.306
 9235TIP3    H127650   2.678   0.193   0.398
 9235TIP3    H227651   2.561   0.207   0.303
 9236TIP3   OH227652   4.580   0.633   1.010
 9236TIP3    H127653   4.566   0.545   1.045
 9236TIP3    H227654   4.594   0.619   0.916
 9237TIP3   OH227655   4.943   2.674   1.628
 9237TIP3    H127656   4.980   2.712   1.548
 9237TIP3    H227657   4.932   2.581   1.608
 9238TIP3   OH227658   7.780   4.371   6.357
 9238TIP3    H127659   7.747   4.319   6.430
 9238TIP3    H227660   7.780   4.311   6.283
 9239TIP3   OH227661   2.766   6.814   5.668
 9239TIP3    H127662   2.781   6.829   5.761
 9239TIP3    H227663   2.767   6.902   5.629
 9240TIP3   OH227664   4.123   6.215   2.666
 9240TIP3    H127665   4.047   6.182   2.618
 9240TIP3    H227666   4.143   6.147   2.730
 9241TIP3   OH227667   4.125   3.782   0.043
 9241TIP3    H127668   4.181   3.840  -0.009
 9241TIP3    H227669   4.038   3.790   0.004
 9242TIP3   OH227670   5.838   1.429   0.107
 9242TIP3    H127671   5.768   1.364   0.101
 9242TIP3    H227672   5.795   1.512   0.089
 9243TIP3   OH227673   6.049   4.092   1.471
 9243TIP3    H127674   6.085   4.004   1.482
 9243TIP3    H227675   5.978   4.098   1.535
 9244TIP3   OH227676   4.625   1.074   5.936
 9244TIP3    H127677   4.559   1.018   5.895
 9244TIP3    H227678   4.683   1.013   5.982
 9245TIP3   OH227679   6.780   4.109   3.794
 9245TIP3    H127680   6.699   4.117   3.744
 9245TIP3    H227681   6.766   4.161   3.873
 9246TIP3   OH227682   7.747   6.500   1.122
 9246TIP3    H127683   7.716   6.558   1.192
 9246TIP3    H227684   7.801   6.435   1.167
 9247TIP3   OH227685   1.873   0.662   1.385
 9247TIP3    H127686   1.912   0.575   1.380
 9247TIP3    H227687   1.902   0.697   1.469
 9248TIP3   OH227688   7.874   1.630   0.992
 9248TIP3    H127689   7.803   1.572   0.964
 9248TIP3    H227690   7.832   1.693   1.051
 9249TIP3   OH227691   0.237   3.928   0.894
 9249TIP3    H127692   0.281   3.924   0.809
 9249TIP3    H227693   0.293   3.982   0.949
 9250TIP3   OH227694   2.480   7.425   2.351
 9250TIP3    H127695   2.505   7.455   2.264
 9250TIP3    H227696   2.419   7.491   2.383
 9251TIP3   OH227697   2.387   1.363   3.264
 9251TIP3    H127698   2.384   1.452   3.298
 9251TIP3    H227699   2.481   1.340   3.265
 9252TIP3   OH227700   0.366   0.332   0.814
 9252TIP3    H127701   0.307   0.378   0.874
 9252TIP3    H227702   0.377   0.245   0.853
 9253TIP3   OH227703   7.140   5.318   2.710
 9253TIP3    H127704   7.163   5.360   2.793
 9253TIP3    H227705   7.224   5.299   2.668
 9254TIP3   OH227706   0.706   1.635   2.720
 9254TIP3    H127707   0.724   1.725   2.694
 9254TIP3    H227708   0.689   1.589   2.638
 9255TIP3   OH227709   4.378   7.498   5.844
 9255TIP3    H127710   4.387   7.451   5.761
 9255TIP3    H227711   4.454   7.470   5.896
 9256TIP3   OH227712   5.621   1.540   6.064
 9256TIP3    H127713   5.575   1.550   5.980
 9256TIP3    H227714   5.682   1.468   6.048
 9257TIP3   OH227715   4.662   4.502   3.020
 9257TIP3    H127716   4.645   4.594   3.040
 9257TIP3    H227717   4.609   4.485   2.942
 9258TIP3   OH227718   8.018   6.237   2.408
 9258TIP3    H127719   7.989   6.261   2.320
 9258TIP3    H227720   8.112   6.221   2.399
 9259TIP3   OH227721   1.072   2.209   1.373
 9259TIP3    H127722   1.035   2.296   1.356
 9259TIP3    H227723   1.157   2.227   1.414
 9260TIP3   OH227724   6.688   7.670   1.630
 9260TIP3    H127725   6.716   7.753   1.592
 9260TIP3    H227726   6.613   7.693   1.685
 9261TIP3   OH227727   2.802   6.930   1.794
 9261TIP3    H127728   2.810   6.874   1.872
 9261TIP3    H227729   2.764   7.011   1.827
 9262TIP3   OH227730   3.803   2.489   4.054
 9262TIP3    H127731   3.756   2.509   3.973
 9262TIP3    H227732   3.748   2.525   4.124
 9263TIP3   OH227733   1.540   5.773   3.599
 9263TIP3    H127734   1.464   5.766   3.541
 9263TIP3    H227735   1.545   5.866   3.620
 9264TIP3   OH227736   3.153   4.407   5.814
 9264TIP3    H127737   3.198   4.349   5.752
 9264TIP3    H227738   3.112   4.348   5.877
 9265TIP3   OH227739   1.301   4.568   2.713
 9265TIP3    H127740   1.308   4.663   2.699
 9265TIP3    H227741   1.352   4.552   2.793
 9266TIP3   OH227742   0.048   6.108   3.827
 9266TIP3    H127743   0.000   6.144   3.902
 9266TIP3    H227744   0.138   6.138   3.840
 9267TIP3   OH227745   0.533   0.827   4.395
 9267TIP3    H127746   0.548   0.774   4.473
 9267TIP3    H227747   0.621   0.855   4.369
 9268TIP3   OH227748   7.939   2.618   3.616
 9268TIP3    H127749   7.846   2.630   3.595
 9268TIP3    H227750   7.941   2.543   3.676
 9269TIP3   OH227751   5.831   6.128   5.768
 9269TIP3    H127752   5.902   6.188   5.744
 9269TIP3    H227753   5.754   6.184   5.775
 9270TIP3   OH227754   5.131   4.088   0.108
 9270TIP3    H127755   5.168   4.137   0.035
 9270TIP3    H227756   5.203   4.032   0.138
 9271TIP3   OH227757   5.200   4.126   6.295
 9271TIP3    H127758   5.177   4.053   6.238
 9271TIP3    H227759   5.262   4.178   6.243
 9272TIP3   OH227760   7.977   7.180   3.778
 9272TIP3    H127761   7.909   7.123   3.743
 9272TIP3    H227762   8.057   7.127   3.773
 9273TIP3   OH227763   4.255   6.346   6.272
 9273TIP3    H127764   4.232   6.254   6.258
 9273TIP3    H227765   4.349   6.350   6.257
 9274TIP3   OH227766   6.006   2.653   1.204
 9274TIP3    H127767   6.053   2.635   1.122
 9274TIP3    H227768   5.914   2.646   1.181
 9275TIP3   OH227769   5.339   6.666   2.972
 9275TIP3    H127770   5.401   6.700   3.036
 9275TIP3    H227771   5.265   6.726   2.976
 9276TIP3   OH227772   6.985   2.740   0.510
 9276TIP3    H127773   7.031   2.823   0.501
 9276TIP3    H227774   7.047   2.675   0.475
 9277TIP3   OH227775   6.889   2.851   3.427
 9277TIP3    H127776   6.954   2.853   3.497
 9277TIP3    H227777   6.921   2.784   3.366
 9278TIP3   OH227778   5.528   3.740   4.661
 9278TIP3    H127779   5.442   3.768   4.692
 9278TIP3    H227780   5.520   3.739   4.565
 9279TIP3   OH227781   6.803   2.469   5.717
 9279TIP3    H127782   6.764   2.478   5.804
 9279TIP3    H227783   6.891   2.435   5.734
 9280TIP3   OH227784   7.985   0.807   3.342
 9280TIP3    H127785   7.969   0.758   3.423
 9280TIP3    H227786   7.993   0.898   3.370
 9281TIP3   OH227787   4.123   1.894   1.996
 9281TIP3    H127788   4.055   1.833   1.967
 9281TIP3    H227789   4.080   1.979   2.002
 9282TIP3   OH227790   0.538   6.004   6.737
 9282TIP3    H127791   0.550   5.974   6.647
 9282TIP3    H227792   0.537   5.924   6.789
 9283TIP3   OH227793   1.189   6.248   6.761
 9283TIP3    H127794   1.139   6.218   6.837
 9283TIP3    H227795   1.191   6.344   6.770
 9284TIP3   OH227796   4.715   3.776   5.405
 9284TIP3    H127797   4.766   3.853   5.429
 9284TIP3    H227798   4.757   3.742   5.326
 9285TIP3   OH227799   0.143   7.030   3.916
 9285TIP3    H127800   0.083   6.979   3.971
 9285TIP3    H227801   0.147   7.116   3.959
 9286TIP3   OH227802   2.920   6.097   1.378
 9286TIP3    H127803   2.842   6.110   1.433
 9286TIP3    H227804   2.939   6.185   1.345
 9287TIP3   OH227805   4.406   0.190   4.070
 9287TIP3    H127806   4.490   0.143   4.069
 9287TIP3    H227807   4.430   0.282   4.055
 9288TIP3   OH227808   3.506   0.635   5.683
 9288TIP3    H127809   3.567   0.619   5.755
 9288TIP3    H227810   3.425   0.592   5.711
 9289TIP3   OH227811   2.267   4.939   3.505
 9289TIP3    H127812   2.178   4.904   3.494
 9289TIP3    H227813   2.319   4.865   3.534
 9290TIP3   OH227814   6.707   4.971   2.709
 9290TIP3    H127815   6.781   5.032   2.705
 9290TIP3    H227816   6.669   4.984   2.796
 9291TIP3   OH227817   3.114   3.173   1.679
 9291TIP3    H127818   3.094   3.175   1.773
 9291TIP3    H227819   3.030   3.185   1.636
 9292TIP3   OH227820   4.334   3.401   3.642
 9292TIP3    H127821   4.260   3.458   3.664
 9292TIP3    H227822   4.314   3.318   3.685
 9293TIP3   OH227823   3.226   4.175   4.522
 9293TIP3    H127824   3.223   4.271   4.512
 9293TIP3    H227825   3.143   4.144   4.487
 9294TIP3   OH227826   2.381   6.937   4.273
 9294TIP3    H127827   2.409   7.028   4.270
 9294TIP3    H227828   2.379   6.909   4.182
 9295TIP3   OH227829   4.672   5.638   6.068
 9295TIP3    H127830   4.589   5.646   6.020
 9295TIP3    H227831   4.647   5.648   6.160
 9296TIP3   OH227832   1.594   3.873   3.333
 9296TIP3    H127833   1.620   3.950   3.383
 9296TIP3    H227834   1.661   3.807   3.353
 9297TIP3   OH227835   8.089   2.377   3.990
 9297TIP3    H127836   8.157   2.377   4.058
 9297TIP3    H227837   8.030   2.307   4.015
 9298TIP3   OH227838   4.648   6.475   0.758
 9298TIP3    H127839   4.684   6.453   0.844
 9298TIP3    H227840   4.557   6.446   0.762
 9299TIP3   OH227841   8.273   6.292   5.258
 9299TIP3    H127842   8.195   6.330   5.218
 9299TIP3    H227843   8.249   6.200   5.272
 9300TIP3   OH227844   0.079   3.669   3.241
 9300TIP3    H127845   0.071   3.594   3.300
 9300TIP3    H227846   0.154   3.718   3.275
 9301TIP3   OH227847   0.553   7.479   4.428
 9301TIP3    H127848   0.622   7.473   4.362
 9301TIP3    H227849   0.531   7.388   4.448
 9302TIP3   OH227850   3.413   7.766   0.191
 9302TIP3    H127851   3.461   7.848   0.185
 9302TIP3    H227852   3.470   7.708   0.242
 9303TIP3   OH227853   6.861   4.847   3.356
 9303TIP3    H127854   6.955   4.835   3.351
 9303TIP3    H227855   6.842   4.921   3.299
 9304TIP3   OH227856   2.491   4.531   3.410
 9304TIP3    H127857   2.485   4.515   3.316
 9304TIP3    H227858   2.524   4.620   3.418
 9305TIP3   OH227859   8.169   7.487   3.100
 9305TIP3    H127860   8.196   7.543   3.027
 9305TIP3    H227861   8.234   7.502   3.168
 9306TIP3   OH227862   1.900   0.839   4.608
 9306TIP3    H127863   1.889   0.816   4.701
 9306TIP3    H227864   1.993   0.859   4.599
 9307TIP3   OH227865   7.355   5.406   4.683
 9307TIP3    H127866   7.307   5.448   4.754
 9307TIP3    H227867   7.340   5.312   4.697
 9308TIP3   OH227868   1.052   0.622   0.802
 9308TIP3    H127869   0.974   0.633   0.856
 9308TIP3    H227870   1.093   0.543   0.836
 9309TIP3   OH227871   0.072   6.721   3.069
 9309TIP3    H127872   0.056   6.716   3.163
 9309TIP3    H227873   0.148   6.665   3.054
 9310TIP3   OH227874   0.565   3.662   1.758
 9310TIP3    H127875   0.473   3.643   1.741
 9310TIP3    H227876   0.590   3.721   1.687
 9311TIP3   OH227877   1.302   1.556   3.172
 9311TIP3    H127878   1.260   1.599   3.247
 9311TIP3    H227879   1.379   1.513   3.208
 9312TIP3   OH227880   6.414   0.046   6.198
 9312TIP3    H127881   6.464   0.093   6.131
 9312TIP3    H227882   6.417  -0.045   6.170
 9313TIP3   OH227883   7.866   6.332   3.591
 9313TIP3    H127884   7.863   6.391   3.516
 9313TIP3    H227885   7.855   6.245   3.554
 9314TIP3   OH227886   1.899   5.838   2.581
 9314TIP3    H127887   1.941   5.889   2.650
 9314TIP3    H227888   1.972   5.810   2.525
 9315TIP3   OH227889   5.691   6.893   3.216
 9315TIP3    H127890   5.603   6.906   3.180
 9315TIP3    H227891   5.707   6.799   3.208
 9316TIP3   OH227892   0.967   4.529   3.536
 9316TIP3    H127893   1.028   4.592   3.573
 9316TIP3    H227894   1.001   4.443   3.563
 9317TIP3   OH227895   7.672   3.063   0.337
 9317TIP3    H127896   7.735   3.100   0.275
 9317TIP3    H227897   7.682   3.116   0.416
 9318TIP3   OH227898   3.476   3.371   0.977
 9318TIP3    H127899   3.390   3.413   0.978
 9318TIP3    H227900   3.529   3.427   0.920
 9319TIP3   OH227901   6.926   5.386   4.136
 9319TIP3    H127902   6.847   5.345   4.102
 9319TIP3    H227903   6.909   5.480   4.128
 9320TIP3   OH227904   7.302   6.947   1.661
 9320TIP3    H127905   7.271   6.917   1.746
 9320TIP3    H227906   7.297   7.043   1.666
 9321TIP3   OH227907   1.341   7.083   4.911
 9321TIP3    H127908   1.284   7.008   4.896
 9321TIP3    H227909   1.329   7.104   5.004
 9322TIP3   OH227910   8.170   4.540   3.259
 9322TIP3    H127911   8.154   4.607   3.325
 9322TIP3    H227912   8.254   4.563   3.220
 9323TIP3   OH227913   6.640   0.609   0.565
 9323TIP3    H127914   6.714   0.558   0.530
 9323TIP3    H227915   6.621   0.568   0.650
 9324TIP3   OH227916   0.933   4.720   3.821
 9324TIP3    H127917   0.858   4.662   3.832
 9324TIP3    H227918   1.008   4.661   3.811
 9325TIP3   OH227919   6.824   3.036   0.415
 9325TIP3    H127920   6.865   3.089   0.483
 9325TIP3    H227921   6.789   2.960   0.462
 9326TIP3   OH227922   5.532   0.577   0.655
 9326TIP3    H127923   5.625   0.591   0.639
 9326TIP3    H227924   5.529   0.510   0.723
 9327TIP3   OH227925   0.707   6.881   2.186
 9327TIP3    H127926   0.790   6.872   2.233
 9327TIP3    H227927   0.732   6.879   2.094
 9328TIP3   OH227928   0.563   5.859   2.026
 9328TIP3    H127929   0.638   5.905   2.063
 9328TIP3    H227930   0.487   5.908   2.058
 9329TIP3   OH227931   3.058   1.012   6.453
 9329TIP3    H127932   3.025   0.949   6.389
 9329TIP3    H227933   2.984   1.069   6.471
 9330TIP3   OH227934   0.007   2.086   2.844
 9330TIP3    H127935   0.076   2.100   2.908
 9330TIP3    H227936   0.016   1.995   2.818
 9331TIP3   OH227937   4.079   2.476   4.985
 9331TIP3    H127938   4.006   2.418   4.966
 9331TIP3    H227939   4.070   2.497   5.078
 9332TIP3   OH227940   7.858   6.969   4.275
 9332TIP3    H127941   7.777   6.952   4.324
 9332TIP3    H227942   7.910   6.890   4.287
 9333TIP3   OH227943   7.540   2.169   1.677
 9333TIP3    H127944   7.533   2.263   1.691
 9333TIP3    H227945   7.591   2.161   1.596
 9334TIP3   OH227946   3.665   7.724   1.576
 9334TIP3    H127947   3.749   7.731   1.531
 9334TIP3    H227948   3.663   7.799   1.636
 9335TIP3   OH227949   7.785   5.945   2.773
 9335TIP3    H127950   7.705   5.896   2.789
 9335TIP3    H227951   7.850   5.907   2.832
 9336TIP3   OH227952   7.049   6.787   5.590
 9336TIP3    H127953   7.001   6.707   5.613
 9336TIP3    H227954   6.982   6.855   5.590
 9337TIP3   OH227955   6.132   2.487   0.894
 9337TIP3    H127956   6.201   2.477   0.959
 9337TIP3    H227957   6.094   2.573   0.912
 9338TIP3   OH227958   5.218   1.384   2.234
 9338TIP3    H127959   5.127   1.409   2.219
 9338TIP3    H227960   5.227   1.384   2.329
 9339TIP3   OH227961   7.206   1.459   6.116
 9339TIP3    H127962   7.199   1.418   6.202
 9339TIP3    H227963   7.236   1.548   6.134
 9340TIP3   OH227964   0.377   2.319   4.000
 9340TIP3    H127965   0.466   2.286   4.010
 9340TIP3    H227966   0.322   2.240   4.001
 9341TIP3   OH227967   6.267   5.910   3.084
 9341TIP3    H127968   6.232   5.998   3.095
 9341TIP3    H227969   6.356   5.924   3.051
 9342TIP3   OH227970   1.547   0.852   5.527
 9342TIP3    H127971   1.511   0.848   5.615
 9342TIP3    H227972   1.614   0.784   5.525
 9343TIP3   OH227973   2.875   0.521   5.712
 9343TIP3    H127974   2.898   0.511   5.620
 9343TIP3    H227975   2.940   0.582   5.747
 9344TIP3   OH227976   5.920   7.593   5.338
 9344TIP3    H127977   5.906   7.681   5.373
 9344TIP3    H227978   5.892   7.534   5.408
 9345TIP3   OH227979   0.256   0.603   6.483
 9345TIP3    H127980   0.238   0.521   6.528
 9345TIP3    H227981   0.253   0.580   6.390
 9346TIP3   OH227982   0.786   6.875   1.919
 9346TIP3    H127983   0.781   6.921   1.835
 9346TIP3    H227984   0.792   6.783   1.895
 9347TIP3   OH227985   8.073   5.688   4.758
 9347TIP3    H127986   8.100   5.643   4.678
 9347TIP3    H227987   8.143   5.751   4.775
 9348TIP3   OH227988   2.348   3.634   1.164
 9348TIP3    H127989   2.289   3.599   1.231
 9348TIP3    H227990   2.414   3.683   1.213
 9349TIP3   OH227991   4.548   6.271   3.387
 9349TIP3    H127992   4.453   6.283   3.386
 9349TIP3    H227993   4.584   6.359   3.394
 9350TIP3   OH227994   7.283   0.983   4.264
 9350TIP3    H127995   7.295   1.077   4.277
 9350TIP3    H227996   7.244   0.952   4.346
 9351TIP3   OH227997   4.961   6.552   5.912
 9351TIP3    H127998   4.896   6.497   5.956
 9351TIP3    H227999   5.039   6.544   5.966
 9352TIP3   OH228000   3.749   7.803   4.957
 9352TIP3    H128001   3.841   7.806   4.984
 9352TIP3    H228002   3.721   7.713   4.976
 9353TIP3   OH228003   5.658   4.080   6.055
 9353TIP3    H128004   5.652   4.083   6.150
 9353TIP3    H228005   5.587   4.021   6.028
 9354TIP3   OH228006   6.365   6.375   4.184
 9354TIP3    H128007   6.411   6.429   4.248
 9354TIP3    H228008   6.291   6.429   4.155
 9355TIP3   OH228009   7.732   1.247   2.697
 9355TIP3    H128010   7.655   1.193   2.712
 9355TIP3    H228011   7.785   1.235   2.776
 9356TIP3   OH228012   1.656   3.538   4.951
 9356TIP3    H128013   1.725   3.543   5.018
 9356TIP3    H228014   1.654   3.625   4.912
 9357TIP3   OH228015   1.415   7.248   3.925
 9357TIP3    H128016   1.467   7.291   3.857
 9357TIP3    H228017   1.333   7.226   3.882
 9358TIP3   OH228018   5.702   4.395   4.425
 9358TIP3    H128019   5.609   4.393   4.451
 9358TIP3    H228020   5.738   4.313   4.457
 9359TIP3   OH228021   0.241   2.647   2.312
 9359TIP3    H128022   0.255   2.623   2.404
 9359TIP3    H228023   0.236   2.564   2.266
 9360TIP3   OH228024   3.161   0.116   1.315
 9360TIP3    H128025   3.223   0.074   1.255
 9360TIP3    H228026   3.099   0.047   1.339
 9361TIP3   OH228027   3.619   5.069   2.130
 9361TIP3    H128028   3.675   5.006   2.084
 9361TIP3    H228029   3.555   5.015   2.176
 9362TIP3   OH228030   5.521   2.226   3.684
 9362TIP3    H128031   5.529   2.321   3.679
 9362TIP3    H228032   5.574   2.201   3.761
 9363TIP3   OH228033   2.139   3.247   1.241
 9363TIP3    H128034   2.056   3.204   1.261
 9363TIP3    H228035   2.114   3.325   1.191
 9364TIP3   OH228036   5.627   3.693   6.295
 9364TIP3    H128037   5.549   3.743   6.317
 9364TIP3    H228038   5.700   3.747   6.327
 9365TIP3   OH228039   8.235   0.143   6.728
 9365TIP3    H128040   8.201   0.064   6.770
 9365TIP3    H228041   8.296   0.179   6.793
 9366TIP3   OH228042   3.289   4.571   3.446
 9366TIP3    H128043   3.275   4.666   3.450
 9366TIP3    H228044   3.374   4.561   3.403
 9367TIP3   OH228045   2.893   1.262   6.742
 9367TIP3    H128046   2.955   1.325   6.705
 9367TIP3    H228047   2.867   1.208   6.668
 9368TIP3   OH228048   3.380   4.038   1.065
 9368TIP3    H128049   3.441   3.977   1.023
 9368TIP3    H228050   3.433   4.117   1.080
 9369TIP3   OH228051   5.753   3.886   4.717
 9369TIP3    H128052   5.810   3.833   4.773
 9369TIP3    H228053   5.680   3.828   4.694
 9370TIP3   OH228054   6.338   4.648   3.734
 9370TIP3    H128055   6.312   4.721   3.789
 9370TIP3    H228056   6.395   4.687   3.667
 9371TIP3   OH228057   7.711   7.142   0.597
 9371TIP3    H128058   7.736   7.142   0.505
 9371TIP3    H228059   7.619   7.113   0.597
 9372TIP3   OH228060   7.712   4.090   0.985
 9372TIP3    H128061   7.782   4.121   0.928
 9372TIP3    H228062   7.684   4.168   1.033
 9373TIP3   OH228063   3.553   2.349   5.236
 9373TIP3    H128064   3.620   2.304   5.289
 9373TIP3    H228065   3.527   2.285   5.170
 9374TIP3   OH228066   3.060   1.829   3.129
 9374TIP3    H128067   3.050   1.814   3.035
 9374TIP3    H228068   2.971   1.849   3.159
 9375TIP3   OH228069   3.591   0.231   0.318
 9375TIP3    H128070   3.648   0.294   0.274
 9375TIP3    H228071   3.638   0.147   0.313
 9376TIP3   OH228072   6.756   2.625   6.456
 9376TIP3    H128073   6.799   2.559   6.511
 9376TIP3    H228074   6.682   2.655   6.509
 9377TIP3   OH228075   0.117   0.273   3.598
 9377TIP3    H128076   0.073   0.346   3.640
 9377TIP3    H228077   0.196   0.311   3.559
 9378TIP3   OH228078   0.439   3.409   0.733
 9378TIP3    H128079   0.433   3.376   0.644
 9378TIP3    H228080   0.396   3.343   0.787
 9379TIP3   OH228081   7.204   0.096   3.732
 9379TIP3    H128082   7.109   0.082   3.736
 9379TIP3    H228083   7.217   0.183   3.770
 9380TIP3   OH228084   6.435   6.344   0.893
 9380TIP3    H128085   6.340   6.352   0.885
 9380TIP3    H228086   6.450   6.251   0.911
 9381TIP3   OH228087   7.828   1.797   1.839
 9381TIP3    H128088   7.911   1.749   1.835
 9381TIP3    H228089   7.851   1.881   1.880
 9382TIP3   OH228090   3.935   1.018   1.465
 9382TIP3    H128091   4.015   1.000   1.516
 9382TIP3    H228092   3.866   1.023   1.531
 9383TIP3   OH228093   4.016   6.068   3.706
 9383TIP3    H128094   4.063   5.984   3.701
 9383TIP3    H228095   4.074   6.130   3.660
 9384TIP3   OH228096   3.534   6.060   2.586
 9384TIP3    H128097   3.539   5.969   2.617
 9384TIP3    H228098   3.461   6.098   2.635
 9385TIP3   OH228099   2.161   4.241   5.721
 9385TIP3    H128100   2.141   4.287   5.640
 9385TIP3    H228101   2.163   4.310   5.788
 9386TIP3   OH228102   4.233   6.110   5.283
 9386TIP3    H128103   4.277   6.112   5.368
 9386TIP3    H228104   4.262   6.190   5.239
 9387TIP3   OH228105   5.151   1.877   2.452
 9387TIP3    H128106   5.166   1.801   2.507
 9387TIP3    H228107   5.149   1.951   2.514
 9388TIP3   OH228108   6.479   1.175   4.971
 9388TIP3    H128109   6.405   1.135   5.016
 9388TIP3    H228110   6.556   1.141   5.016
 9389TIP3   OH228111   3.869   0.650   5.730
 9389TIP3    H128112   3.893   0.563   5.761
 9389TIP3    H228113   3.834   0.694   5.808
 9390TIP3   OH228114   1.383   5.839   5.973
 9390TIP3    H128115   1.474   5.864   5.988
 9390TIP3    H228116   1.374   5.838   5.877
 9391TIP3   OH228117   1.733   2.314   3.820
 9391TIP3    H128118   1.815   2.328   3.773
 9391TIP3    H228119   1.741   2.226   3.857
 9392TIP3   OH228120   1.244   2.649   3.595
 9392TIP3    H128121   1.191   2.626   3.519
 9392TIP3    H228122   1.219   2.586   3.662
 9393TIP3   OH228123   6.325   6.956   1.739
 9393TIP3    H128124   6.331   7.052   1.736
 9393TIP3    H228125   6.396   6.930   1.798
 9394TIP3   OH228126   2.514   3.609   2.169
 9394TIP3    H128127   2.578   3.545   2.200
 9394TIP3    H228128   2.543   3.692   2.207
 9395TIP3   OH228129   1.465   5.621   2.494
 9395TIP3    H128130   1.543   5.632   2.548
 9395TIP3    H228131   1.480   5.540   2.446
 9396TIP3   OH228132   5.101   4.668   0.804
 9396TIP3    H128133   5.122   4.758   0.829
 9396TIP3    H228134   5.175   4.639   0.751
 9397TIP3   OH228135   0.089   3.280   5.387
 9397TIP3    H128136   0.158   3.327   5.434
 9397TIP3    H228137   0.117   3.189   5.387
 9398TIP3   OH228138   8.334   6.007   0.825
 9398TIP3    H128139   8.292   5.993   0.740
 9398TIP3    H228140   8.294   5.941   0.882
 9399TIP3   OH228141   7.694   0.978   6.703
 9399TIP3    H128142   7.704   0.887   6.730
 9399TIP3    H228143   7.716   0.978   6.610
 9400TIP3   OH228144   1.202   2.563   3.077
 9400TIP3    H128145   1.248   2.611   3.146
 9400TIP3    H228146   1.112   2.556   3.109
 9401TIP3   OH228147   3.477   5.286   6.013
 9401TIP3    H128148   3.557   5.292   6.066
 9401TIP3    H228149   3.448   5.196   6.023
 9402TIP3   OH228150   7.893   5.723   4.305
 9402TIP3    H128151   7.954   5.787   4.341
 9402TIP3    H228152   7.819   5.775   4.273
 9403TIP3   OH228153   0.201   5.539   0.403
 9403TIP3    H128154   0.217   5.456   0.448
 9403TIP3    H228155   0.153   5.514   0.324
 9404TIP3   OH228156   0.227   5.377   5.274
 9404TIP3    H128157   0.217   5.345   5.185
 9404TIP3    H228158   0.220   5.472   5.268
 9405TIP3   OH228159   0.259   3.827   4.576
 9405TIP3    H128160   0.249   3.733   4.558
 9405TIP3    H228161   0.323   3.857   4.512
 9406TIP3   OH228162   3.886   3.703   3.794
 9406TIP3    H128163   3.792   3.722   3.793
 9406TIP3    H228164   3.922   3.757   3.864
 9407TIP3   OH228165   3.593   5.401   1.620
 9407TIP3    H128166   3.579   5.347   1.542
 9407TIP3    H228167   3.561   5.348   1.692
 9408TIP3   OH228168   0.192   3.430   6.070
 9408TIP3    H128169   0.216   3.523   6.068
 9408TIP3    H228170   0.246   3.390   6.002
 9409TIP3   OH228171   0.866   2.854   4.338
 9409TIP3    H128172   0.776   2.829   4.356
 9409TIP3    H228173   0.860   2.941   4.299
 9410TIP3   OH228174   1.403   1.270   4.506
 9410TIP3    H128175   1.453   1.274   4.587
 9410TIP3    H228176   1.358   1.186   4.509
 9411TIP3   OH228177   6.475   3.860   5.670
 9411TIP3    H128178   6.437   3.818   5.747
 9411TIP3    H228179   6.490   3.789   5.608
 9412TIP3   OH228180   6.983   2.536   0.776
 9412TIP3    H128181   7.073   2.517   0.749
 9412TIP3    H228182   6.964   2.621   0.736
 9413TIP3   OH228183   6.309   1.137   5.259
 9413TIP3    H128184   6.333   1.158   5.350
 9413TIP3    H228185   6.284   1.221   5.221
 9414TIP3   OH228186   2.727   5.223   1.238
 9414TIP3    H128187   2.754   5.196   1.326
 9414TIP3    H228188   2.702   5.142   1.194
 9415TIP3   OH228189   4.206   4.221   2.225
 9415TIP3    H128190   4.140   4.168   2.181
 9415TIP3    H228191   4.224   4.173   2.307
 9416TIP3   OH228192   7.027   4.726   2.695
 9416TIP3    H128193   6.949   4.737   2.641
 9416TIP3    H228194   7.022   4.797   2.759
 9417TIP3   OH228195   3.020   2.826   0.450
 9417TIP3    H128196   2.941   2.874   0.424
 9417TIP3    H228197   2.988   2.738   0.470
 9418TIP3   OH228198   1.160   6.693   1.758
 9418TIP3    H128199   1.166   6.702   1.663
 9418TIP3    H228200   1.244   6.655   1.784
 9419TIP3   OH228201   3.675   1.028   6.615
 9419TIP3    H128202   3.740   1.094   6.593
 9419TIP3    H228203   3.594   1.059   6.574
 9420TIP3   OH228204   6.099   7.704   5.577
 9420TIP3    H128205   6.003   7.713   5.576
 9420TIP3    H228206   6.119   7.669   5.663
 9421TIP3   OH228207   1.216   6.488   2.646
 9421TIP3    H128208   1.182   6.558   2.701
 9421TIP3    H228209   1.150   6.418   2.652
 9422TIP3   OH228210   0.443   5.711   0.126
 9422TIP3    H128211   0.491   5.635   0.093
 9422TIP3    H228212   0.360   5.710   0.078
 9423TIP3   OH228213   7.131   6.311   0.412
 9423TIP3    H128214   7.133   6.229   0.363
 9423TIP3    H228215   7.205   6.305   0.472
 9424TIP3   OH228216   2.624   2.067   2.029
 9424TIP3    H128217   2.625   2.025   1.943
 9424TIP3    H228218   2.679   2.010   2.084
 9425TIP3   OH228219   2.091   0.576   4.796
 9425TIP3    H128220   2.173   0.622   4.808
 9425TIP3    H228221   2.113   0.500   4.743
 9426TIP3   OH228222   3.002   0.071   2.962
 9426TIP3    H128223   2.957   0.002   3.012
 9426TIP3    H228224   3.092   0.069   2.994
 9427TIP3   OH228225   6.300   5.288   4.779
 9427TIP3    H128226   6.209   5.263   4.765
 9427TIP3    H228227   6.329   5.325   4.696
 9428TIP3   OH228228   6.905   7.517   5.046
 9428TIP3    H128229   6.995   7.543   5.026
 9428TIP3    H228230   6.880   7.573   5.119
 9429TIP3   OH228231   5.882   7.091   3.254
 9429TIP3    H128232   5.950   7.036   3.292
 9429TIP3    H228233   5.805   7.034   3.248
 9430TIP3   OH228234   5.510   1.621   0.672
 9430TIP3    H128235   5.524   1.627   0.766
 9430TIP3    H228236   5.450   1.547   0.661
 9431TIP3   OH228237   2.247   2.028   4.361
 9431TIP3    H128238   2.255   2.123   4.357
 9431TIP3    H228239   2.298   1.997   4.286
 9432TIP3   OH228240   5.239   5.159   1.454
 9432TIP3    H128241   5.288   5.215   1.394
 9432TIP3    H228242   5.284   5.074   1.450
 9433TIP3   OH228243   5.758   2.646   5.937
 9433TIP3    H128244   5.785   2.727   5.979
 9433TIP3    H228245   5.840   2.601   5.916
 9434TIP3   OH228246   1.129   7.181   4.400
 9434TIP3    H128247   1.094   7.105   4.353
 9434TIP3    H228248   1.051   7.233   4.421
 9435TIP3   OH228249   1.311   7.162   2.889
 9435TIP3    H128250   1.394   7.117   2.902
 9435TIP3    H228251   1.321   7.208   2.805
 9436TIP3   OH228252   2.706   3.421   6.058
 9436TIP3    H128253   2.719   3.514   6.037
 9436TIP3    H228254   2.675   3.421   6.149
 9437TIP3   OH228255   6.217   0.251   3.866
 9437TIP3    H128256   6.146   0.209   3.916
 9437TIP3    H228257   6.236   0.331   3.915
 9438TIP3   OH228258   2.266   5.282   5.140
 9438TIP3    H128259   2.334   5.264   5.204
 9438TIP3    H228260   2.307   5.264   5.055
 9439TIP3   OH228261   7.614   2.550   6.074
 9439TIP3    H128262   7.700   2.556   6.032
 9439TIP3    H228263   7.623   2.602   6.154
 9440TIP3   OH228264   7.927   4.031   3.099
 9440TIP3    H128265   7.964   4.070   3.020
 9440TIP3    H228266   7.877   3.956   3.068
 9441TIP3   OH228267   6.648   1.123   0.718
 9441TIP3    H128268   6.561   1.100   0.749
 9441TIP3    H228269   6.669   1.055   0.654
 9442TIP3   OH228270   0.216   1.128   1.019
 9442TIP3    H128271   0.242   1.036   1.016
 9442TIP3    H228272   0.131   1.131   0.975
 9443TIP3   OH228273   4.420   6.243   1.782
 9443TIP3    H128274   4.368   6.171   1.819
 9443TIP3    H228275   4.455   6.207   1.701
 9444TIP3   OH228276   5.806   4.991   6.309
 9444TIP3    H128277   5.780   4.909   6.267
 9444TIP3    H228278   5.901   4.989   6.310
 9445TIP3   OH228279   7.695   1.500   3.039
 9445TIP3    H128280   7.628   1.542   3.093
 9445TIP3    H228281   7.685   1.542   2.953
 9446TIP3   OH228282   4.670   4.335   3.238
 9446TIP3    H128283   4.602   4.367   3.297
 9446TIP3    H228284   4.665   4.393   3.162
 9447TIP3   OH228285   1.082   2.830   4.488
 9447TIP3    H128286   1.010   2.837   4.425
 9447TIP3    H228287   1.153   2.789   4.438
 9448TIP3   OH228288   2.695   5.538   1.792
 9448TIP3    H128289   2.668   5.559   1.881
 9448TIP3    H228290   2.774   5.484   1.803
 9449TIP3   OH228291   3.747   0.160   1.703
 9449TIP3    H128292   3.824   0.139   1.650
 9449TIP3    H228293   3.784   0.182   1.789
 9450TIP3   OH228294   4.452   3.170   2.327
 9450TIP3    H128295   4.484   3.086   2.294
 9450TIP3    H228296   4.527   3.230   2.319
 9451TIP3   OH228297   5.151   4.082   6.690
 9451TIP3    H128298   5.114   4.054   6.606
 9451TIP3    H228299   5.127   4.012   6.751
 9452TIP3   OH228300   6.127   2.378   0.373
 9452TIP3    H128301   6.081   2.407   0.294
 9452TIP3    H228302   6.193   2.445   0.387
 9453TIP3   OH228303   0.834   1.425   2.143
 9453TIP3    H128304   0.752   1.412   2.095
 9453TIP3    H228305   0.902   1.394   2.083
 9454TIP3   OH228306   3.724   4.677   6.690
 9454TIP3    H128307   3.762   4.597   6.653
 9454TIP3    H228308   3.659   4.646   6.753
 9455TIP3   OH228309   3.613   6.364   3.042
 9455TIP3    H128310   3.598   6.436   3.103
 9455TIP3    H228311   3.673   6.306   3.088
 9456TIP3   OH228312   5.982   3.394   0.382
 9456TIP3    H128313   5.977   3.302   0.407
 9456TIP3    H228314   5.952   3.396   0.291
 9457TIP3   OH228315   6.516   7.081   4.059
 9457TIP3    H128316   6.548   7.154   4.006
 9457TIP3    H228317   6.432   7.057   4.019
 9458TIP3   OH228318   6.867   7.098   1.207
 9458TIP3    H128319   6.840   7.012   1.177
 9458TIP3    H228320   6.961   7.089   1.223
 9459TIP3   OH228321   0.744   0.172   5.687
 9459TIP3    H128322   0.706   0.112   5.622
 9459TIP3    H228323   0.819   0.210   5.642
 9460TIP3   OH228324   4.953   4.044   3.764
 9460TIP3    H128325   4.909   4.123   3.796
 9460TIP3    H228326   4.951   4.053   3.668
 9461TIP3   OH228327   6.784   1.545   3.177
 9461TIP3    H128328   6.843   1.480   3.215
 9461TIP3    H228329   6.719   1.560   3.246
 9462TIP3   OH228330   4.540   4.600   5.694
 9462TIP3    H128331   4.564   4.669   5.756
 9462TIP3    H228332   4.465   4.636   5.647
 9463TIP3   OH228333   6.319   1.166   6.508
 9463TIP3    H128334   6.398   1.211   6.537
 9463TIP3    H228335   6.254   1.236   6.495
 9464TIP3   OH228336   6.540   6.956   0.633
 9464TIP3    H128337   6.461   6.998   0.600
 9464TIP3    H228338   6.612   7.015   0.608
 9465TIP3   OH228339   3.191   4.769   2.721
 9465TIP3    H128340   3.280   4.733   2.726
 9465TIP3    H228341   3.203   4.859   2.692
 9466TIP3   OH228342   2.781   3.453   1.429
 9466TIP3    H128343   2.850   3.510   1.394
 9466TIP3    H228344   2.701   3.504   1.418
 9467TIP3   OH228345   3.143   5.331   2.339
 9467TIP3    H128346   3.087   5.359   2.267
 9467TIP3    H228347   3.230   5.323   2.300
 9468TIP3   OH228348   8.094   7.205   2.167
 9468TIP3    H128349   8.012   7.219   2.214
 9468TIP3    H228350   8.102   7.110   2.159
 9469TIP3   OH228351   8.187   4.519   2.860
 9469TIP3    H128352   8.140   4.532   2.778
 9469TIP3    H228353   8.186   4.604   2.903
 9470TIP3   OH228354   6.939   5.613   4.459
 9470TIP3    H128355   7.019   5.570   4.431
 9470TIP3    H228356   6.869   5.568   4.411
 9471TIP3   OH228357   6.486   5.548   0.165
 9471TIP3    H128358   6.415   5.610   0.150
 9471TIP3    H228359   6.446   5.462   0.152
 9472TIP3   OH228360   3.260   4.194   5.660
 9472TIP3    H128361   3.289   4.131   5.726
 9472TIP3    H228362   3.324   4.185   5.589
 9473TIP3   OH228363   8.195   0.349   2.042
 9473TIP3    H128364   8.277   0.308   2.068
 9473TIP3    H228365   8.130   0.313   2.103
 9474TIP3   OH228366   3.945   1.897   3.730
 9474TIP3    H128367   3.945   1.803   3.713
 9474TIP3    H228368   3.906   1.906   3.817
 9475TIP3   OH228369   6.708   3.468   0.449
 9475TIP3    H128370   6.627   3.432   0.414
 9475TIP3    H228371   6.766   3.392   0.458
 9476TIP3   OH228372   0.093   6.815   5.452
 9476TIP3    H128373   0.172   6.769   5.426
 9476TIP3    H228374   0.120   6.872   5.524
 9477TIP3   OH228375   4.935   7.689   5.752
 9477TIP3    H128376   4.961   7.675   5.843
 9477TIP3    H228377   5.006   7.743   5.716
 9478TIP3   OH228378   1.261   0.215   5.267
 9478TIP3    H128379   1.230   0.287   5.323
 9478TIP3    H228380   1.321   0.257   5.206
 9479TIP3   OH228381   6.407   1.898   4.487
 9479TIP3    H128382   6.464   1.851   4.425
 9479TIP3    H228383   6.390   1.833   4.557
 9480TIP3   OH228384   3.438   4.376   2.061
 9480TIP3    H128385   3.355   4.409   2.027
 9480TIP3    H228386   3.425   4.368   2.155
 9481TIP3   OH228387   3.003   3.501   5.881
 9481TIP3    H128388   2.962   3.587   5.874
 9481TIP3    H228389   3.069   3.511   5.949
 9482TIP3   OH228390   2.792   0.162   3.141
 9482TIP3    H128391   2.715   0.106   3.125
 9482TIP3    H228392   2.851   0.144   3.068
 9483TIP3   OH228393   3.281   0.153   1.639
 9483TIP3    H128394   3.251   0.076   1.591
 9483TIP3    H228395   3.288   0.123   1.730
 9484TIP3   OH228396   4.558   2.833   5.208
 9484TIP3    H128397   4.579   2.784   5.129
 9484TIP3    H228398   4.500   2.903   5.178
 9485TIP3   OH228399   7.139   0.957   0.527
 9485TIP3    H128400   7.046   0.972   0.515
 9485TIP3    H228401   7.180   1.002   0.453
 9486TIP3   OH228402   0.736   0.727   5.337
 9486TIP3    H128403   0.655   0.704   5.291
 9486TIP3    H228404   0.758   0.648   5.387
 9487TIP3   OH228405   1.266   1.876   0.892
 9487TIP3    H128406   1.331   1.897   0.825
 9487TIP3    H228407   1.206   1.814   0.849
 9488TIP3   OH228408   6.371   0.909   1.331
 9488TIP3    H128409   6.294   0.965   1.323
 9488TIP3    H228410   6.390   0.883   1.240
 9489TIP3   OH228411   6.834   3.031   5.824
 9489TIP3    H128412   6.787   3.102   5.781
 9489TIP3    H228413   6.923   3.064   5.834
 9490TIP3   OH228414   8.193   5.650   3.145
 9490TIP3    H128415   8.180   5.727   3.090
 9490TIP3    H228416   8.272   5.608   3.110
 9491TIP3   OH228417   8.092   0.090   0.362
 9491TIP3    H128418   8.054   0.117   0.447
 9491TIP3    H228419   8.035   0.131   0.297
 9492TIP3   OH228420   1.355   1.447   2.147
 9492TIP3    H128421   1.292   1.474   2.080
 9492TIP3    H228422   1.390   1.364   2.115
 9493TIP3   OH228423   4.635   7.527   2.280
 9493TIP3    H128424   4.568   7.553   2.343
 9493TIP3    H228425   4.609   7.569   2.198
 9494TIP3   OH228426   1.789   0.220   6.590
 9494TIP3    H128427   1.827   0.140   6.626
 9494TIP3    H228428   1.710   0.235   6.643
 9495TIP3   OH228429   4.057   5.517   2.708
 9495TIP3    H128430   4.097   5.480   2.629
 9495TIP3    H228431   4.131   5.557   2.755
 9496TIP3   OH228432   7.627   3.026   5.570
 9496TIP3    H128433   7.639   2.959   5.502
 9496TIP3    H228434   7.567   3.089   5.531
 9497TIP3   OH228435   3.893   4.477   5.236
 9497TIP3    H128436   3.947   4.554   5.255
 9497TIP3    H228437   3.804   4.512   5.230
 9498TIP3   OH228438   1.653   2.967   6.218
 9498TIP3    H128439   1.727   2.911   6.240
 9498TIP3    H228440   1.576   2.920   6.249
 9499TIP3   OH228441   6.623   7.126   5.709
 9499TIP3    H128442   6.570   7.056   5.749
 9499TIP3    H228443   6.623   7.196   5.775
 9500TIP3   OH228444   2.500   4.536   0.712
 9500TIP3    H128445   2.432   4.491   0.763
 9500TIP3    H228446   2.456   4.561   0.631
 9501TIP3   OH228447   8.083   6.997   2.871
 9501TIP3    H128448   8.071   7.061   2.941
 9501TIP3    H228449   8.151   7.035   2.815
 9502TIP3   OH228450   3.904   1.128   1.218
 9502TIP3    H128451   3.924   1.098   1.306
 9502TIP3    H228452   3.811   1.108   1.207
 9503TIP3   OH228453   4.101   4.983   5.894
 9503TIP3    H128454   4.116   4.923   5.966
 9503TIP3    H228455   4.005   4.992   5.891
 9504TIP3   OH228456   1.875   2.525   5.631
 9504TIP3    H128457   1.936   2.461   5.667
 9504TIP3    H228458   1.903   2.609   5.666
 9505TIP3   OH228459   1.604   2.063   3.492
 9505TIP3    H128460   1.612   2.159   3.494
 9505TIP3    H228461   1.589   2.038   3.583
 9506TIP3   OH228462   5.963   1.247   4.078
 9506TIP3    H128463   5.914   1.235   3.997
 9506TIP3    H228464   5.939   1.335   4.108
 9507TIP3   OH228465   3.788   2.309   2.370
 9507TIP3    H128466   3.799   2.218   2.343
 9507TIP3    H228467   3.714   2.341   2.317
 9508TIP3   OH228468   1.879   7.685   1.619
 9508TIP3    H128469   1.926   7.768   1.617
 9508TIP3    H228470   1.939   7.623   1.577
 9509TIP3   OH228471   6.231   5.921   0.160
 9509TIP3    H128472   6.167   5.972   0.210
 9509TIP3    H228473   6.237   5.967   0.076
 9510TIP3   OH228474   3.679   3.297   3.575
 9510TIP3    H128475   3.594   3.272   3.540
 9510TIP3    H228476   3.699   3.381   3.534
 9511TIP3   OH228477   4.427   6.004   3.132
 9511TIP3    H128478   4.519   6.021   3.113
 9511TIP3    H228479   4.395   5.961   3.053
 9512TIP3   OH228480   3.067   3.197   1.947
 9512TIP3    H128481   3.002   3.139   1.986
 9512TIP3    H228482   3.077   3.269   2.010
 9513TIP3   OH228483   4.903   0.961   0.946
 9513TIP3    H128484   4.872   0.900   0.879
 9513TIP3    H228485   4.996   0.944   0.954
 9514TIP3   OH228486   1.598   7.691   0.738
 9514TIP3    H128487   1.569   7.733   0.657
 9514TIP3    H228488   1.669   7.746   0.770
 9515TIP3   OH228489   2.249   1.093   2.108
 9515TIP3    H128490   2.168   1.123   2.068
 9515TIP3    H228491   2.244   1.124   2.199
 9516TIP3   OH228492   6.961   4.644   2.151
 9516TIP3    H128493   6.954   4.659   2.057
 9516TIP3    H228494   6.904   4.710   2.190
 9517TIP3   OH228495   0.052   7.347   6.166
 9517TIP3    H128496   0.030   7.404   6.240
 9517TIP3    H228497   0.081   7.408   6.097
 9518TIP3   OH228498   7.868   0.023   6.098
 9518TIP3    H128499   7.804  -0.043   6.073
 9518TIP3    H228500   7.878   0.077   6.019
 9519TIP3   OH228501   0.220   6.173   5.320
 9519TIP3    H128502   0.127   6.197   5.319
 9519TIP3    H228503   0.223   6.089   5.365
 9520TIP3   OH228504   6.540   4.797   4.973
 9520TIP3    H128505   6.550   4.752   4.888
 9520TIP3    H228506   6.480   4.869   4.955
 9521TIP3   OH228507   7.429   4.759   3.789
 9521TIP3    H128508   7.489   4.688   3.811
 9521TIP3    H228509   7.405   4.744   3.698
 9522TIP3   OH228510   3.591   5.811   2.736
 9522TIP3    H128511   3.669   5.756   2.725
 9522TIP3    H228512   3.518   5.753   2.712
 9523TIP3   OH228513   1.417   4.546   6.221
 9523TIP3    H128514   1.435   4.623   6.167
 9523TIP3    H228515   1.492   4.541   6.280
 9524TIP3   OH228516   2.828   6.211   2.681
 9524TIP3    H128517   2.920   6.196   2.661
 9524TIP3    H228518   2.815   6.172   2.768
 9525TIP3   OH228519   2.856   0.428   4.275
 9525TIP3    H128520   2.909   0.348   4.282
 9525TIP3    H228521   2.854   0.447   4.182
 9526TIP3   OH228522   6.103   4.610   4.357
 9526TIP3    H128523   6.018   4.615   4.312
 9526TIP3    H228524   6.164   4.579   4.290
 9527TIP3   OH228525   0.564   3.687   1.079
 9527TIP3    H128526   0.470   3.667   1.083
 9527TIP3    H228527   0.574   3.737   0.999
 9528TIP3   OH228528   5.542   3.523   4.841
 9528TIP3    H128529   5.511   3.581   4.772
 9528TIP3    H228530   5.628   3.558   4.865
 9529TIP3   OH228531   5.670   4.581   6.417
 9529TIP3    H128532   5.602   4.560   6.482
 9529TIP3    H228533   5.751   4.587   6.467
 9530TIP3   OH228534   2.219   5.565   1.127
 9530TIP3    H128535   2.252   5.610   1.205
 9530TIP3    H228536   2.298   5.532   1.083
 9531TIP3   OH228537   5.320   1.199   0.859
 9531TIP3    H128538   5.314   1.291   0.886
 9531TIP3    H228539   5.351   1.202   0.769
 9532TIP3   OH228540   2.175   3.835   1.117
 9532TIP3    H128541   2.201   3.921   1.150
 9532TIP3    H228542   2.254   3.782   1.123
 9533TIP3   OH228543   7.123  -0.007   2.606
 9533TIP3    H128544   7.134  -0.040   2.695
 9533TIP3    H228545   7.178   0.071   2.602
 9534TIP3   OH228546   5.807   0.669   2.009
 9534TIP3    H128547   5.889   0.620   2.004
 9534TIP3    H228548   5.768   0.661   1.922
 9535TIP3   OH228549   5.445   1.553   2.189
 9535TIP3    H128550   5.515   1.494   2.217
 9535TIP3    H228551   5.367   1.497   2.183
 9536TIP3   OH228552   4.572   4.596   3.810
 9536TIP3    H128553   4.494   4.646   3.835
 9536TIP3    H228554   4.549   4.504   3.827
 9537TIP3   OH228555   1.385   6.624   0.695
 9537TIP3    H128556   1.465   6.574   0.711
 9537TIP3    H228557   1.375   6.623   0.600
 9538TIP3   OH228558   7.326   6.711   0.380
 9538TIP3    H128559   7.242   6.679   0.349
 9538TIP3    H228560   7.390   6.649   0.344
 9539TIP3   OH228561   5.524   4.639   0.911
 9539TIP3    H128562   5.482   4.620   0.995
 9539TIP3    H228563   5.565   4.556   0.886
 9540TIP3   OH228564   5.808   2.032   5.471
 9540TIP3    H128565   5.794   2.126   5.476
 9540TIP3    H228566   5.887   2.023   5.418
 9541TIP3   OH228567   3.629   0.766   4.456
 9541TIP3    H128568   3.700   0.809   4.504
 9541TIP3    H228569   3.602   0.831   4.390
 9542TIP3   OH228570   4.271   3.872   5.710
 9542TIP3    H128571   4.180   3.901   5.701
 9542TIP3    H228572   4.293   3.890   5.801
 9543TIP3   OH228573   0.966   5.525   1.785
 9543TIP3    H128574   1.060   5.531   1.802
 9543TIP3    H228575   0.959   5.460   1.716
 9544TIP3   OH228576   0.544   1.599   0.365
 9544TIP3    H128577   0.630   1.583   0.325
 9544TIP3    H228578   0.539   1.693   0.376
 9545TIP3   OH228579   1.960   4.122   1.223
 9545TIP3    H128580   2.024   4.063   1.263
 9545TIP3    H228581   1.875   4.086   1.248
 9546TIP3   OH228582   5.948   0.990   1.561
 9546TIP3    H128583   6.002   0.912   1.576
 9546TIP3    H228584   5.952   1.039   1.643
 9547TIP3   OH228585   1.260   6.537   3.319
 9547TIP3    H128586   1.235   6.621   3.357
 9547TIP3    H228587   1.178   6.491   3.305
 9548TIP3   OH228588   3.825   6.915   3.495
 9548TIP3    H128589   3.873   6.835   3.472
 9548TIP3    H228590   3.786   6.944   3.413
 9549TIP3   OH228591   8.121   6.627   6.042
 9549TIP3    H128592   8.179   6.590   5.975
 9549TIP3    H228593   8.140   6.721   6.041
 9550TIP3   OH228594   7.684   3.257   0.528
 9550TIP3    H128595   7.742   3.329   0.552
 9550TIP3    H228596   7.629   3.244   0.605
 9551TIP3   OH228597   2.223   0.347   4.685
 9551TIP3    H128598   2.241   0.354   4.591
 9551TIP3    H228599   2.304   0.310   4.722
 9552TIP3   OH228600   5.296   0.039   6.652
 9552TIP3    H128601   5.282   0.046   6.558
 9552TIP3    H228602   5.214   0.002   6.686
 9553TIP3   OH228603   4.377   2.671   6.359
 9553TIP3    H128604   4.462   2.699   6.327
 9553TIP3    H228605   4.389   2.580   6.385
 9554TIP3   OH228606   5.435   6.019   6.321
 9554TIP3    H128607   5.414   6.046   6.231
 9554TIP3    H228608   5.361   5.965   6.348
 9555TIP3   OH228609   3.275   0.545   1.570
 9555TIP3    H128610   3.247   0.505   1.652
 9555TIP3    H228611   3.260   0.478   1.504
 9556TIP3   OH228612   2.245   4.587   5.966
 9556TIP3    H128613   2.261   4.681   5.978
 9556TIP3    H228614   2.318   4.557   5.912
 9557TIP3   OH228615   3.496   1.891   1.442
 9557TIP3    H128616   3.453   1.864   1.360
 9557TIP3    H228617   3.506   1.810   1.492
 9558TIP3   OH228618   5.229   5.265   0.741
 9558TIP3    H128619   5.259   5.321   0.813
 9558TIP3    H228620   5.149   5.307   0.709
 9559TIP3   OH228621   7.082   0.649   6.690
 9559TIP3    H128622   7.143   0.578   6.710
 9559TIP3    H228623   6.999   0.622   6.728
 9560TIP3   OH228624   4.239   7.369   1.907
 9560TIP3    H128625   4.302   7.361   1.979
 9560TIP3    H228626   4.203   7.281   1.897
 9561TIP3   OH228627   0.346   4.532   4.628
 9561TIP3    H128628   0.265   4.495   4.593
 9561TIP3    H228629   0.414   4.471   4.599
 9562TIP3   OH228630   3.269   1.753   3.284
 9562TIP3    H128631   3.222   1.792   3.358
 9562TIP3    H228632   3.211   1.765   3.209
 9563TIP3   OH228633   4.769   5.503   2.911
 9563TIP3    H128634   4.709   5.568   2.946
 9563TIP3    H228635   4.845   5.504   2.970
 9564TIP3   OH228636   0.749   7.009   2.554
 9564TIP3    H128637   0.820   6.994   2.617
 9564TIP3    H228638   0.783   7.074   2.494
 9565TIP3   OH228639   5.120   1.201   2.028
 9565TIP3    H128640   5.193   1.235   2.079
 9565TIP3    H228641   5.071   1.146   2.089
 9566TIP3   OH228642   1.675   2.438   6.132
 9566TIP3    H128643   1.760   2.476   6.108
 9566TIP3    H228644   1.697   2.356   6.176
 9567TIP3   OH228645   3.527   5.043   5.229
 9567TIP3    H128646   3.437   5.012   5.238
 9567TIP3    H228647   3.519   5.123   5.176
 9568TIP3   OH228648   3.315   6.053   1.830
 9568TIP3    H128649   3.378   6.077   1.763
 9568TIP3    H228650   3.304   5.958   1.820
 9569TIP3   OH228651   2.507   6.780   6.047
 9569TIP3    H128652   2.475   6.823   6.125
 9569TIP3    H228653   2.489   6.841   5.976
 9570TIP3   OH228654   7.620   4.078   4.309
 9570TIP3    H128655   7.560   4.087   4.383
 9570TIP3    H228656   7.562   4.080   4.232
 9571TIP3   OH228657   7.736   4.940   0.358
 9571TIP3    H128658   7.738   4.931   0.262
 9571TIP3    H228659   7.693   5.024   0.373
 9572TIP3   OH228660   5.519   1.797   1.326
 9572TIP3    H128661   5.459   1.745   1.273
 9572TIP3    H228662   5.499   1.774   1.416
 9573TIP3   OH228663   2.865   3.012   6.417
 9573TIP3    H128664   2.841   2.921   6.434
 9573TIP3    H228665   2.831   3.030   6.329
 9574TIP3   OH228666   3.480   4.914   6.261
 9574TIP3    H128667   3.499   4.821   6.242
 9574TIP3    H228668   3.566   4.955   6.264
 9575TIP3   OH228669   5.665   7.799   3.534
 9575TIP3    H128670   5.757   7.775   3.544
 9575TIP3    H228671   5.668   7.886   3.494
 9576TIP3   OH228672   4.711   6.805   0.926
 9576TIP3    H128673   4.662   6.755   0.991
 9576TIP3    H228674   4.800   6.771   0.931
 9577TIP3   OH228675   5.154   6.504   6.084
 9577TIP3    H128676   5.240   6.511   6.125
 9577TIP3    H228677   5.107   6.581   6.115
 9578TIP3   OH228678   4.907   3.616   4.572
 9578TIP3    H128679   4.830   3.671   4.559
 9578TIP3    H228680   4.878   3.547   4.631
 9579TIP3   OH228681   2.651   1.184   1.049
 9579TIP3    H128682   2.573   1.153   1.095
 9579TIP3    H228683   2.619   1.216   0.965
 9580TIP3   OH228684   0.221   1.438   6.615
 9580TIP3    H128685   0.143   1.427   6.668
 9580TIP3    H228686   0.291   1.395   6.665
 9581TIP3   OH228687   5.502   2.274   5.984
 9581TIP3    H128688   5.513   2.343   6.050
 9581TIP3    H228689   5.501   2.321   5.900
 9582TIP3   OH228690   6.096   2.063   2.912
 9582TIP3    H128691   6.186   2.043   2.937
 9582TIP3    H228692   6.055   2.097   2.991
 9583TIP3   OH228693   0.686   5.852   0.246
 9583TIP3    H128694   0.616   5.828   0.186
 9583TIP3    H228695   0.701   5.773   0.298
 9584TIP3   OH228696   3.325   5.067   0.695
 9584TIP3    H128697   3.404   5.121   0.702
 9584TIP3    H228698   3.286   5.093   0.612
 9585TIP3   OH228699   0.950   2.882   3.556
 9585TIP3    H128700   0.964   2.923   3.642
 9585TIP3    H228701   0.888   2.939   3.512
 9586TIP3   OH228702   7.023   1.692   1.261
 9586TIP3    H128703   6.972   1.700   1.341
 9586TIP3    H228704   7.113   1.680   1.291
 9587TIP3   OH228705   6.477   0.203   0.998
 9587TIP3    H128706   6.572   0.211   0.990
 9587TIP3    H228707   6.459   0.111   0.982
 9588TIP3   OH228708   1.491   1.715   3.452
 9588TIP3    H128709   1.458   1.748   3.369
 9588TIP3    H228710   1.586   1.721   3.445
 9589TIP3   OH228711   7.292   5.108   3.964
 9589TIP3    H128712   7.264   5.193   3.929
 9589TIP3    H228713   7.211   5.060   3.979
 9590TIP3   OH228714   5.650   5.006   5.189
 9590TIP3    H128715   5.700   5.045   5.117
 9590TIP3    H228716   5.644   4.913   5.167
 9591TIP3   OH228717   1.345   1.094   6.304
 9591TIP3    H128718   1.384   1.177   6.331
 9591TIP3    H228719   1.404   1.027   6.339
 9592TIP3   OH228720   0.958   5.164   3.754
 9592TIP3    H128721   0.916   5.201   3.832
 9592TIP3    H228722   1.004   5.087   3.787
 9593TIP3   OH228723   3.246   3.931   6.104
 9593TIP3    H128724   3.175   3.868   6.092
 9593TIP3    H228725   3.229   3.970   6.190
 9594TIP3   OH228726   7.480   6.856   3.579
 9594TIP3    H128727   7.575   6.863   3.581
 9594TIP3    H228728   7.463   6.784   3.518
 9595TIP3   OH228729   5.294   0.835   0.166
 9595TIP3    H128730   5.354   0.791   0.226
 9595TIP3    H228731   5.336   0.827   0.080
 9596TIP3   OH228732   2.163   2.554   6.120
 9596TIP3    H128733   2.218   2.630   6.139
 9596TIP3    H228734   2.218   2.498   6.065
 9597TIP3   OH228735   6.621   4.821   0.103
 9597TIP3    H128736   6.560   4.748   0.113
 9597TIP3    H228737   6.623   4.863   0.189
 9598TIP3   OH228738   5.763   6.579   6.446
 9598TIP3    H128739   5.695   6.528   6.490
 9598TIP3    H228740   5.796   6.521   6.377
 9599TIP3   OH228741   3.127   0.889   0.894
 9599TIP3    H128742   3.194   0.841   0.943
 9599TIP3    H228743   3.120   0.842   0.811
 9600TIP3   OH228744   3.447   7.026   0.049
 9600TIP3    H128745   3.371   7.082   0.035
 9600TIP3    H228746   3.462   6.983  -0.035
 9601TIP3   OH228747   4.668   1.139   6.577
 9601TIP3    H128748   4.626   1.058   6.548
 9601TIP3    H228749   4.597   1.190   6.616
 9602TIP3   OH228750   7.455  -0.009   0.868
 9602TIP3    H128751   7.383  -0.021   0.807
 9602TIP3    H228752   7.468   0.086   0.872
 9603TIP3   OH228753   6.254   7.115   5.784
 9603TIP3    H128754   6.288   7.190   5.736
 9603TIP3    H228755   6.322   7.048   5.775
 9604TIP3   OH228756   8.050   4.425   0.170
 9604TIP3    H128757   8.008   4.432   0.085
 9604TIP3    H228758   8.144   4.430   0.151
 9605TIP3   OH228759   1.329   5.740   2.254
 9605TIP3    H128760   1.368   5.702   2.332
 9605TIP3    H228761   1.399   5.792   2.214
 9606TIP3   OH228762   4.757   3.445   0.230
 9606TIP3    H128763   4.681   3.441   0.287
 9606TIP3    H228764   4.822   3.494   0.280
 9607TIP3   OH228765   6.395   2.417   0.562
 9607TIP3    H128766   6.385   2.452   0.650
 9607TIP3    H228767   6.397   2.322   0.574
 9608TIP3   OH228768   5.829   0.554   6.012
 9608TIP3    H128769   5.906   0.570   6.066
 9608TIP3    H228770   5.779   0.636   6.015
 9609TIP3   OH228771   2.495   1.224   2.033
 9609TIP3    H128772   2.492   1.297   2.096
 9609TIP3    H228773   2.411   1.180   2.044
 9610TIP3   OH228774   4.688   1.307   1.834
 9610TIP3    H128775   4.706   1.259   1.915
 9610TIP3    H228776   4.691   1.399   1.860
 9611TIP3   OH228777   6.466   3.260   0.753
 9611TIP3    H128778   6.379   3.220   0.757
 9611TIP3    H228779   6.448   3.354   0.755
 9612TIP3   OH228780   7.033   0.963   3.646
 9612TIP3    H128781   6.956   1.018   3.632
 9612TIP3    H228782   6.997   0.877   3.668
 9613TIP3   OH228783   4.351   3.922   1.814
 9613TIP3    H128784   4.298   3.942   1.891
 9613TIP3    H228785   4.432   3.885   1.850
 9614TIP3   OH228786   4.526   1.295   2.258
 9614TIP3    H128787   4.579   1.363   2.299
 9614TIP3    H228788   4.436   1.325   2.268
 9615TIP3   OH228789   5.485   2.911   5.828
 9615TIP3    H128790   5.455   2.828   5.791
 9615TIP3    H228791   5.502   2.892   5.920
 9616TIP3   OH228792   1.202   6.852   3.946
 9616TIP3    H128793   1.238   6.769   3.976
 9616TIP3    H228794   1.108   6.839   3.948
 9617TIP3   OH228795   0.869   3.746   2.903
 9617TIP3    H128796   0.892   3.839   2.909
 9617TIP3    H228797   0.874   3.726   2.810
 9618TIP3   OH228798   1.778   0.363   5.125
 9618TIP3    H128799   1.684   0.344   5.116
 9618TIP3    H228800   1.780   0.442   5.179
 9619TIP3   OH228801   7.476   3.568   1.664
 9619TIP3    H128802   7.454   3.661   1.661
 9619TIP3    H228803   7.400   3.526   1.703
 9620TIP3   OH228804   2.802   5.034   3.846
 9620TIP3    H128805   2.729   4.976   3.870
 9620TIP3    H228806   2.860   4.978   3.794
 9621TIP3   OH228807   2.664   0.324   1.327
 9621TIP3    H128808   2.656   0.419   1.316
 9621TIP3    H228809   2.574   0.292   1.336
 9622TIP3   OH228810   5.091   5.835   6.562
 9622TIP3    H128811   5.100   5.742   6.541
 9622TIP3    H228812   5.035   5.837   6.639
 9623TIP3   OH228813   7.746   2.662   6.280
 9623TIP3    H128814   7.806   2.598   6.241
 9623TIP3    H228815   7.748   2.644   6.373
 9624TIP3   OH228816   6.216   6.965   4.974
 9624TIP3    H128817   6.264   7.030   5.025
 9624TIP3    H228818   6.245   6.978   4.884
 9625TIP3   OH228819   1.676   1.385   1.669
 9625TIP3    H128820   1.591   1.365   1.708
 9625TIP3    H228821   1.689   1.478   1.684
 9626TIP3   OH228822   7.574   2.436   1.250
 9626TIP3    H128823   7.609   2.427   1.338
 9626TIP3    H228824   7.649   2.423   1.193
 9627TIP3   OH228825   0.343   5.575   4.662
 9627TIP3    H128826   0.428   5.567   4.620
 9627TIP3    H228827   0.316   5.485   4.680
 9628TIP3   OH228828   6.895   3.479   4.952
 9628TIP3    H128829   6.974   3.434   4.925
 9628TIP3    H228830   6.895   3.474   5.048
 9629TIP3   OH228831   2.298   3.165   3.911
 9629TIP3    H128832   2.390   3.185   3.896
 9629TIP3    H228833   2.286   3.176   4.006
 9630TIP3   OH228834   0.589   2.954   1.923
 9630TIP3    H128835   0.598   2.932   2.015
 9630TIP3    H228836   0.503   2.920   1.899
 9631TIP3   OH228837   7.606   6.151   6.304
 9631TIP3    H128838   7.601   6.171   6.210
 9631TIP3    H228839   7.565   6.065   6.312
 9632TIP3   OH228840   7.063   5.776   6.298
 9632TIP3    H128841   7.128   5.783   6.228
 9632TIP3    H228842   6.982   5.808   6.259
 9633TIP3   OH228843   5.886   2.491   3.678
 9633TIP3    H128844   5.849   2.559   3.621
 9633TIP3    H228845   5.924   2.428   3.617
 9634TIP3   OH228846   0.989   1.568   5.020
 9634TIP3    H128847   0.920   1.519   4.975
 9634TIP3    H228848   1.055   1.584   4.952
 9635TIP3   OH228849   6.409   4.668   3.268
 9635TIP3    H128850   6.490   4.640   3.227
 9635TIP3    H228851   6.355   4.589   3.272
 9636TIP3   OH228852   2.428   5.186   6.350
 9636TIP3    H128853   2.464   5.185   6.439
 9636TIP3    H228854   2.399   5.095   6.335
 9637TIP3   OH228855   5.530   3.816   4.394
 9637TIP3    H128856   5.525   3.788   4.302
 9637TIP3    H228857   5.455   3.874   4.406
 9638TIP3   OH228858   3.707   2.249   6.738
 9638TIP3    H128859   3.684   2.328   6.788
 9638TIP3    H228860   3.800   2.259   6.717
 9639TIP3   OH228861   4.612   1.305   1.095
 9639TIP3    H128862   4.536   1.315   1.038
 9639TIP3    H228863   4.576   1.309   1.184
 9640TIP3   OH228864   5.372   6.892   0.130
 9640TIP3    H128865   5.344   6.814   0.177
 9640TIP3    H228866   5.465   6.879   0.115
 9641TIP3   OH228867   7.825  -0.013   4.548
 9641TIP3    H128868   7.802  -0.006   4.455
 9641TIP3    H228869   7.849   0.076   4.573
 9642TIP3   OH228870   7.270   1.404   0.286
 9642TIP3    H128871   7.309   1.329   0.241
 9642TIP3    H228872   7.227   1.367   0.363
 9643TIP3   OH228873   5.045   5.751   1.858
 9643TIP3    H128874   5.098   5.688   1.908
 9643TIP3    H228875   4.998   5.801   1.926
 9644TIP3   OH228876   6.871   2.102   0.716
 9644TIP3    H128877   6.960   2.074   0.735
 9644TIP3    H228878   6.850   2.163   0.787
 9645TIP3   OH228879   7.009   4.930   6.605
 9645TIP3    H128880   7.010   4.994   6.534
 9645TIP3    H228881   7.075   4.962   6.667
 9646TIP3   OH228882   4.635   3.789   6.022
 9646TIP3    H128883   4.559   3.798   6.079
 9646TIP3    H228884   4.625   3.860   5.958
 9647TIP3   OH228885   8.005   0.381   2.531
 9647TIP3    H128886   8.001   0.461   2.479
 9647TIP3    H228887   8.013   0.311   2.466
 9648TIP3   OH228888   1.724   0.318   3.943
 9648TIP3    H128889   1.647   0.290   3.893
 9648TIP3    H228890   1.705   0.291   4.033
 9649TIP3   OH228891   4.119   1.160   0.174
 9649TIP3    H128892   4.045   1.202   0.132
 9649TIP3    H228893   4.109   1.067   0.155
 9650TIP3   OH228894   3.571   2.228   3.206
 9650TIP3    H128895   3.550   2.135   3.217
 9650TIP3    H228896   3.509   2.274   3.262
 9651TIP3   OH228897   1.896   6.333   3.918
 9651TIP3    H128898   1.905   6.362   4.010
 9651TIP3    H228899   1.827   6.389   3.883
 9652TIP3   OH228900   3.451   1.144   6.520
 9652TIP3    H128901   3.436   1.233   6.489
 9652TIP3    H228902   3.417   1.089   6.449
 9653TIP3   OH228903   3.999   4.389   2.381
 9653TIP3    H128904   4.041   4.384   2.295
 9653TIP3    H228905   4.049   4.455   2.429
 9654TIP3   OH228906   7.429   3.206   2.644
 9654TIP3    H128907   7.446   3.213   2.737
 9654TIP3    H228908   7.382   3.285   2.621
 9655TIP3   OH228909   7.707   1.124   6.274
 9655TIP3    H128910   7.756   1.189   6.224
 9655TIP3    H228911   7.747   1.040   6.252
 9656TIP3   OH228912   2.210   2.784   6.394
 9656TIP3    H128913   2.257   2.704   6.414
 9656TIP3    H228914   2.266   2.831   6.332
 9657TIP3   OH228915   4.023   4.830   1.194
 9657TIP3    H128916   4.087   4.861   1.130
 9657TIP3    H228917   3.963   4.904   1.205
 9658TIP3   OH228918   5.114   3.085   5.443
 9658TIP3    H128919   5.188   3.145   5.453
 9658TIP3    H228920   5.051   3.133   5.390
 9659TIP3   OH228921   2.392   3.330   2.426
 9659TIP3    H128922   2.321   3.281   2.469
 9659TIP3    H228923   2.458   3.263   2.407
 9660TIP3   OH228924   8.089   2.155   4.782
 9660TIP3    H128925   7.996   2.136   4.796
 9660TIP3    H228926   8.114   2.099   4.708
 9661TIP3   OH228927   1.204   1.618   4.858
 9661TIP3    H128928   1.210   1.709   4.830
 9661TIP3    H228929   1.288   1.579   4.834
 9662TIP3   OH228930   6.694   5.195   1.796
 9662TIP3    H128931   6.687   5.130   1.726
 9662TIP3    H228932   6.704   5.143   1.876
 9663TIP3   OH228933   7.674   5.779   1.917
 9663TIP3    H128934   7.640   5.706   1.864
 9663TIP3    H228935   7.689   5.741   2.004
 9664TIP3   OH228936   7.377   5.733   4.976
 9664TIP3    H128937   7.394   5.660   5.035
 9664TIP3    H228938   7.345   5.803   5.032
 9665TIP3   OH228939   7.225   6.234   3.637
 9665TIP3    H128940   7.275   6.316   3.634
 9665TIP3    H228941   7.218   6.207   3.546
 9666TIP3   OH228942   1.653  -0.006   5.125
 9666TIP3    H128943   1.602   0.010   5.046
 9666TIP3    H228944   1.600   0.032   5.196
 9667TIP3   OH228945   7.917   4.468   5.481
 9667TIP3    H128946   7.955   4.502   5.562
 9667TIP3    H228947   7.916   4.373   5.492
 9668TIP3   OH228948   0.042   2.999   3.025
 9668TIP3    H128949   0.013   3.082   3.062
 9668TIP3    H228950  -0.038   2.958   2.992
 9669TIP3   OH228951   5.845   4.852   0.603
 9669TIP3    H128952   5.777   4.785   0.620
 9669TIP3    H228953   5.798   4.923   0.560
 9670TIP3   OH228954   6.086   1.250   5.631
 9670TIP3    H128955   6.086   1.160   5.665
 9670TIP3    H228956   6.002   1.285   5.657
 9671TIP3   OH228957   6.958   3.394   5.230
 9671TIP3    H128958   6.872   3.358   5.251
 9671TIP3    H228959   6.980   3.447   5.307
 9672TIP3   OH228960   2.417   2.224   1.737
 9672TIP3    H128961   2.425   2.132   1.763
 9672TIP3    H228962   2.434   2.224   1.643
 9673TIP3   OH228963   6.866   3.884   0.564
 9673TIP3    H128964   6.799   3.830   0.522
 9673TIP3    H228965   6.903   3.935   0.492
 9674TIP3   OH228966   5.076   5.430   1.571
 9674TIP3    H128967   5.025   5.393   1.643
 9674TIP3    H228968   5.163   5.389   1.580
 9675TIP3   OH228969   2.362   6.326   0.361
 9675TIP3    H128970   2.293   6.335   0.295
 9675TIP3    H228971   2.428   6.390   0.335
 9676TIP3   OH228972   2.342   4.663   4.686
 9676TIP3    H128973   2.395   4.741   4.669
 9676TIP3    H228974   2.384   4.621   4.761
 9677TIP3   OH228975   2.458   6.370   1.317
 9677TIP3    H128976   2.388   6.420   1.358
 9677TIP3    H228977   2.501   6.432   1.257
 9678TIP3   OH228978   7.324   0.418   1.685
 9678TIP3    H128979   7.336   0.359   1.760
 9678TIP3    H228980   7.380   0.382   1.617
 9679TIP3   OH228981   3.173   3.597   2.707
 9679TIP3    H128982   3.105   3.653   2.745
 9679TIP3    H228983   3.254   3.649   2.714
 9680TIP3   OH228984   0.996   3.863   0.409
 9680TIP3    H128985   1.020   3.775   0.437
 9680TIP3    H228986   0.980   3.910   0.491
 9681TIP3   OH228987   3.237   0.892   6.683
 9681TIP3    H128988   3.233   0.949   6.606
 9681TIP3    H228989   3.165   0.921   6.739
 9682TIP3   OH228990   7.044   2.350   5.783
 9682TIP3    H128991   7.072   2.326   5.871
 9682TIP3    H228992   7.099   2.298   5.724
 9683TIP3   OH228993   4.018   5.434   4.354
 9683TIP3    H128994   3.981   5.507   4.403
 9683TIP3    H228995   4.063   5.474   4.280
 9684TIP3   OH228996   5.172   2.637   0.034
 9684TIP3    H128997   5.132   2.703   0.090
 9684TIP3    H228998   5.253   2.613   0.079
 9685TIP3   OH228999   6.870   4.343   3.617
 9685TIP3    H129000   6.840   4.428   3.650
 9685TIP3    H229001   6.814   4.279   3.661
 9686TIP3   OH229002   1.055   4.261   1.444
 9686TIP3    H129003   1.050   4.295   1.355
 9686TIP3    H229004   0.968   4.276   1.481
 9687TIP3   OH229005   1.376   0.597   0.707
 9687TIP3    H129006   1.325   0.669   0.745
 9687TIP3    H229007   1.464   0.633   0.697
 9688TIP3   OH229008   6.632   0.254   4.923
 9688TIP3    H129009   6.582   0.189   4.972
 9688TIP3    H229010   6.655   0.321   4.987
 9689TIP3   OH229011   5.988   0.083   5.492
 9689TIP3    H129012   6.031   0.097   5.576
 9689TIP3    H229013   5.995  -0.011   5.477
 9690TIP3   OH229014   5.664   3.488   6.563
 9690TIP3    H129015   5.759   3.484   6.575
 9690TIP3    H229016   5.652   3.538   6.482
 9691TIP3   OH229017   3.249   0.658   2.296
 9691TIP3    H129018   3.299   0.633   2.218
 9691TIP3    H229019   3.181   0.591   2.303
 9692TIP3   OH229020   3.936   2.594   2.921
 9692TIP3    H129021   4.005   2.659   2.911
 9692TIP3    H229022   3.854   2.644   2.913
 9693TIP3   OH229023   5.300   3.299   2.017
 9693TIP3    H129024   5.372   3.240   2.043
 9693TIP3    H229025   5.222   3.244   2.023
 9694TIP3   OH229026   1.781   4.544   3.618
 9694TIP3    H129027   1.698   4.570   3.658
 9694TIP3    H229028   1.773   4.571   3.526
 9695TIP3   OH229029   6.326   4.748   1.760
 9695TIP3    H129030   6.398   4.694   1.793
 9695TIP3    H229031   6.359   4.785   1.678
 9696TIP3   OH229032   6.464   7.542   0.565
 9696TIP3    H129033   6.555   7.550   0.595
 9696TIP3    H229034   6.466   7.470   0.502
 9697TIP3   OH229035   4.745   2.800   3.995
 9697TIP3    H129036   4.806   2.740   3.952
 9697TIP3    H229037   4.710   2.853   3.923
 9698TIP3   OH229038   3.169   0.525   4.952
 9698TIP3    H129039   3.140   0.604   4.906
 9698TIP3    H229040   3.250   0.551   4.996
 9699TIP3   OH229041   1.248   2.220   3.682
 9699TIP3    H129042   1.231   2.157   3.752
 9699TIP3    H229043   1.281   2.167   3.610
 9700TIP3   OH229044   2.711   4.858   5.096
 9700TIP3    H129045   2.710   4.879   5.189
 9700TIP3    H229046   2.765   4.927   5.057
 9701TIP3   OH229047   1.171   7.519   0.940
 9701TIP3    H129048   1.262   7.536   0.961
 9701TIP3    H229049   1.160   7.550   0.850
 9702TIP3   OH229050   4.292   5.891   5.101
 9702TIP3    H129051   4.388   5.895   5.102
 9702TIP3    H229052   4.264   5.970   5.147
 9703TIP3   OH229053   5.653   6.819   6.317
 9703TIP3    H129054   5.684   6.750   6.375
 9703TIP3    H229055   5.574   6.783   6.276
 9704TIP3   OH229056   8.172   4.211   4.045
 9704TIP3    H129057   8.248   4.270   4.042
 9704TIP3    H229058   8.170   4.179   4.135
 9705TIP3   OH229059   7.544   3.209   6.184
 9705TIP3    H129060   7.531   3.257   6.266
 9705TIP3    H229061   7.549   3.117   6.210
 9706TIP3   OH229062   6.609   6.013   2.050
 9706TIP3    H129063   6.649   5.967   1.977
 9706TIP3    H229064   6.671   6.082   2.073
 9707TIP3   OH229065   7.011   0.616   3.998
 9707TIP3    H129066   7.087   0.621   4.056
 9707TIP3    H229067   6.936   0.608   4.056
 9708TIP3   OH229068   7.500   5.414   3.922
 9708TIP3    H129069   7.582   5.367   3.940
 9708TIP3    H229070   7.484   5.466   4.000
 9709TIP3   OH229071   6.182   3.519   2.037
 9709TIP3    H129072   6.119   3.471   2.092
 9709TIP3    H229073   6.260   3.528   2.093
 9710TIP3   OH229074   6.284   0.568   2.795
 9710TIP3    H129075   6.226   0.627   2.748
 9710TIP3    H229076   6.313   0.505   2.729
 9711TIP3   OH229077   5.011   2.296   3.985
 9711TIP3    H129078   4.922   2.331   3.981
 9711TIP3    H229079   5.066   2.368   3.956
 9712TIP3   OH229080   7.961   1.358   0.215
 9712TIP3    H129081   7.897   1.295   0.247
 9712TIP3    H229082   7.944   1.437   0.265
 9713TIP3   OH229083   7.907   5.918   0.561
 9713TIP3    H129084   7.826   5.900   0.513
 9713TIP3    H229085   7.976   5.907   0.495
 9714TIP3   OH229086   4.970   6.257   0.565
 9714TIP3    H129087   4.911   6.271   0.491
 9714TIP3    H229088   5.055   6.240   0.526
 9715TIP3   OH229089   3.257   5.031   3.401
 9715TIP3    H129090   3.344   5.059   3.429
 9715TIP3    H229091   3.209   5.112   3.386
 9716TIP3   OH229092   0.736   6.736   2.480
 9716TIP3    H129093   0.768   6.741   2.390
 9716TIP3    H229094   0.748   6.825   2.515
 9717TIP3   OH229095   2.302   4.426   1.465
 9717TIP3    H129096   2.271   4.383   1.386
 9717TIP3    H229097   2.224   4.435   1.520
 9718TIP3   OH229098   7.080   0.989   6.027
 9718TIP3    H129099   7.080   1.080   5.996
 9718TIP3    H229100   7.170   0.959   6.015
 9719TIP3   OH229101   0.043   3.539   2.966
 9719TIP3    H129102   0.056   3.596   3.042
 9719TIP3    H229103   0.095   3.461   2.987
 9720TIP3   OH229104   4.105   5.334   0.632
 9720TIP3    H129105   4.047   5.260   0.648
 9720TIP3    H229106   4.160   5.340   0.709
 9721TIP3   OH229107   6.967   7.543   2.684
 9721TIP3    H129108   7.059   7.568   2.673
 9721TIP3    H229109   6.919   7.607   2.633
 9722TIP3   OH229110   4.429   6.676   3.604
 9722TIP3    H129111   4.440   6.755   3.550
 9722TIP3    H229112   4.379   6.706   3.680
 9723TIP3   OH229113   7.666   3.824   2.200
 9723TIP3    H129114   7.733   3.761   2.226
 9723TIP3    H229115   7.705   3.909   2.217
 9724TIP3   OH229116   0.445   6.497   0.169
 9724TIP3    H129117   0.356   6.526   0.147
 9724TIP3    H229118   0.493   6.503   0.086
 9725TIP3   OH229119   5.946   2.452   5.904
 9725TIP3    H129120   6.037   2.450   5.933
 9725TIP3    H229121   5.916   2.361   5.914
 9726TIP3   OH229122   5.073   4.269   0.714
 9726TIP3    H129123   5.004   4.282   0.778
 9726TIP3    H229124   5.060   4.338   0.648
 9727TIP3   OH229125   6.614   0.013   5.420
 9727TIP3    H129126   6.617  -0.015   5.511
 9727TIP3    H229127   6.566  -0.056   5.375
 9728TIP3   OH229128   4.995   5.793   3.695
 9728TIP3    H129129   5.010   5.700   3.714
 9728TIP3    H229130   4.973   5.832   3.779
 9729TIP3   OH229131   1.323   6.107   2.711
 9729TIP3    H129132   1.352   6.182   2.658
 9729TIP3    H229133   1.361   6.031   2.667
 9730TIP3   OH229134   5.745   3.597   5.055
 9730TIP3    H129135   5.712   3.682   5.084
 9730TIP3    H229136   5.811   3.619   4.989
 9731TIP3   OH229137   7.240   0.222   3.470
 9731TIP3    H129138   7.174   0.284   3.503
 9731TIP3    H229139   7.214   0.138   3.506
 9732TIP3   OH229140   3.662   3.127   2.867
 9732TIP3    H129141   3.726   3.157   2.932
 9732TIP3    H229142   3.605   3.067   2.915
 9733TIP3   OH229143   1.204   0.077   4.806
 9733TIP3    H129144   1.151   0.015   4.857
 9733TIP3    H229145   1.203   0.157   4.857
 9734TIP3   OH229146   0.418   3.412   1.042
 9734TIP3    H129147   0.360   3.336   1.031
 9734TIP3    H229148   0.382   3.478   0.982
 9735TIP3   OH229149   3.738   6.584   0.063
 9735TIP3    H129150   3.755   6.534   0.143
 9735TIP3    H229151   3.744   6.676   0.090
 9736TIP3   OH229152   8.170   2.724   2.426
 9736TIP3    H129153   8.130   2.641   2.447
 9736TIP3    H229154   8.164   2.776   2.506
 9737TIP3   OH229155   4.228   0.524   2.444
 9737TIP3    H129156   4.140   0.503   2.415
 9737TIP3    H229157   4.219   0.537   2.539
 9738TIP3   OH229158   6.558   5.110   3.356
 9738TIP3    H129159   6.607   5.181   3.397
 9738TIP3    H229160   6.624   5.055   3.314
 9739TIP3   OH229161   6.950   5.444   3.809
 9739TIP3    H129162   6.871   5.394   3.826
 9739TIP3    H229163   6.925   5.535   3.820
 9740TIP3   OH229164   5.614   7.648   0.698
 9740TIP3    H129165   5.523   7.630   0.675
 9740TIP3    H229166   5.647   7.704   0.627
 9741TIP3   OH229167   2.916   4.092   3.465
 9741TIP3    H129168   2.954   4.144   3.535
 9741TIP3    H229169   2.867   4.156   3.412
 9742TIP3   OH229170   3.466   2.475   0.780
 9742TIP3    H129171   3.489   2.567   0.767
 9742TIP3    H229172   3.469   2.437   0.692
 9743TIP3   OH229173   7.212   1.115   3.786
 9743TIP3    H129174   7.142   1.063   3.745
 9743TIP3    H229175   7.226   1.187   3.725
 9744TIP3   OH229176   0.818   5.762   1.790
 9744TIP3    H129177   0.745   5.719   1.836
 9744TIP3    H229178   0.874   5.689   1.762
 9745TIP3   OH229179   7.546   4.006   6.036
 9745TIP3    H129180   7.497   4.010   6.118
 9745TIP3    H229181   7.544   4.095   6.002
 9746TIP3   OH229182   1.826   2.938   1.960
 9746TIP3    H129183   1.738   2.973   1.973
 9746TIP3    H229184   1.884   3.009   1.987
 9747TIP3   OH229185   1.697   7.094   0.078
 9747TIP3    H129186   1.609   7.061   0.097
 9747TIP3    H229187   1.701   7.179   0.121
 9748TIP3   OH229188   3.128   2.145   3.650
 9748TIP3    H129189   3.185   2.222   3.650
 9748TIP3    H229190   3.186   2.072   3.628
 9749TIP3   OH229191   3.218   6.080   1.352
 9749TIP3    H129192   3.208   6.170   1.319
 9749TIP3    H229193   3.135   6.061   1.394
 9750TIP3   OH229194   5.612   6.129   4.226
 9750TIP3    H129195   5.564   6.212   4.233
 9750TIP3    H229196   5.673   6.131   4.300
 9751TIP3   OH229197   7.637   6.043   3.327
 9751TIP3    H129198   7.619   6.094   3.406
 9751TIP3    H229199   7.692   6.100   3.273
 9752TIP3   OH229200   6.055   0.354   5.471
 9752TIP3    H129201   6.010   0.270   5.463
 9752TIP3    H229202   6.091   0.370   5.383
 9753TIP3   OH229203   0.406   4.567   4.943
 9753TIP3    H129204   0.453   4.556   5.025
 9753TIP3    H229205   0.391   4.478   4.911
 9754TIP3   OH229206   0.492   6.828   3.159
 9754TIP3    H129207   0.521   6.916   3.181
 9754TIP3    H229208   0.560   6.770   3.195
 9755TIP3   OH229209   6.341   3.591   0.020
 9755TIP3    H129210   6.426   3.552   0.040
 9755TIP3    H229211   6.278   3.520   0.033
 9756TIP3   OH229212   5.213   1.821   0.363
 9756TIP3    H129213   5.171   1.747   0.407
 9756TIP3    H229214   5.280   1.850   0.425
 9757TIP3   OH229215   5.298   6.224   4.808
 9757TIP3    H129216   5.236   6.274   4.860
 9757TIP3    H229217   5.261   6.136   4.803
 9758TIP3   OH229218   6.330   4.088   0.920
 9758TIP3    H129219   6.376   4.139   0.987
 9758TIP3    H229220   6.284   4.153   0.867
 9759TIP3   OH229221   4.176   6.702   4.388
 9759TIP3    H129222   4.172   6.775   4.450
 9759TIP3    H229223   4.215   6.630   4.438
 9760TIP3   OH229224   1.870   5.076   3.318
 9760TIP3    H129225   1.962   5.057   3.334
 9760TIP3    H229226   1.859   5.065   3.223
 9761TIP3   OH229227   0.920   1.066   4.353
 9761TIP3    H129228   0.994   1.010   4.331
 9761TIP3    H229229   0.843   1.017   4.323
 9762TIP3   OH229230   2.866   7.625   1.421
 9762TIP3    H129231   2.870   7.575   1.340
 9762TIP3    H229232   2.778   7.663   1.422
 9763TIP3   OH229233   4.382   2.856   1.989
 9763TIP3    H129234   4.335   2.814   1.917
 9763TIP3    H229235   4.387   2.790   2.058
 9764TIP3   OH229236   4.690   2.519   3.116
 9764TIP3    H129237   4.763   2.578   3.138
 9764TIP3    H229238   4.651   2.497   3.201
 9765TIP3   OH229239   7.402   2.523   3.832
 9765TIP3    H129240   7.386   2.605   3.879
 9765TIP3    H229241   7.371   2.539   3.743
 9766TIP3   OH229242   6.073   5.850   2.828
 9766TIP3    H129243   6.051   5.833   2.920
 9766TIP3    H229244   6.153   5.902   2.832
 9767TIP3   OH229245   6.851   0.252   4.308
 9767TIP3    H129246   6.777   0.194   4.289
 9767TIP3    H229247   6.911   0.198   4.360
 9768TIP3   OH229248   0.869   6.306   4.127
 9768TIP3    H129249   0.940   6.345   4.179
 9768TIP3    H229250   0.859   6.218   4.164
 9769TIP3   OH229251   4.082   5.147   2.777
 9769TIP3    H129252   4.171   5.156   2.743
 9769TIP3    H229253   4.086   5.185   2.865
 9770TIP3   OH229254   5.016   3.283   3.273
 9770TIP3    H129255   5.024   3.341   3.349
 9770TIP3    H229256   5.104   3.280   3.236
 9771TIP3   OH229257   5.147   1.853   4.149
 9771TIP3    H129258   5.150   1.843   4.245
 9771TIP3    H229259   5.184   1.940   4.134
 9772TIP3   OH229260   3.240   3.508   0.166
 9772TIP3    H129261   3.181   3.534   0.096
 9772TIP3    H229262   3.245   3.586   0.222
 9773TIP3   OH229263   4.583   0.835  -0.025
 9773TIP3    H129264   4.509   0.793   0.018
 9773TIP3    H229265   4.608   0.906   0.034
 9774TIP3   OH229266   1.808   7.703   1.146
 9774TIP3    H129267   1.809   7.654   1.228
 9774TIP3    H229268   1.767   7.644   1.083
 9775TIP3   OH229269   2.589   0.383   3.309
 9775TIP3    H129270   2.662   0.441   3.290
 9775TIP3    H229271   2.545   0.371   3.224
 9776TIP3   OH229272   3.239   5.222   5.756
 9776TIP3    H129273   3.300   5.169   5.807
 9776TIP3    H229274   3.289   5.250   5.679
 9777TIP3   OH229275   7.630   2.002   4.025
 9777TIP3    H129276   7.620   2.027   3.933
 9777TIP3    H229277   7.642   2.085   4.072
 9778TIP3   OH229278   3.720   0.858   2.454
 9778TIP3    H129279   3.771   0.846   2.534
 9778TIP3    H229280   3.785   0.860   2.384
 9779TIP3   OH229281   0.136   7.292   1.548
 9779TIP3    H129282   0.192   7.343   1.606
 9779TIP3    H229283   0.153   7.201   1.572
 9780TIP3   OH229284   7.379   2.980   6.507
 9780TIP3    H129285   7.465   2.991   6.548
 9780TIP3    H229286   7.340   3.068   6.509
 9781TIP3   OH229287   4.227   4.494   3.161
 9781TIP3    H129288   4.166   4.440   3.212
 9781TIP3    H229289   4.268   4.432   3.101
 9782TIP3   OH229290   5.622   0.706   4.472
 9782TIP3    H129291   5.570   0.766   4.418
 9782TIP3    H229292   5.575   0.704   4.556
 9783TIP3   OH229293   3.262   6.313   3.999
 9783TIP3    H129294   3.241   6.341   3.910
 9783TIP3    H229295   3.189   6.345   4.052
 9784TIP3   OH229296   5.059   2.020   0.911
 9784TIP3    H129297   5.093   2.088   0.969
 9784TIP3    H229298   4.965   2.022   0.924
 9785TIP3   OH229299   0.988   5.140   6.405
 9785TIP3    H129300   0.940   5.210   6.448
 9785TIP3    H229301   0.980   5.158   6.312
 9786TIP3   OH229302   0.942   7.625   4.549
 9786TIP3    H129303   0.888   7.555   4.510
 9786TIP3    H229304   0.977   7.586   4.629
 9787TIP3   OH229305   6.848   0.949   5.402
 9787TIP3    H129306   6.807   0.896   5.334
 9787TIP3    H229307   6.798   0.931   5.481
 9788TIP3   OH229308   6.930   6.143   4.318
 9788TIP3    H129309   6.950   6.208   4.251
 9788TIP3    H229310   7.015   6.119   4.355
 9789TIP3   OH229311   4.296   5.014   3.189
 9789TIP3    H129312   4.285   4.923   3.215
 9789TIP3    H229313   4.331   5.058   3.266
 9790TIP3   OH229314   1.782   2.173   2.424
 9790TIP3    H129315   1.762   2.117   2.349
 9790TIP3    H229316   1.698   2.188   2.467
 9791TIP3   OH229317   0.019   4.557   0.594
 9791TIP3    H129318   0.008   4.627   0.659
 9791TIP3    H229319   0.110   4.567   0.564
 9792TIP3   OH229320   2.576   2.191   6.093
 9792TIP3    H129321   2.602   2.251   6.024
 9792TIP3    H229322   2.654   2.139   6.111
 9793TIP3   OH229323   1.491   4.003   2.738
 9793TIP3    H129324   1.425   3.942   2.771
 9793TIP3    H229325   1.470   4.013   2.645
 9794TIP3   OH229326   7.122   6.663   6.478
 9794TIP3    H129327   7.214   6.639   6.469
 9794TIP3    H229328   7.121   6.730   6.546
 9795TIP3   OH229329   8.001   1.394   4.398
 9795TIP3    H129330   8.045   1.421   4.479
 9795TIP3    H229331   8.041   1.447   4.329
 9796TIP3   OH229332   7.373   6.692   1.193
 9796TIP3    H129333   7.457   6.649   1.181
 9796TIP3    H229334   7.366   6.707   1.287
 9797TIP3   OH229335   7.184   5.829   4.248
 9797TIP3    H129336   7.169   5.856   4.339
 9797TIP3    H229337   7.275   5.798   4.247
 9798TIP3   OH229338   0.643   3.729   1.487
 9798TIP3    H129339   0.725   3.731   1.537
 9798TIP3    H229340   0.668   3.691   1.403
 9799TIP3   OH229341   0.818   7.681   2.508
 9799TIP3    H129342   0.869   7.654   2.431
 9799TIP3    H229343   0.873   7.655   2.582
 9800TIP3   OH229344   1.859   6.560   2.298
 9800TIP3    H129345   1.859   6.485   2.357
 9800TIP3    H229346   1.778   6.552   2.247
 9801TIP3   OH229347   5.197   4.390   1.494
 9801TIP3    H129348   5.226   4.481   1.501
 9801TIP3    H229349   5.154   4.385   1.409
 9802TIP3   OH229350   5.008   2.767   1.372
 9802TIP3    H129351   4.989   2.753   1.280
 9802TIP3    H229352   5.070   2.840   1.373
 9803TIP3   OH229353   2.881   6.093   6.088
 9803TIP3    H129354   2.788   6.105   6.105
 9803TIP3    H229355   2.893   5.998   6.081
 9804TIP3   OH229356   4.191   1.446   1.219
 9804TIP3    H129357   4.226   1.530   1.191
 9804TIP3    H229358   4.107   1.467   1.260
 9805TIP3   OH229359   3.662   3.712   4.625
 9805TIP3    H129360   3.722   3.659   4.678
 9805TIP3    H229361   3.719   3.762   4.567
 9806TIP3   OH229362   5.842   1.789   3.735
 9806TIP3    H129363   5.757   1.746   3.719
 9806TIP3    H229364   5.827   1.880   3.708
 9807TIP3   OH229365   4.769   3.120   3.551
 9807TIP3    H129366   4.716   3.124   3.471
 9807TIP3    H229367   4.805   3.208   3.560
 9808TIP3   OH229368   5.985   1.402   2.100
 9808TIP3    H129369   5.986   1.326   2.042
 9808TIP3    H229370   6.077   1.417   2.123
 9809TIP3   OH229371  -0.021   5.047   2.640
 9809TIP3    H129372   0.028   5.074   2.562
 9809TIP3    H229373   0.017   5.098   2.711
 9810TIP3   OH229374   1.239   2.896   5.565
 9810TIP3    H129375   1.238   2.968   5.627
 9810TIP3    H229376   1.150   2.891   5.532
 9811TIP3   OH229377   7.490   1.580   5.390
 9811TIP3    H129378   7.556   1.639   5.427
 9811TIP3    H229379   7.541   1.514   5.342
 9812TIP3   OH229380   6.158   3.424   0.615
 9812TIP3    H129381   6.204   3.508   0.616
 9812TIP3    H229382   6.110   3.424   0.532
 9813TIP3   OH229383   2.116   0.940   6.210
 9813TIP3    H129384   2.027   0.953   6.176
 9813TIP3    H229385   2.105   0.938   6.305
 9814TIP3   OH229386   3.415   4.574   4.676
 9814TIP3    H129387   3.487   4.588   4.614
 9814TIP3    H229388   3.458   4.537   4.754
 9815TIP3   OH229389   5.297   3.875   0.215
 9815TIP3    H129390   5.274   3.865   0.308
 9815TIP3    H229391   5.392   3.892   0.216
 9816TIP3   OH229392   7.696   4.630   0.176
 9816TIP3    H129393   7.623   4.627   0.238
 9816TIP3    H229394   7.691   4.717   0.137
 9817TIP3   OH229395   5.951   7.143   4.315
 9817TIP3    H129396   5.946   7.185   4.401
 9817TIP3    H229397   5.986   7.056   4.333
 9818TIP3   OH229398   5.149   3.945   2.723
 9818TIP3    H129399   5.082   3.908   2.781
 9818TIP3    H229400   5.163   3.877   2.657
 9819TIP3   OH229401   5.302   1.047   6.585
 9819TIP3    H129402   5.275   1.105   6.656
 9819TIP3    H229403   5.333   0.968   6.629
 9820TIP3   OH229404   4.830   0.792   4.140
 9820TIP3    H129405   4.913   0.839   4.136
 9820TIP3    H229406   4.820   0.767   4.232
 9821TIP3   OH229407   1.019   1.951   3.546
 9821TIP3    H129408   0.986   1.886   3.484
 9821TIP3    H229409   1.082   1.903   3.599
 9822TIP3   OH229410   2.725   1.188   5.453
 9822TIP3    H129411   2.729   1.103   5.410
 9822TIP3    H229412   2.669   1.241   5.397
 9823TIP3   OH229413   7.636   5.126   5.536
 9823TIP3    H129414   7.664   5.195   5.475
 9823TIP3    H229415   7.540   5.125   5.528
 9824TIP3   OH229416   6.265   2.131   5.591
 9824TIP3    H129417   6.276   2.104   5.683
 9824TIP3    H229418   6.326   2.205   5.581
 9825TIP3   OH229419   2.043   2.096   6.556
 9825TIP3    H129420   2.085   2.128   6.476
 9825TIP3    H229421   1.999   2.172   6.592
 9826TIP3   OH229422   7.030   5.256   6.011
 9826TIP3    H129423   6.942   5.283   6.035
 9826TIP3    H229424   7.085   5.331   6.032
 9827TIP3   OH229425   2.401   3.981   5.936
 9827TIP3    H129426   2.325   3.927   5.915
 9827TIP3    H229427   2.432   4.013   5.852
 9828TIP3   OH229428   1.498   6.711   1.306
 9828TIP3    H129429   1.418   6.716   1.252
 9828TIP3    H229430   1.471   6.662   1.384
 9829TIP3   OH229431   2.122   0.308   0.316
 9829TIP3    H129432   2.102   0.281   0.227
 9829TIP3    H229433   2.063   0.382   0.333
 9830TIP3   OH229434   0.112   2.023   1.656
 9830TIP3    H129435   0.185   1.979   1.701
 9830TIP3    H229436   0.102   1.974   1.575
 9831TIP3   OH229437   4.355   4.272   6.751
 9831TIP3    H129438   4.436   4.308   6.716
 9831TIP3    H229439   4.320   4.341   6.807
 9832TIP3   OH229440   5.029   6.445   0.128
 9832TIP3    H129441   5.024   6.350   0.137
 9832TIP3    H229442   5.123   6.463   0.115
 9833TIP3   OH229443   3.932   1.784   0.676
 9833TIP3    H129444   3.991   1.733   0.731
 9833TIP3    H229445   3.983   1.859   0.648
 9834TIP3   OH229446   8.024   1.927   1.625
 9834TIP3    H129447   8.028   1.887   1.538
 9834TIP3    H229448   8.062   2.014   1.614
 9835TIP3   OH229449   4.559   0.437   4.007
 9835TIP3    H129450   4.635   0.492   3.990
 9835TIP3    H229451   4.552   0.380   3.931
 9836TIP3   OH229452   0.456   5.500   1.223
 9836TIP3    H129453   0.433   5.538   1.308
 9836TIP3    H229454   0.415   5.559   1.159
 9837TIP3   OH229455   7.110   5.216   1.548
 9837TIP3    H129456   7.117   5.169   1.465
 9837TIP3    H229457   7.112   5.309   1.523
 9838TIP3   OH229458   5.612   0.687   4.906
 9838TIP3    H129459   5.549   0.730   4.848
 9838TIP3    H229460   5.616   0.744   4.983
 9839TIP3   OH229461   1.790   0.047   6.002
 9839TIP3    H129462   1.790  -0.032   6.056
 9839TIP3    H229463   1.721   0.033   5.938
 9840TIP3   OH229464   7.748   3.864   1.110
 9840TIP3    H129465   7.706   3.936   1.062
 9840TIP3    H229466   7.675   3.810   1.141
 9841TIP3   OH229467   2.966   2.773   1.649
 9841TIP3    H129468   2.918   2.814   1.721
 9841TIP3    H229469   2.996   2.846   1.596
 9842TIP3   OH229470   6.249   3.676   0.299
 9842TIP3    H129471   6.282   3.765   0.294
 9842TIP3    H229472   6.195   3.666   0.220
 9843TIP3   OH229473   0.394   6.319   1.484
 9843TIP3    H129474   0.412   6.400   1.437
 9843TIP3    H229475   0.299   6.313   1.486
 9844TIP3   OH229476   4.536   6.566   5.104
 9844TIP3    H129477   4.458   6.608   5.066
 9844TIP3    H229478   4.500   6.507   5.171
 9845TIP3   OH229479   5.809   6.087   4.448
 9845TIP3    H129480   5.831   6.174   4.414
 9845TIP3    H229481   5.846   6.026   4.384
 9846TIP3   OH229482   3.582   2.022   4.916
 9846TIP3    H129483   3.611   2.020   4.825
 9846TIP3    H229484   3.531   2.102   4.923
 9847TIP3   OH229485   3.743   6.147   6.020
 9847TIP3    H129486   3.785   6.159   6.105
 9847TIP3    H229487   3.692   6.227   6.006
 9848TIP3   OH229488   7.846   2.746   5.534
 9848TIP3    H129489   7.864   2.664   5.579
 9848TIP3    H229490   7.754   2.738   5.506
 9849TIP3   OH229491   1.115   0.441   6.025
 9849TIP3    H129492   1.088   0.520   6.071
 9849TIP3    H229493   1.112   0.465   5.932
 9850TIP3   OH229494   5.217   4.816   6.697
 9850TIP3    H129495   5.306   4.805   6.731
 9850TIP3    H229496   5.187   4.727   6.679
 9851TIP3   OH229497   7.319   4.218   5.955
 9851TIP3    H129498   7.279   4.254   5.876
 9851TIP3    H229499   7.332   4.293   6.012
 9852TIP3   OH229500   1.859   0.721   6.663
 9852TIP3    H129501   1.886   0.766   6.742
 9852TIP3    H229502   1.813   0.787   6.612
 9853TIP3   OH229503   0.663   2.261   1.695
 9853TIP3    H129504   0.710   2.223   1.769
 9853TIP3    H229505   0.630   2.185   1.647
 9854TIP3   OH229506   8.247   3.587   4.682
 9854TIP3    H129507   8.194   3.513   4.651
 9854TIP3    H229508   8.305   3.549   4.747
 9855TIP3   OH229509   5.641   2.166   1.556
 9855TIP3    H129510   5.705   2.237   1.555
 9855TIP3    H229511   5.559   2.206   1.528
 9856TIP3   OH229512   2.335   5.899   6.752
 9856TIP3    H129513   2.344   5.926   6.843
 9856TIP3    H229514   2.424   5.879   6.723
 9857TIP3   OH229515   7.023   4.530   0.284
 9857TIP3    H129516   6.931   4.512   0.304
 9857TIP3    H229517   7.029   4.519   0.189
 9858TIP3   OH229518   4.020   2.703   0.471
 9858TIP3    H129519   3.991   2.762   0.541
 9858TIP3    H229520   3.944   2.697   0.413
 9859TIP3   OH229521   2.145   5.486   0.658
 9859TIP3    H129522   2.200   5.427   0.710
 9859TIP3    H229523   2.197   5.506   0.580
 9860TIP3   OH229524   5.356   4.716   4.602
 9860TIP3    H129525   5.317   4.640   4.645
 9860TIP3    H229526   5.308   4.725   4.520
 9861TIP3   OH229527   8.290   1.956   5.730
 9861TIP3    H129528   8.203   1.917   5.736
 9861TIP3    H229529   8.278   2.035   5.678
 9862TIP3   OH229530   0.478   7.629   3.779
 9862TIP3    H129531   0.433   7.573   3.715
 9862TIP3    H229532   0.424   7.622   3.858
 9863TIP3   OH229533   4.398   2.816   0.953
 9863TIP3    H129534   4.449   2.866   0.890
 9863TIP3    H229535   4.316   2.864   0.961
 9864TIP3   OH229536   4.744   3.129   1.495
 9864TIP3    H129537   4.716   3.102   1.408
 9864TIP3    H229538   4.789   3.052   1.530
 9865TIP3   OH229539   3.022   5.194   6.338
 9865TIP3    H129540   2.998   5.222   6.249
 9865TIP3    H229541   3.116   5.178   6.334
 9866TIP3   OH229542   5.683   3.785   1.567
 9866TIP3    H129543   5.778   3.775   1.556
 9866TIP3    H229544   5.672   3.874   1.599
 9867TIP3   OH229545   1.779   3.317   2.092
 9867TIP3    H129546   1.791   3.269   2.173
 9867TIP3    H229547   1.867   3.350   2.070
 9868TIP3   OH229548   8.133   4.965   1.334
 9868TIP3    H129549   8.069   4.925   1.393
 9868TIP3    H229550   8.127   5.059   1.353
 9869TIP3   OH229551   1.572   3.483   3.903
 9869TIP3    H129552   1.628   3.444   3.970
 9869TIP3    H229553   1.497   3.517   3.952
 9870TIP3   OH229554   4.844   0.000   2.856
 9870TIP3    H129555   4.839   0.082   2.805
 9870TIP3    H229556   4.792   0.017   2.934
 9871TIP3   OH229557   4.779   2.186   4.913
 9871TIP3    H129558   4.693   2.176   4.872
 9871TIP3    H229559   4.782   2.278   4.940
 9872TIP3   OH229560   7.874   2.121   0.250
 9872TIP3    H129561   7.798   2.159   0.207
 9872TIP3    H229562   7.887   2.175   0.328
 9873TIP3   OH229563   7.557   7.526   0.050
 9873TIP3    H129564   7.493   7.479   0.103
 9873TIP3    H229565   7.524   7.520  -0.040
 9874TIP3   OH229566   4.404   4.305   3.620
 9874TIP3    H129567   4.420   4.346   3.705
 9874TIP3    H229568   4.401   4.211   3.638
 9875TIP3   OH229569   5.092   3.311   1.686
 9875TIP3    H129570   5.170   3.266   1.653
 9875TIP3    H229571   5.045   3.338   1.607
 9876TIP3   OH229572   1.010   3.158   0.457
 9876TIP3    H129573   1.013   3.119   0.544
 9876TIP3    H229574   1.062   3.100   0.402
 9877TIP3   OH229575   7.930   3.184   3.930
 9877TIP3    H129576   7.926   3.170   4.025
 9877TIP3    H229577   7.990   3.116   3.899
 9878TIP3   OH229578   0.428   6.792   1.401
 9878TIP3    H129579   0.357   6.857   1.401
 9878TIP3    H229580   0.497   6.833   1.349
 9879TIP3   OH229581   7.505   1.901   4.644
 9879TIP3    H129582   7.581   1.852   4.676
 9879TIP3    H229583   7.431   1.843   4.661
 9880TIP3   OH229584   2.885   5.067   5.174
 9880TIP3    H129585   2.980   5.062   5.160
 9880TIP3    H229586   2.865   5.161   5.166
 9881TIP3   OH229587   6.538   6.098   5.506
 9881TIP3    H129588   6.624   6.060   5.487
 9881TIP3    H229589   6.483   6.066   5.435
 9882TIP3   OH229590   7.187   4.528   4.219
 9882TIP3    H129591   7.167   4.509   4.128
 9882TIP3    H229592   7.212   4.621   4.219
 9883TIP3   OH229593   8.241   5.900   2.999
 9883TIP3    H129594   8.330   5.924   3.021
 9883TIP3    H229595   8.213   5.964   2.934
 9884TIP3   OH229596   7.164   0.794   2.652
 9884TIP3    H129597   7.086   0.779   2.705
 9884TIP3    H229598   7.143   0.757   2.567
 9885TIP3   OH229599   4.242   3.334   6.607
 9885TIP3    H129600   4.178   3.403   6.591
 9885TIP3    H229601   4.271   3.349   6.697
 9886TIP3   OH229602   6.493   7.510   6.717
 9886TIP3    H129603   6.543   7.444   6.668
 9886TIP3    H229604   6.490   7.477   6.806
 9887TIP3   OH229605   7.597   2.233   4.734
 9887TIP3    H129606   7.556   2.198   4.655
 9887TIP3    H229607   7.567   2.324   4.738
 9888TIP3   OH229608   8.181   2.630   5.497
 9888TIP3    H129609   8.125   2.653   5.423
 9888TIP3    H229610   8.259   2.592   5.457
 9889TIP3   OH229611   0.894   7.323   4.436
 9889TIP3    H129612   0.850   7.351   4.517
 9889TIP3    H229613   0.857   7.381   4.369
 9890TIP3   OH229614   4.548   6.918   1.754
 9890TIP3    H129615   4.615   6.870   1.803
 9890TIP3    H229616   4.488   6.851   1.722
 9891TIP3   OH229617   3.350   7.365   5.392
 9891TIP3    H129618   3.444   7.351   5.408
 9891TIP3    H229619   3.307   7.314   5.461
 9892TIP3   OH229620   4.030   5.200   3.510
 9892TIP3    H129621   4.035   5.108   3.484
 9892TIP3    H229622   4.096   5.210   3.578
 9893TIP3   OH229623   4.183   4.010   1.250
 9893TIP3    H129624   4.144   4.095   1.230
 9893TIP3    H229625   4.276   4.029   1.263
 9894TIP3   OH229626   2.586   0.178   5.028
 9894TIP3    H129627   2.634   0.121   5.087
 9894TIP3    H229628   2.527   0.120   4.981
 9895TIP3   OH229629   1.949   2.288   0.016
 9895TIP3    H129630   2.025   2.282  -0.041
 9895TIP3    H229631   1.948   2.205   0.063
 9896TIP3   OH229632   4.453   5.858   3.820
 9896TIP3    H129633   4.450   5.904   3.904
 9896TIP3    H229634   4.511   5.783   3.835
 9897TIP3   OH229635   4.872   7.041   4.810
 9897TIP3    H129636   4.893   7.133   4.825
 9897TIP3    H229637   4.799   7.023   4.870
 9898TIP3   OH229638   0.491   5.840   4.844
 9898TIP3    H129639   0.557   5.802   4.785
 9898TIP3    H229640   0.465   5.767   4.900
 9899TIP3   OH229641   2.855   0.427   5.330
 9899TIP3    H129642   2.845   0.365   5.257
 9899TIP3    H229643   2.938   0.401   5.371
 9900TIP3   OH229644   3.577   1.899   5.595
 9900TIP3    H129645   3.586   1.902   5.499
 9900TIP3    H229646   3.666   1.917   5.627
 9901TIP3   OH229647   3.340   0.745   1.021
 9901TIP3    H129648   3.314   0.673   1.079
 9901TIP3    H229649   3.429   0.766   1.049
 9902TIP3   OH229650   6.909   6.130   2.782
 9902TIP3    H129651   6.923   6.065   2.713
 9902TIP3    H229652   6.921   6.080   2.864
 9903TIP3   OH229653   1.956   4.451   0.848
 9903TIP3    H129654   1.931   4.448   0.756
 9903TIP3    H229655   2.043   4.412   0.850
 9904TIP3   OH229656   4.757   2.057   4.118
 9904TIP3    H129657   4.752   1.981   4.176
 9904TIP3    H229658   4.723   2.025   4.034
 9905TIP3   OH229659   7.158   5.740   3.885
 9905TIP3    H129660   7.143   5.687   3.807
 9905TIP3    H229661   7.165   5.676   3.956
 9906TIP3   OH229662   2.995   0.562   1.745
 9906TIP3    H129663   3.019   0.649   1.712
 9906TIP3    H229664   3.075   0.529   1.786
 9907TIP3   OH229665   1.217   4.934   4.059
 9907TIP3    H129666   1.194   5.024   4.084
 9907TIP3    H229667   1.143   4.881   4.090
 9908TIP3   OH229668   7.621   0.029   6.510
 9908TIP3    H129669   7.643   0.122   6.517
 9908TIP3    H229670   7.688  -0.016   6.562
 9909TIP3   OH229671   3.752   5.043   6.319
 9909TIP3    H129672   3.767   4.952   6.346
 9909TIP3    H229673   3.839   5.082   6.319
 9910TIP3   OH229674   3.194   6.584   4.596
 9910TIP3    H129675   3.121   6.532   4.563
 9910TIP3    H229676   3.167   6.675   4.581
 9911TIP3   OH229677   7.859   2.912   6.289
 9911TIP3    H129678   7.950   2.894   6.264
 9911TIP3    H229679   7.815   2.828   6.279
 9912TIP3   OH229680   1.291   1.324   0.355
 9912TIP3    H129681   1.347   1.392   0.316
 9912TIP3    H229682   1.340   1.294   0.432
 9913TIP3   OH229683   0.794   1.289   3.692
 9913TIP3    H129684   0.781   1.238   3.612
 9913TIP3    H229685   0.781   1.226   3.763
 9914TIP3   OH229686   5.687   3.214   4.365
 9914TIP3    H129687   5.757   3.260   4.412
 9914TIP3    H229688   5.675   3.264   4.285
 9915TIP3   OH229689   2.724   0.273   5.782
 9915TIP3    H129690   2.782   0.229   5.844
 9915TIP3    H229691   2.764   0.359   5.769
 9916TIP3   OH229692   6.297   0.892   4.804
 9916TIP3    H129693   6.336   0.909   4.890
 9916TIP3    H229694   6.315   0.972   4.754
 9917TIP3   OH229695   6.728   1.239   3.079
 9917TIP3    H129696   6.698   1.170   3.139
 9917TIP3    H229697   6.749   1.312   3.137
 9918TIP3   OH229698   0.191   4.560   2.917
 9918TIP3    H129699   0.122   4.577   2.982
 9918TIP3    H229700   0.234   4.481   2.949
 9919TIP3   OH229701   3.325   4.124   0.332
 9919TIP3    H129702   3.234   4.093   0.341
 9919TIP3    H229703   3.323   4.180   0.255
 9920TIP3   OH229704   5.977   6.774   2.583
 9920TIP3    H129705   5.908   6.750   2.521
 9920TIP3    H229706   6.050   6.802   2.527
 9921TIP3   OH229707   3.270   2.066   5.419
 9921TIP3    H129708   3.174   2.066   5.421
 9921TIP3    H229709   3.292   1.993   5.361
 9922TIP3   OH229710   6.881   5.676   0.380
 9922TIP3    H129711   6.881   5.771   0.378
 9922TIP3    H229712   6.839   5.650   0.298
 9923TIP3   OH229713   0.270   3.105   2.256
 9923TIP3    H129714   0.311   3.191   2.243
 9923TIP3    H229715   0.207   3.097   2.185
 9924TIP3   OH229716   7.024   7.170   3.614
 9924TIP3    H129717   7.015   7.173   3.709
 9924TIP3    H229718   7.069   7.088   3.597
 9925TIP3   OH229719   0.942   3.322   4.037
 9925TIP3    H129720   0.856   3.362   4.025
 9925TIP3    H229721   0.980   3.319   3.949
 9926TIP3   OH229722   3.734   2.586   5.025
 9926TIP3    H129723   3.760   2.495   5.009
 9926TIP3    H229724   3.736   2.594   5.121
 9927TIP3   OH229725   4.516   4.692   5.023
 9927TIP3    H129726   4.598   4.662   5.062
 9927TIP3    H229727   4.450   4.631   5.055
 9928TIP3   OH229728   3.146   7.304   3.380
 9928TIP3    H129729   3.141   7.254   3.461
 9928TIP3    H229730   3.147   7.237   3.311
 9929TIP3   OH229731   6.560   1.800   4.287
 9929TIP3    H129732   6.541   1.730   4.225
 9929TIP3    H229733   6.602   1.869   4.234
 9930TIP3   OH229734   0.125   5.651   2.720
 9930TIP3    H129735   0.061   5.707   2.763
 9930TIP3    H229736   0.210   5.689   2.744
 9931TIP3   OH229737   8.008   7.313   6.013
 9931TIP3    H129738   8.054   7.331   5.931
 9931TIP3    H229739   8.030   7.388   6.069
 9932TIP3   OH229740   2.199   1.561   6.387
 9932TIP3    H129741   2.206   1.471   6.354
 9932TIP3    H229742   2.280   1.574   6.437
 9933TIP3   OH229743   8.065   4.573   1.423
 9933TIP3    H129744   8.082   4.584   1.330
 9933TIP3    H229745   8.002   4.501   1.429
 9934TIP3   OH229746   2.744   4.166   1.466
 9934TIP3    H129747   2.692   4.185   1.544
 9934TIP3    H229748   2.834   4.186   1.492
 9935TIP3   OH229749   0.248   0.902   4.649
 9935TIP3    H129750   0.230   0.834   4.714
 9935TIP3    H229751   0.313   0.958   4.692
 9936TIP3   OH229752   7.297   5.462   5.998
 9936TIP3    H129753   7.270   5.485   6.087
 9936TIP3    H229754   7.353   5.535   5.971
 9937TIP3   OH229755   2.373   4.606   2.807
 9937TIP3    H129756   2.285   4.614   2.771
 9937TIP3    H229757   2.415   4.539   2.753
 9938TIP3   OH229758   4.246   2.605   4.034
 9938TIP3    H129759   4.255   2.597   4.129
 9938TIP3    H229760   4.329   2.571   3.999
 9939TIP3   OH229761   7.219   3.231   5.593
 9939TIP3    H129762   7.204   3.167   5.662
 9939TIP3    H229763   7.299   3.276   5.620
 9940TIP3   OH229764   2.853   7.333   4.858
 9940TIP3    H129765   2.764   7.349   4.889
 9940TIP3    H229766   2.859   7.384   4.777
 9941TIP3   OH229767   1.709   1.645   5.061
 9941TIP3    H129768   1.736   1.728   5.100
 9941TIP3    H229769   1.710   1.583   5.134
 9942TIP3   OH229770   4.993   5.387   0.699
 9942TIP3    H129771   5.014   5.459   0.639
 9942TIP3    H229772   4.899   5.377   0.693
 9943TIP3   OH229773   0.977   2.367   3.259
 9943TIP3    H129774   0.959   2.344   3.168
 9943TIP3    H229775   0.891   2.387   3.296
 9944TIP3   OH229776   3.678   3.608   5.878
 9944TIP3    H129777   3.773   3.604   5.873
 9944TIP3    H229778   3.649   3.521   5.853
 9945TIP3   OH229779   0.823   1.520   5.359
 9945TIP3    H129780   0.815   1.586   5.290
 9945TIP3    H229781   0.897   1.465   5.331
 9946TIP3   OH229782   4.497   2.561   2.590
 9946TIP3    H129783   4.553   2.489   2.562
 9946TIP3    H229784   4.482   2.545   2.683
 9947TIP3   OH229785   6.152   0.490   3.017
 9947TIP3    H129786   6.187   0.511   2.930
 9947TIP3    H229787   6.172   0.567   3.070
 9948TIP3   OH229788   1.289   5.843   6.454
 9948TIP3    H129789   1.254   5.929   6.477
 9948TIP3    H229790   1.361   5.829   6.516
 9949TIP3   OH229791   3.688   3.447   4.161
 9949TIP3    H129792   3.709   3.540   4.159
 9949TIP3    H229793   3.666   3.429   4.253
 9950TIP3   OH229794   5.461   2.669   2.683
 9950TIP3    H129795   5.491   2.579   2.673
 9950TIP3    H229796   5.413   2.669   2.766
 9951TIP3   OH229797   7.752   3.402   6.333
 9951TIP3    H129798   7.842   3.385   6.359
 9951TIP3    H229799   7.755   3.412   6.238
 9952TIP3   OH229800   2.221   4.105   5.177
 9952TIP3    H129801   2.259   4.033   5.127
 9952TIP3    H229802   2.252   4.091   5.267
 9953TIP3   OH229803   2.185   5.965   1.903
 9953TIP3    H129804   2.231   6.045   1.876
 9953TIP3    H229805   2.246   5.894   1.883
 9954TIP3   OH229806   8.195   1.493   1.579
 9954TIP3    H129807   8.219   1.510   1.488
 9954TIP3    H229808   8.205   1.398   1.589
 9955TIP3   OH229809   3.928   1.753   5.393
 9955TIP3    H129810   3.884   1.831   5.424
 9955TIP3    H229811   3.947   1.703   5.473
 9956TIP3   OH229812   0.321   2.524   3.447
 9956TIP3    H129813   0.376   2.527   3.525
 9956TIP3    H229814   0.365   2.461   3.389
 9957TIP3   OH229815   3.814   1.593   0.169
 9957TIP3    H129816   3.744   1.529   0.183
 9957TIP3    H229817   3.789   1.668   0.224
 9958TIP3   OH229818   2.001   5.270   0.479
 9958TIP3    H129819   2.019   5.354   0.436
 9958TIP3    H229820   2.079   5.253   0.532
 9959TIP3   OH229821   7.836   1.026   3.709
 9959TIP3    H129822   7.922   1.034   3.669
 9959TIP3    H229823   7.818   0.932   3.709
 9960TIP3   OH229824   6.559   6.533   4.623
 9960TIP3    H129825   6.486   6.585   4.658
 9960TIP3    H229826   6.570   6.461   4.685
 9961TIP3   OH229827   7.603   2.286   5.232
 9961TIP3    H129828   7.616   2.191   5.231
 9961TIP3    H229829   7.561   2.306   5.149
 9962TIP3   OH229830   6.589   0.711   1.805
 9962TIP3    H129831   6.527   0.732   1.735
 9962TIP3    H229832   6.651   0.651   1.764
 9963TIP3   OH229833   1.272   1.068   0.092
 9963TIP3    H129834   1.197   1.116   0.059
 9963TIP3    H229835   1.332   1.136   0.123
 9964TIP3   OH229836   5.975   5.224   6.570
 9964TIP3    H129837   5.988   5.273   6.651
 9964TIP3    H229838   6.005   5.135   6.590
 9965TIP3   OH229839   4.156   0.346   6.243
 9965TIP3    H129840   4.107   0.427   6.256
 9965TIP3    H229841   4.111   0.302   6.171
 9966TIP3   OH229842   4.941   4.676   1.284
 9966TIP3    H129843   5.003   4.662   1.212
 9966TIP3    H229844   4.917   4.768   1.278
 9967TIP3   OH229845   0.394   2.153   3.701
 9967TIP3    H129846   0.306   2.146   3.738
 9967TIP3    H229847   0.445   2.086   3.748
 9968TIP3   OH229848   4.886   6.712   0.643
 9968TIP3    H129849   4.790   6.711   0.643
 9968TIP3    H229850   4.911   6.630   0.685
 9969TIP3   OH229851   4.738   7.639   1.703
 9969TIP3    H129852   4.801   7.686   1.758
 9969TIP3    H229853   4.790   7.605   1.630
 9970TIP3   OH229854   1.619   1.136   6.536
 9970TIP3    H129855   1.602   1.042   6.533
 9970TIP3    H229856   1.703   1.144   6.580
 9971TIP3   OH229857   1.580   1.824   1.714
 9971TIP3    H129858   1.498   1.801   1.758
 9971TIP3    H229859   1.553   1.883   1.643
 9972TIP3   OH229860   1.986   2.203   2.118
 9972TIP3    H129861   1.925   2.276   2.124
 9972TIP3    H229862   2.030   2.201   2.203
 9973TIP3   OH229863   4.841   7.249   1.876
 9973TIP3    H129864   4.769   7.245   1.940
 9973TIP3    H229865   4.802   7.217   1.794
 9974TIP3   OH229866   0.770   1.815   3.647
 9974TIP3    H129867   0.740   1.901   3.617
 9974TIP3    H229868   0.697   1.756   3.627
 9975TIP3   OH229869   8.140   1.353   6.470
 9975TIP3    H129870   8.120   1.271   6.423
 9975TIP3    H229871   8.220   1.333   6.519
 9976TIP3   OH229872   6.745   3.109   3.762
 9976TIP3    H129873   6.826   3.059   3.772
 9976TIP3    H229874   6.728   3.108   3.668
 9977TIP3   OH229875   2.406   5.145   4.959
 9977TIP3    H129876   2.401   5.053   4.986
 9977TIP3    H229877   2.494   5.173   4.984
 9978TIP3   OH229878   7.819   1.814   4.838
 9978TIP3    H129879   7.828   1.828   4.933
 9978TIP3    H229880   7.827   1.720   4.827
 9979TIP3   OH229881   7.361   5.540   1.362
 9979TIP3    H129882   7.457   5.540   1.368
 9979TIP3    H229883   7.343   5.571   1.274
 9980TIP3   OH229884   4.884   0.968   2.981
 9980TIP3    H129885   4.875   0.898   3.046
 9980TIP3    H229886   4.977   0.989   2.981
 9981TIP3   OH229887   0.554   1.799   4.777
 9981TIP3    H129888   0.524   1.826   4.690
 9981TIP3    H229889   0.585   1.880   4.818
 9982TIP3   OH229890   4.786   1.552   1.902
 9982TIP3    H129891   4.741   1.599   1.972
 9982TIP3    H229892   4.814   1.620   1.841
 9983TIP3   OH229893   0.746   3.105   2.665
 9983TIP3    H129894   0.675   3.140   2.719
 9983TIP3    H229895   0.722   3.013   2.651
 9984TIP3   OH229896   1.606   7.651   2.522
 9984TIP3    H129897   1.547   7.593   2.473
 9984TIP3    H229898   1.654   7.699   2.454
 9985TIP3   OH229899   5.095   3.034   6.339
 9985TIP3    H129900   5.153   2.996   6.406
 9985TIP3    H229901   5.148   3.103   6.299
 9986TIP3   OH229902   4.603   4.709   5.949
 9986TIP3    H129903   4.516   4.684   5.981
 9986TIP3    H229904   4.609   4.803   5.966
 9987TIP3   OH229905   5.020   5.933   0.840
 9987TIP3    H129906   5.080   5.892   0.903
 9987TIP3    H229907   5.076   5.992   0.789
 9988TIP3   OH229908   8.026   0.917   5.183
 9988TIP3    H129909   8.049   0.856   5.253
 9988TIP3    H229910   8.019   1.002   5.228
 9989TIP3   OH229911   0.918   6.547   6.610
 9989TIP3    H129912   0.891   6.467   6.656
 9989TIP3    H229913   1.010   6.533   6.590
 9990TIP3   OH229914   6.943   3.077   0.757
 9990TIP3    H129915   6.871   3.140   0.761
 9990TIP3    H229916   7.022   3.132   0.755
 9991TIP3   OH229917   6.236   5.220   6.437
 9991TIP3    H129918   6.151   5.203   6.479
 9991TIP3    H229919   6.244   5.315   6.438
 9992TIP3   OH229920   6.473   6.143   4.959
 9992TIP3    H129921   6.402   6.078   4.966
 9992TIP3    H229922   6.503   6.155   5.050
 9993TIP3   OH229923   7.928   4.454   3.613
 9993TIP3    H129924   7.931   4.384   3.678
 9993TIP3    H229925   8.018   4.485   3.607
 9994TIP3   OH229926   3.039   3.079   3.388
 9994TIP3    H129927   3.077   3.091   3.475
 9994TIP3    H229928   3.041   3.166   3.348
 9995TIP3   OH229929   7.734   2.495   2.641
 9995TIP3    H129930   7.686   2.543   2.573
 9995TIP3    H229931   7.823   2.488   2.607
 9996TIP3   OH229932   1.925   2.670   6.504
 9996TIP3    H129933   1.926   2.646   6.597
 9996TIP3    H229934   1.981   2.748   6.500
 9997TIP3   OH229935   5.685   4.305   1.831
 9997TIP3    H129936   5.649   4.306   1.920
 9997TIP3    H229937   5.608   4.303   1.774
 9998TIP3   OH229938   6.404   0.402   0.827
 9998TIP3    H129939   6.310   0.412   0.811
 9998TIP3    H229940   6.409   0.335   0.896
 9999TIP3   OH229941   2.141   2.033   0.727
 9999TIP3    H129942   2.083   2.062   0.798
 9999TIP3    H229943   2.172   1.947   0.755
10000TIP3   OH229944   5.064   0.235   1.408
10000TIP3    H129945   5.086   0.324   1.433
10000TIP3    H229946   4.974   0.223   1.438
10001TIP3   OH229947   0.815   2.625   3.522
10001TIP3    H129948   0.881   2.684   3.485
10001TIP3    H229949   0.772   2.675   3.590
10002TIP3   OH229950   7.047   7.593   5.395
10002TIP3    H129951   6.998   7.658   5.344
10002TIP3    H229952   6.985   7.522   5.410
10003TIP3   OH229953   5.482   2.599   4.073
10003TIP3    H129954   5.403   2.554   4.104
10003TIP3    H229955   5.499   2.666   4.140
10004TIP3   OH229956   6.766   5.903   3.575
10004TIP3    H129957   6.845   5.898   3.521
10004TIP3    H229958   6.790   5.961   3.647
10005TIP3   OH229959   7.385   1.918   0.757
10005TIP3    H129960   7.306   1.906   0.705
10005TIP3    H229961   7.366   1.991   0.815
10006TIP3   OH229962   0.681   4.441   5.871
10006TIP3    H129963   0.729   4.375   5.821
10006TIP3    H229964   0.729   4.449   5.953
10007TIP3   OH229965   6.399   4.689   5.491
10007TIP3    H129966   6.402   4.781   5.465
10007TIP3    H229967   6.410   4.640   5.409
10008TIP3   OH229968   4.234   6.481   2.294
10008TIP3    H129969   4.322   6.449   2.314
10008TIP3    H229970   4.209   6.533   2.371
10009TIP3   OH229971   7.049   1.320   4.836
10009TIP3    H129972   6.991   1.243   4.835
10009TIP3    H229973   7.001   1.386   4.787
10010TIP3   OH229974   6.837   5.180   0.176
10010TIP3    H129975   6.821   5.160   0.268
10010TIP3    H229976   6.905   5.248   0.178
10011TIP3   OH229977   0.579   2.429   6.328
10011TIP3    H129978   0.544   2.504   6.376
10011TIP3    H229979   0.580   2.457   6.236
10012TIP3   OH229980   3.802   3.568   3.514
10012TIP3    H129981   3.868   3.577   3.583
10012TIP3    H229982   3.754   3.651   3.516
10013TIP3   OH229983   1.487   0.926   3.231
10013TIP3    H129984   1.465   0.913   3.139
10013TIP3    H229985   1.408   0.901   3.278
10014TIP3   OH229986   4.022   6.338   4.628
10014TIP3    H129987   4.043   6.421   4.673
10014TIP3    H229988   3.937   6.353   4.589
10015TIP3   OH229989   0.180   5.041   3.776
10015TIP3    H129990   0.234   5.093   3.716
10015TIP3    H229991   0.126   5.106   3.821
10016TIP3   OH229992   5.859   3.200   1.840
10016TIP3    H129993   5.878   3.271   1.779
10016TIP3    H229994   5.894   3.121   1.797
10017TIP3   OH229995   5.819   4.315   2.955
10017TIP3    H129996   5.787   4.242   2.903
10017TIP3    H229997   5.880   4.276   3.017
10018TIP3   OH229998   6.767   4.620   5.495
10018TIP3    H129999   6.749   4.538   5.450
10018TIP3    H230000   6.709   4.620   5.571
10019TIP3   OH230001   0.814   6.583   2.685
10019TIP3    H130002   0.743   6.627   2.733
10019TIP3    H230003   0.835   6.643   2.613
10020TIP3   OH230004   6.634   6.602   1.655
10020TIP3    H130005   6.539   6.614   1.661
10020TIP3    H230006   6.668   6.639   1.737
10021TIP3   OH230007   4.812   6.247   1.640
10021TIP3    H130008   4.893   6.298   1.634
10021TIP3    H230009   4.841   6.156   1.643
10022TIP3   OH230010   3.678   3.299   1.758
10022TIP3    H130011   3.707   3.386   1.730
10022TIP3    H230012   3.723   3.239   1.700
10023TIP3   OH230013   7.932   4.670   4.127
10023TIP3    H130014   7.902   4.760   4.112
10023TIP3    H230015   7.918   4.626   4.043
10024TIP3   OH230016   3.834   4.782   6.432
10024TIP3    H130017   3.779   4.706   6.413
10024TIP3    H230018   3.850   4.777   6.526
10025TIP3   OH230019   7.453   1.495   4.423
10025TIP3    H130020   7.496   1.579   4.411
10025TIP3    H230021   7.459   1.453   4.337
10026TIP3   OH230022   2.450   4.333   2.479
10026TIP3    H130023   2.432   4.268   2.547
10026TIP3    H230024   2.515   4.392   2.519
10027TIP3   OH230025   7.039   3.043   4.354
10027TIP3    H130026   7.063   2.995   4.276
10027TIP3    H230027   7.061   3.134   4.334
10028TIP3   OH230028   0.086   4.227   6.651
10028TIP3    H130029   0.092   4.260   6.561
10028TIP3    H230030   0.010   4.168   6.649
10029TIP3   OH230031   5.661   4.367   0.801
10029TIP3    H130032   5.673   4.281   0.843
10029TIP3    H230033   5.750   4.398   0.785
10030TIP3   OH230034   2.867   7.033   2.935
10030TIP3    H130035   2.962   7.026   2.941
10030TIP3    H230036   2.852   7.100   2.868
10031TIP3   OH230037   3.151   7.122   5.449
10031TIP3    H130038   3.132   7.186   5.381
10031TIP3    H230039   3.202   7.054   5.405
10032TIP3   OH230040   5.089   7.562   6.374
10032TIP3    H130041   4.997   7.569   6.347
10032TIP3    H230042   5.137   7.554   6.292
10033TIP3   OH230043   7.840   1.480   0.701
10033TIP3    H130044   7.873   1.561   0.740
10033TIP3    H230045   7.842   1.417   0.772
10034TIP3   OH230046   0.997   5.053   1.045
10034TIP3    H130047   1.046   5.032   1.124
10034TIP3    H230048   1.033   5.136   1.016
10035TIP3   OH230049   0.594   6.832   5.661
10035TIP3    H130050   0.655   6.904   5.672
10035TIP3    H230051   0.528   6.866   5.600
10036TIP3   OH230052   2.060   0.112   4.308
10036TIP3    H130053   2.074   0.066   4.226
10036TIP3    H230054   2.112   0.064   4.372
10037TIP3   OH230055   7.545   0.792   1.008
10037TIP3    H130056   7.566   0.882   0.981
10037TIP3    H230057   7.625   0.761   1.052
10038TIP3   OH230058   3.382   1.522   3.537
10038TIP3    H130059   3.449   1.549   3.473
10038TIP3    H230060   3.415   1.554   3.621
10039TIP3   OH230061   0.251   7.046   3.070
10039TIP3    H130062   0.257   7.033   2.975
10039TIP3    H230063   0.227   6.960   3.104
10040TIP3   OH230064   7.671   6.201   1.304
10040TIP3    H130065   7.682   6.106   1.302
10040TIP3    H230066   7.760   6.236   1.299
10041TIP3   OH230067   3.137   6.552   2.248
10041TIP3    H130068   3.077   6.626   2.236
10041TIP3    H230069   3.203   6.564   2.179
10042TIP3   OH230070   7.661   1.268   4.610
10042TIP3    H130071   7.725   1.242   4.544
10042TIP3    H230072   7.702   1.245   4.693
10043TIP3   OH230073   6.997   3.886   4.422
10043TIP3    H130074   6.965   3.927   4.502
10043TIP3    H230075   6.993   3.955   4.356
10044TIP3   OH230076   0.122   0.175   2.058
10044TIP3    H130077   0.116   0.219   1.973
10044TIP3    H230078   0.131   0.082   2.035
10045TIP3   OH230079   0.626   6.444   2.992
10045TIP3    H130080   0.717   6.421   2.971
10045TIP3    H230081   0.611   6.528   2.949
10046TIP3   OH230082   0.186   6.030   0.069
10046TIP3    H130083   0.254   6.017   0.003
10046TIP3    H230084   0.177   5.945   0.112
10047TIP3   OH230085   6.268   1.347   4.733
10047TIP3    H130086   6.288   1.259   4.702
10047TIP3    H230087   6.339   1.401   4.699
10048TIP3   OH230088   1.476   7.440   4.724
10048TIP3    H130089   1.536   7.449   4.798
10048TIP3    H230090   1.416   7.514   4.732
10049TIP3   OH230091   3.398   5.979   1.571
10049TIP3    H130092   3.461   5.937   1.512
10049TIP3    H230093   3.346   6.035   1.513
10050TIP3   OH230094   2.351   3.530   3.347
10050TIP3    H130095   2.309   3.445   3.334
10050TIP3    H230096   2.363   3.564   3.259
10051TIP3   OH230097   2.952   7.061   5.638
10051TIP3    H130098   3.017   7.064   5.567
10051TIP3    H230099   2.975   6.982   5.688
10052TIP3   OH230100   4.173   2.149   0.934
10052TIP3    H130101   4.128   2.232   0.948
10052TIP3    H230102   4.102   2.086   0.920
10053TIP3   OH230103   4.739   7.372   5.299
10053TIP3    H130104   4.658   7.332   5.331
10053TIP3    H230105   4.792   7.385   5.378
10054TIP3   OH230106   2.915   5.730   0.646
10054TIP3    H130107   2.886   5.695   0.731
10054TIP3    H230108   2.840   5.717   0.588
10055TIP3   OH230109   1.774   1.438   3.877
10055TIP3    H130110   1.716   1.468   3.806
10055TIP3    H230111   1.810   1.519   3.913
10056TIP3   OH230112   7.513   7.192   4.252
10056TIP3    H130113   7.491   7.241   4.173
10056TIP3    H230114   7.551   7.258   4.311
10057TIP3   OH230115   5.066   6.425   4.004
10057TIP3    H130116   5.131   6.471   3.950
10057TIP3    H230117   5.040   6.350   3.951
10058TIP3   OH230118   4.965   5.102   2.030
10058TIP3    H130119   4.953   5.097   2.124
10058TIP3    H230120   4.978   5.011   2.002
10059TIP3   OH230121   7.220   2.551   1.370
10059TIP3    H130122   7.271   2.620   1.327
10059TIP3    H230123   7.235   2.473   1.317
10060TIP3   OH230124   6.519   3.657   1.726
10060TIP3    H130125   6.554   3.721   1.664
10060TIP3    H230126   6.486   3.586   1.671
10061TIP3   OH230127   2.701   6.125   0.305
10061TIP3    H130128   2.705   6.138   0.210
10061TIP3    H230129   2.721   6.212   0.342
10062TIP3   OH230130   1.236   1.299   1.006
10062TIP3    H130131   1.204   1.292   0.916
10062TIP3    H230132   1.166   1.343   1.053
10063TIP3   OH230133   7.028   4.444   2.718
10063TIP3    H130134   6.964   4.435   2.647
10063TIP3    H230135   7.051   4.536   2.718
10064TIP3   OH230136   4.641   7.387   1.009
10064TIP3    H130137   4.627   7.302   0.967
10064TIP3    H230138   4.689   7.438   0.944
10065TIP3   OH230139   1.686   7.467   0.004
10065TIP3    H130140   1.687   7.434   0.094
10065TIP3    H230141   1.722   7.555   0.010
10066TIP3   OH230142   2.041   3.639   2.238
10066TIP3    H130143   2.095   3.618   2.314
10066TIP3    H230144   2.104   3.668   2.172
10067TIP3   OH230145   6.824   6.812   0.537
10067TIP3    H130146   6.908   6.858   0.531
10067TIP3    H230147   6.766   6.862   0.479
10068TIP3   OH230148   8.340   5.201   3.948
10068TIP3    H130149   8.316   5.284   3.906
10068TIP3    H230150   8.268   5.183   4.008
10069TIP3   OH230151   7.769   0.131   2.207
10069TIP3    H130152   7.725   0.046   2.202
10069TIP3    H230153   7.727   0.184   2.139
10070TIP3   OH230154   3.730   1.445   0.872
10070TIP3    H130155   3.688   1.531   0.879
10070TIP3    H230156   3.800   1.446   0.937
10071TIP3   OH230157   3.545   2.580   4.654
10071TIP3    H130158   3.472   2.625   4.611
10071TIP3    H230159   3.600   2.549   4.581
10072TIP3   OH230160   4.456   1.195   5.633
10072TIP3    H130161   4.476   1.118   5.580
10072TIP3    H230162   4.539   1.219   5.675
10073TIP3   OH230163   2.845   0.530   1.085
10073TIP3    H130164   2.761   0.520   1.040
10073TIP3    H230165   2.908   0.550   1.016
10074TIP3   OH230166   0.416   3.901   5.116
10074TIP3    H130167   0.371   3.881   5.033
10074TIP3    H230168   0.491   3.842   5.118
10075TIP3   OH230169   0.993   0.450   2.685
10075TIP3    H130170   1.050   0.507   2.738
10075TIP3    H230171   1.053   0.393   2.637
10076TIP3   OH230172   2.489   1.650   3.772
10076TIP3    H130173   2.402   1.684   3.750
10076TIP3    H230174   2.483   1.556   3.755
10077TIP3   OH230175   0.283   3.581   1.697
10077TIP3    H130176   0.198   3.563   1.737
10077TIP3    H230177   0.263   3.613   1.609
10078TIP3   OH230178   6.629   6.720   5.633
10078TIP3    H130179   6.567   6.780   5.590
10078TIP3    H230180   6.681   6.684   5.561
10079TIP3   OH230181   1.368   7.721   5.032
10079TIP3    H130182   1.378   7.640   4.980
10079TIP3    H230183   1.295   7.702   5.091
10080TIP3   OH230184   6.196   3.141   1.551
10080TIP3    H130185   6.105   3.161   1.573
10080TIP3    H230186   6.237   3.123   1.636
10081TIP3   OH230187   5.368   1.188   2.797
10081TIP3    H130188   5.423   1.110   2.809
10081TIP3    H230189   5.419   1.245   2.739
10082TIP3   OH230190   5.372   1.876   3.835
10082TIP3    H130191   5.365   1.926   3.916
10082TIP3    H230192   5.307   1.807   3.843
10083TIP3   OH230193   7.975   7.226   5.205
10083TIP3    H130194   7.915   7.290   5.243
10083TIP3    H230195   8.014   7.271   5.131
10084TIP3   OH230196   4.259   7.722   1.364
10084TIP3    H130197   4.280   7.763   1.448
10084TIP3    H230198   4.232   7.633   1.387
10085TIP3   OH230199   7.646   3.765   0.806
10085TIP3    H130200   7.629   3.764   0.712
10085TIP3    H230201   7.602   3.844   0.838
10086TIP3   OH230202   0.818   0.543   6.359
10086TIP3    H130203   0.795   0.577   6.273
10086TIP3    H230204   0.875   0.468   6.342
10087TIP3   OH230205   5.621   1.150   4.296
10087TIP3    H130206   5.713   1.124   4.303
10087TIP3    H230207   5.596   1.172   4.386
10088TIP3   OH230208   0.127   3.019   3.308
10088TIP3    H130209   0.114   2.963   3.384
10088TIP3    H230210   0.059   2.991   3.246
10089TIP3   OH230211   4.982   6.093   3.052
10089TIP3    H130212   4.997   6.177   3.094
10089TIP3    H230213   4.916   6.049   3.106
10090TIP3   OH230214   1.788   1.826   4.592
10090TIP3    H130215   1.799   1.737   4.625
10090TIP3    H230216   1.697   1.829   4.561
10091TIP3   OH230217   2.762   2.235   5.493
10091TIP3    H130218   2.680   2.251   5.446
10091TIP3    H230219   2.804   2.320   5.498
10092TIP3   OH230220   3.259   5.673   1.491
10092TIP3    H130221   3.351   5.680   1.468
10092TIP3    H230222   3.221   5.757   1.466
10093TIP3   OH230223   4.482   0.938   5.568
10093TIP3    H130224   4.457   0.918   5.658
10093TIP3    H230225   4.433   0.875   5.515
10094TIP3   OH230226   7.143   4.870   3.389
10094TIP3    H130227   7.217   4.846   3.332
10094TIP3    H230228   7.159   4.961   3.412
10095TIP3   OH230229   4.002   5.386   0.951
10095TIP3    H130230   4.038   5.327   1.017
10095TIP3    H230231   4.066   5.456   0.944
10096TIP3   OH230232   0.112   6.257   3.380
10096TIP3    H130233   0.119   6.332   3.438
10096TIP3    H230234   0.102   6.295   3.293
10097TIP3   OH230235   7.212   6.961   3.398
10097TIP3    H130236   7.155   6.972   3.322
10097TIP3    H230237   7.161   6.905   3.458
10098TIP3   OH230238   0.141   1.651   3.012
10098TIP3    H130239   0.101   1.725   2.965
10098TIP3    H230240   0.148   1.582   2.946
10099TIP3   OH230241   1.759   3.620   5.799
10099TIP3    H130242   1.825   3.629   5.867
10099TIP3    H230243   1.787   3.544   5.748
10100TIP3   OH230244   3.811   4.804   4.325
10100TIP3    H130245   3.769   4.809   4.239
10100TIP3    H230246   3.792   4.716   4.355
10101TIP3   OH230247   4.054   4.004   0.686
10101TIP3    H130248   4.140   3.992   0.727
10101TIP3    H230249   4.017   3.915   0.680
10102TIP3   OH230250   2.801   5.527   4.990
10102TIP3    H130251   2.870   5.465   5.012
10102TIP3    H230252   2.790   5.518   4.895
10103TIP3   OH230253   7.385   4.105   4.455
10103TIP3    H130254   7.338   4.065   4.528
10103TIP3    H230255   7.348   4.193   4.448
10104TIP3   OH230256   6.248   6.030   5.082
10104TIP3    H130257   6.282   6.054   5.168
10104TIP3    H230258   6.231   5.936   5.088
10105TIP3   OH230259   1.069   4.879   5.859
10105TIP3    H130260   1.070   4.832   5.943
10105TIP3    H230261   1.051   4.811   5.794
10106TIP3   OH230262   0.975   7.539   2.743
10106TIP3    H130263   1.041   7.573   2.804
10106TIP3    H230264   0.959   7.449   2.771
10107TIP3   OH230265   1.960   5.694   1.037
10107TIP3    H130266   1.968   5.624   1.102
10107TIP3    H230267   2.002   5.659   0.958
10108TIP3   OH230268   4.468   7.149   5.177
10108TIP3    H130269   4.449   7.204   5.253
10108TIP3    H230270   4.382   7.125   5.141
10109TIP3   OH230271   4.039   4.914   5.600
10109TIP3    H130272   4.075   4.959   5.677
10109TIP3    H230273   3.956   4.959   5.583
10110TIP3   OH230274   6.460   5.858   5.832
10110TIP3    H130275   6.445   5.902   5.748
10110TIP3    H230276   6.501   5.774   5.808
10111TIP3   OH230277   7.949   0.537   0.506
10111TIP3    H130278   7.960   0.446   0.478
10111TIP3    H230279   7.859   0.540   0.540
10112TIP3   OH230280   5.133   3.682   3.662
10112TIP3    H130281   5.110   3.620   3.592
10112TIP3    H230282   5.082   3.760   3.642
10113TIP3   OH230283   1.374   1.413   5.829
10113TIP3    H130284   1.391   1.373   5.914
10113TIP3    H230285   1.279   1.424   5.826
10114TIP3   OH230286   6.978   2.532   1.947
10114TIP3    H130287   6.944   2.573   1.868
10114TIP3    H230288   7.048   2.475   1.916
10115TIP3   OH230289   5.914   4.936   5.275
10115TIP3    H130290   5.870   4.952   5.358
10115TIP3    H230291   5.892   4.845   5.253
10116TIP3   OH230292   1.632   4.674   5.545
10116TIP3    H130293   1.647   4.752   5.597
10116TIP3    H230294   1.720   4.643   5.523
10117TIP3   OH230295   3.668   6.241   6.550
10117TIP3    H130296   3.592   6.262   6.495
10117TIP3    H230297   3.717   6.323   6.555
10118TIP3   OH230298   3.814   7.803   2.948
10118TIP3    H130299   3.859   7.728   2.908
10118TIP3    H230300   3.878   7.838   3.010
10119TIP3   OH230301   6.561   6.030   6.029
10119TIP3    H130302   6.557   5.958   5.966
10119TIP3    H230303   6.524   6.105   5.983
10120TIP3   OH230304   3.658   5.507   0.017
10120TIP3    H130305   3.581   5.470  -0.028
10120TIP3    H230306   3.622   5.576   0.072
10121TIP3   OH230307   4.000   3.927   5.869
10121TIP3    H130308   3.958   3.856   5.822
10121TIP3    H230309   3.938   4.000   5.864
10122TIP3   OH230310   2.278   0.067   4.482
10122TIP3    H130311   2.356   0.016   4.503
10122TIP3    H230312   2.312   0.154   4.459
10123TIP3   OH230313   1.275   2.294   4.768
10123TIP3    H130314   1.239   2.225   4.713
10123TIP3    H230315   1.311   2.248   4.844
10124TIP3   OH230316   8.065   5.285   4.040
10124TIP3    H130317   8.093   5.318   3.955
10124TIP3    H230318   7.996   5.345   4.068
10125TIP3   OH230319   0.216   2.096   1.313
10125TIP3    H130320   0.167   2.072   1.234
10125TIP3    H230321   0.200   2.190   1.322
10126TIP3   OH230322   0.444   5.206   2.812
10126TIP3    H130323   0.456   5.188   2.905
10126TIP3    H230324   0.361   5.254   2.808
10127TIP3   OH230325   1.874   4.862   0.787
10127TIP3    H130326   1.881   4.851   0.692
10127TIP3    H230327   1.843   4.952   0.798
10128TIP3   OH230328   5.589   6.801   5.400
10128TIP3    H130329   5.514   6.827   5.453
10128TIP3    H230330   5.612   6.879   5.349
10129TIP3   OH230331   6.275   5.965   1.553
10129TIP3    H130332   6.350   5.943   1.497
10129TIP3    H230333   6.225   5.884   1.559
10130TIP3   OH230334   1.751   4.777   6.278
10130TIP3    H130335   1.774   4.747   6.190
10130TIP3    H230336   1.687   4.846   6.263
10131TIP3   OH230337   2.176   1.369   1.481
10131TIP3    H130338   2.123   1.412   1.414
10131TIP3    H230339   2.143   1.403   1.564
10132TIP3   OH230340   5.006   4.424   2.511
10132TIP3    H130341   5.018   4.345   2.564
10132TIP3    H230342   4.947   4.479   2.563
10133TIP3   OH230343   0.898   4.321   3.204
10133TIP3    H130344   0.810   4.286   3.218
10133TIP3    H230345   0.942   4.256   3.149
10134TIP3   OH230346   1.778   0.863   2.427
10134TIP3    H130347   1.730   0.876   2.509
10134TIP3    H230348   1.847   0.929   2.429
10135TIP3   OH230349   5.411   0.223   4.224
10135TIP3    H130350   5.422   0.230   4.319
10135TIP3    H230351   5.346   0.290   4.203
10136TIP3   OH230352   0.062   1.311   6.233
10136TIP3    H130353   0.154   1.286   6.241
10136TIP3    H230354   0.014   1.238   6.271
10137TIP3   OH230355   8.066   0.112   1.659
10137TIP3    H130356   8.092   0.201   1.685
10137TIP3    H230357   8.000   0.126   1.591
10138TIP3   OH230358   2.647   2.659   1.825
10138TIP3    H130359   2.560   2.628   1.850
10138TIP3    H230360   2.694   2.581   1.798
10139TIP3   OH230361   1.746   6.151   4.999
10139TIP3    H130362   1.788   6.207   4.933
10139TIP3    H230363   1.795   6.068   4.994
10140TIP3   OH230364   1.773   0.320   5.461
10140TIP3    H130365   1.790   0.352   5.550
10140TIP3    H230366   1.812   0.386   5.404
10141TIP3   OH230367   5.786   0.760   1.414
10141TIP3    H130368   5.835   0.691   1.459
10141TIP3    H230369   5.826   0.841   1.446
10142TIP3   OH230370   7.034   1.199   2.445
10142TIP3    H130371   7.109   1.144   2.470
10142TIP3    H230372   7.073   1.279   2.410
10143TIP3   OH230373   1.280   6.820   6.573
10143TIP3    H130374   1.253   6.864   6.492
10143TIP3    H230375   1.376   6.826   6.572
10144TIP3   OH230376   1.961   3.870   2.380
10144TIP3    H130377   1.880   3.841   2.422
10144TIP3    H230378   2.001   3.789   2.347
10145TIP3   OH230379   2.428   7.232   4.198
10145TIP3    H130380   2.467   7.318   4.184
10145TIP3    H230381   2.346   7.235   4.149
10146TIP3   OH230382   5.235   5.163   4.126
10146TIP3    H130383   5.246   5.083   4.073
10146TIP3    H230384   5.140   5.175   4.130
10147TIP3   OH230385   0.843   3.960   5.415
10147TIP3    H130386   0.882   3.875   5.436
10147TIP3    H230387   0.783   3.942   5.343
10148TIP3   OH230388   3.786   6.631   0.731
10148TIP3    H130389   3.767   6.688   0.805
10148TIP3    H230390   3.729   6.664   0.661
10149TIP3   OH230391   4.271   0.239   0.995
10149TIP3    H130392   4.240   0.169   0.937
10149TIP3    H230393   4.261   0.319   0.943
10150TIP3   OH230394   1.944   3.351   3.797
10150TIP3    H130395   1.957   3.304   3.879
10150TIP3    H230396   1.909   3.285   3.737
10151TIP3   OH230397   2.749   7.047   0.773
10151TIP3    H130398   2.711   6.992   0.705
10151TIP3    H230399   2.674   7.073   0.827
10152TIP3   OH230400   4.564   5.593   0.822
10152TIP3    H130401   4.658   5.608   0.831
10152TIP3    H230402   4.524   5.655   0.882
10153TIP3   OH230403   7.928   5.249   5.550
10153TIP3    H130404   7.906   5.207   5.467
10153TIP3    H230405   8.018   5.222   5.567
10154TIP3   OH230406   5.630   4.872   0.138
10154TIP3    H130407   5.582   4.854   0.218
10154TIP3    H230408   5.563   4.897   0.074
10155TIP3   OH230409   6.080   3.177   4.201
10155TIP3    H130410   6.037   3.094   4.222
10155TIP3    H230411   6.083   3.224   4.284
10156TIP3   OH230412   3.293   5.193   3.152
10156TIP3    H130413   3.281   5.104   3.118
10156TIP3    H230414   3.387   5.205   3.156
10157TIP3   OH230415   3.235   7.602   3.399
10157TIP3    H130416   3.219   7.509   3.413
10157TIP3    H230417   3.273   7.632   3.482
10158TIP3   OH230418   7.047   1.913   1.102
10158TIP3    H130419   7.040   1.887   1.011
10158TIP3    H230420   7.016   1.837   1.151
10159TIP3   OH230421   6.159   1.495   1.441
10159TIP3    H130422   6.247   1.488   1.478
10159TIP3    H230423   6.142   1.409   1.403
10160TIP3   OH230424   7.870   6.540   1.638
10160TIP3    H130425   7.803   6.512   1.701
10160TIP3    H230426   7.843   6.629   1.614
10161TIP3   OH230427   3.179   3.423   6.100
10161TIP3    H130428   3.274   3.430   6.107
10161TIP3    H230429   3.146   3.461   6.182
10162TIP3   OH230430   2.039   7.443   1.041
10162TIP3    H130431   2.045   7.390   0.961
10162TIP3    H230432   2.042   7.533   1.010
10163TIP3   OH230433   5.080   0.550   1.765
10163TIP3    H130434   5.085   0.553   1.669
10163TIP3    H230435   5.171   0.550   1.794
10164TIP3   OH230436   0.611   4.112   0.799
10164TIP3    H130437   0.574   4.200   0.792
10164TIP3    H230438   0.705   4.127   0.809
10165TIP3   OH230439   3.985   3.976   4.694
10165TIP3    H130440   4.002   4.031   4.618
10165TIP3    H230441   3.891   3.987   4.710
10166TIP3   OH230442   7.868   7.387   3.292
10166TIP3    H130443   7.783   7.416   3.326
10166TIP3    H230444   7.882   7.441   3.214
10167TIP3   OH230445   5.694   5.344   0.926
10167TIP3    H130446   5.606   5.383   0.922
10167TIP3    H230447   5.748   5.402   0.872
10168TIP3   OH230448   4.890   0.297   4.815
10168TIP3    H130449   4.904   0.203   4.824
10168TIP3    H230450   4.935   0.335   4.890
10169TIP3   OH230451   2.596   0.589   6.668
10169TIP3    H130452   2.641   0.660   6.623
10169TIP3    H230453   2.522   0.568   6.612
10170TIP3   OH230454   1.098   0.947   6.272
10170TIP3    H130455   1.172   1.004   6.253
10170TIP3    H230456   1.021   0.999   6.247
10171TIP3   OH230457   0.372   4.605   2.650
10171TIP3    H130458   0.344   4.678   2.705
10171TIP3    H230459   0.360   4.638   2.560
10172TIP3   OH230460   4.842   5.509   2.138
10172TIP3    H130461   4.759   5.489   2.094
10172TIP3    H230462   4.844   5.451   2.213
10173TIP3   OH230463   0.921   1.786   0.850
10173TIP3    H130464   0.940   1.879   0.851
10173TIP3    H230465   0.942   1.758   0.760
10174TIP3   OH230466   6.010   0.717   5.470
10174TIP3    H130467   6.009   0.809   5.495
10174TIP3    H230468   5.963   0.672   5.540
10175TIP3   OH230469   5.151   4.854   3.180
10175TIP3    H130470   5.096   4.795   3.231
10175TIP3    H230471   5.100   4.935   3.174
10176TIP3   OH230472   1.123   3.725   1.884
10176TIP3    H130473   1.110   3.704   1.976
10176TIP3    H230474   1.161   3.813   1.884
10177TIP3   OH230475   6.876   0.835   3.844
10177TIP3    H130476   6.796   0.782   3.838
10177TIP3    H230477   6.942   0.775   3.878
10178TIP3   OH230478   4.380   1.019   1.509
10178TIP3    H130479   4.405   1.084   1.574
10178TIP3    H230480   4.425   1.047   1.429
10179TIP3   OH230481   5.727   6.263   3.533
10179TIP3    H130482   5.790   6.331   3.509
10179TIP3    H230483   5.781   6.186   3.550
10180TIP3   OH230484   5.807   4.344   3.767
10180TIP3    H130485   5.839   4.349   3.677
10180TIP3    H230486   5.884   4.326   3.820
10181TIP3   OH230487   5.337   2.191   0.219
10181TIP3    H130488   5.432   2.205   0.216
10181TIP3    H230489   5.314   2.160   0.131
10182TIP3   OH230490   4.824   7.342   1.545
10182TIP3    H130491   4.771   7.264   1.564
10182TIP3    H230492   4.816   7.354   1.451
10183TIP3   OH230493   1.057   2.656   1.914
10183TIP3    H130494   1.142   2.684   1.950
10183TIP3    H230495   0.997   2.728   1.937
10184TIP3   OH230496   3.963   7.555   1.313
10184TIP3    H130497   4.045   7.524   1.351
10184TIP3    H230498   3.945   7.638   1.357
10185TIP3   OH230499   7.535   0.275   0.817
10185TIP3    H130500   7.462   0.285   0.755
10185TIP3    H230501   7.555   0.363   0.846
10186TIP3   OH230502   6.218   1.517   0.314
10186TIP3    H130503   6.251   1.466   0.241
10186TIP3    H230504   6.259   1.478   0.391
10187TIP3   OH230505   0.463   0.069   5.058
10187TIP3    H130506   0.504   0.064   4.972
10187TIP3    H230507   0.380   0.115   5.042
10188TIP3   OH230508   7.931   6.374   0.926
10188TIP3    H130509   8.009   6.324   0.949
10188TIP3    H230510   7.921   6.437   0.997
10189TIP3   OH230511   7.281   4.339   1.407
10189TIP3    H130512   7.229   4.407   1.364
10189TIP3    H230513   7.372   4.365   1.389
10190TIP3   OH230514   0.340   2.992   6.615
10190TIP3    H130515   0.433   2.971   6.611
10190TIP3    H230516   0.323   3.041   6.535
10191TIP3   OH230517   4.080   2.922   2.280
10191TIP3    H130518   4.123   2.839   2.298
10191TIP3    H230519   4.091   2.973   2.361
10192TIP3   OH230520   5.424   0.744   4.055
10192TIP3    H130521   5.418   0.829   4.011
10192TIP3    H230522   5.510   0.711   4.031
10193TIP3   OH230523   4.901   1.943   6.496
10193TIP3    H130524   4.834   1.913   6.556
10193TIP3    H230525   4.983   1.908   6.532
10194TIP3   OH230526   3.734   6.407   0.281
10194TIP3    H130527   3.677   6.436   0.352
10194TIP3    H230528   3.693   6.327   0.248
10195TIP3   OH230529   5.722   2.972   3.993
10195TIP3    H130530   5.739   2.992   4.085
10195TIP3    H230531   5.635   3.008   3.976
10196TIP3   OH230532   1.715   6.058   1.490
10196TIP3    H130533   1.788   6.020   1.440
10196TIP3    H230534   1.637   6.016   1.453
10197TIP3   OH230535   4.112   1.506   0.324
10197TIP3    H130536   4.164   1.584   0.345
10197TIP3    H230537   4.114   1.501   0.229
10198TIP3   OH230538   2.898   2.441   5.227
10198TIP3    H130539   2.837   2.513   5.212
10198TIP3    H230540   2.982   2.483   5.244
10199TIP3   OH230541   1.425   3.491   3.054
10199TIP3    H130542   1.501   3.433   3.044
10199TIP3    H230543   1.364   3.441   3.109
10200TIP3   OH230544   3.984   6.616   1.578
10200TIP3    H130545   3.947   6.611   1.490
10200TIP3    H230546   3.925   6.673   1.626
10201TIP3   OH230547   0.957   2.040   2.042
10201TIP3    H130548   0.959   1.953   2.001
10201TIP3    H230549   0.888   2.086   1.994
10202TIP3   OH230550   4.421   5.388   3.477
10202TIP3    H130551   4.413   5.380   3.572
10202TIP3    H230552   4.382   5.473   3.456
10203TIP3   OH230553   6.255   3.238   5.339
10203TIP3    H130554   6.274   3.303   5.407
10203TIP3    H230555   6.220   3.289   5.266
10204TIP3   OH230556   2.416   1.329   6.047
10204TIP3    H130557   2.377   1.415   6.063
10204TIP3    H230558   2.390   1.307   5.957
10205TIP3   OH230559   3.357   0.341   1.367
10205TIP3    H130560   3.432   0.340   1.426
10205TIP3    H230561   3.315   0.256   1.380
10206TIP3   OH230562   5.935   6.614   4.534
10206TIP3    H130563   5.916   6.707   4.546
10206TIP3    H230564   5.939   6.578   4.623
10207TIP3   OH230565   2.436   2.191   5.602
10207TIP3    H130566   2.350   2.185   5.559
10207TIP3    H230567   2.488   2.122   5.561
10208TIP3   OH230568   0.890   5.426   3.427
10208TIP3    H130569   0.908   5.381   3.510
10208TIP3    H230570   0.964   5.486   3.416
10209TIP3   OH230571   2.429   5.709   5.962
10209TIP3    H130572   2.481   5.781   5.927
10209TIP3    H230573   2.390   5.669   5.884
10210TIP3   OH230574   4.831   2.369   0.294
10210TIP3    H130575   4.832   2.369   0.390
10210TIP3    H230576   4.923   2.364   0.269
10211TIP3   OH230577   2.220   7.665   3.566
10211TIP3    H130578   2.164   7.710   3.629
10211TIP3    H230579   2.257   7.735   3.513
10212TIP3   OH230580   3.102   5.912   4.240
10212TIP3    H130581   3.099   5.817   4.224
10212TIP3    H230582   3.010   5.936   4.253
10213TIP3   OH230583   2.960   3.708   2.830
10213TIP3    H130584   2.955   3.701   2.926
10213TIP3    H230585   2.899   3.643   2.797
10214TIP3   OH230586   5.681   1.266   5.502
10214TIP3    H130587   5.704   1.357   5.521
10214TIP3    H230588   5.753   1.233   5.448
10215TIP3   OH230589   5.493   3.227   0.723
10215TIP3    H130590   5.400   3.219   0.702
10215TIP3    H230591   5.501   3.312   0.767
10216TIP3   OH230592   7.246   2.208   5.642
10216TIP3    H130593   7.270   2.221   5.550
10216TIP3    H230594   7.317   2.250   5.691
10217TIP3   OH230595   6.569   1.749   4.720
10217TIP3    H130596   6.633   1.713   4.782
10217TIP3    H230597   6.535   1.672   4.674
10218TIP3   OH230598   4.895   5.744   6.318
10218TIP3    H130599   4.880   5.796   6.239
10218TIP3    H230600   4.807   5.725   6.351
10219TIP3   OH230601   8.198   3.988   4.998
10219TIP3    H130602   8.263   3.959   4.933
10219TIP3    H230603   8.118   4.002   4.948
10220TIP3   OH230604   2.691   2.799   6.482
10220TIP3    H130605   2.611   2.847   6.464
10220TIP3    H230606   2.662   2.715   6.516
10221TIP3   OH230607   4.927   0.632   0.043
10221TIP3    H130608   4.961   0.668  -0.039
10221TIP3    H230609   4.995   0.570   0.072
10222TIP3   OH230610   5.190   7.153   2.413
10222TIP3    H130611   5.263   7.203   2.448
10222TIP3    H230612   5.136   7.130   2.489
10223TIP3   OH230613   5.438   1.394   3.627
10223TIP3    H130614   5.345   1.371   3.617
10223TIP3    H230615   5.444   1.432   3.715
10224TIP3   OH230616   4.641   1.160   0.560
10224TIP3    H130617   4.676   1.138   0.646
10224TIP3    H230618   4.644   1.078   0.511
10225TIP3   OH230619   2.532   0.716   4.124
10225TIP3    H130620   2.579   0.731   4.043
10225TIP3    H230621   2.458   0.660   4.100
10226TIP3   OH230622   1.084   6.863   0.395
10226TIP3    H130623   1.160   6.817   0.431
10226TIP3    H230624   1.052   6.917   0.468
10227TIP3   OH230625   6.039   4.533   5.669
10227TIP3    H130626   5.992   4.461   5.711
10227TIP3    H230627   6.129   4.501   5.663
10228TIP3   OH230628   0.543   0.968   2.538
10228TIP3    H130629   0.513   1.038   2.480
10228TIP3    H230630   0.623   1.002   2.578
10229TIP3   OH230631   0.854   7.091   3.579
10229TIP3    H130632   0.801   7.013   3.569
10229TIP3    H230633   0.944   7.059   3.584
10230TIP3   OH230634   2.964   1.557   2.619
10230TIP3    H130635   3.042   1.505   2.639
10230TIP3    H230636   2.994   1.624   2.559
10231TIP3   OH230637   3.897   2.547   4.582
10231TIP3    H130638   3.822   2.573   4.529
10231TIP3    H230639   3.905   2.616   4.648
10232TIP3   OH230640   4.021   2.161   2.015
10232TIP3    H130641   4.066   2.221   2.074
10232TIP3    H230642   3.935   2.201   2.001
10233TIP3   OH230643   2.221   7.163   2.777
10233TIP3    H130644   2.313   7.171   2.803
10233TIP3    H230645   2.220   7.180   2.683
10234TIP3   OH230646   3.932   0.474   1.162
10234TIP3    H130647   3.885   0.493   1.080
10234TIP3    H230648   3.910   0.548   1.219
10235TIP3   OH230649   2.517   6.399   6.704
10235TIP3    H130650   2.444   6.342   6.681
10235TIP3    H230651   2.478   6.485   6.715
10236TIP3   OH230652   2.091   1.272   2.789
10236TIP3    H130653   2.093   1.177   2.783
10236TIP3    H230654   2.062   1.290   2.879
10237TIP3   OH230655   6.321   1.432   0.555
10237TIP3    H130656   6.403   1.479   0.570
10237TIP3    H230657   6.257   1.475   0.613
10238TIP3   OH230658   7.651   0.048   2.977
10238TIP3    H130659   7.595   0.038   3.054
10238TIP3    H230660   7.594   0.090   2.912
10239TIP3   OH230661   5.342   3.638   2.793
10239TIP3    H130662   5.429   3.597   2.797
10239TIP3    H230663   5.331   3.662   2.701
10240TIP3   OH230664   7.147   5.776   4.779
10240TIP3    H130665   7.174   5.712   4.845
10240TIP3    H230666   7.227   5.825   4.758
10241TIP3   OH230667   8.062   4.481   5.722
10241TIP3    H130668   8.108   4.525   5.793
10241TIP3    H230669   8.075   4.387   5.739
10242TIP3   OH230670   3.687   1.799   0.297
10242TIP3    H130671   3.704   1.756   0.381
10242TIP3    H230672   3.700   1.892   0.314
10243TIP3   OH230673   7.276   2.077   2.199
10243TIP3    H130674   7.305   2.155   2.246
10243TIP3    H230675   7.357   2.033   2.173
10244TIP3   OH230676   6.671   7.756   0.362
10244TIP3    H130677   6.585   7.796   0.353
10244TIP3    H230678   6.682   7.706   0.281
10245TIP3   OH230679   7.241   0.869   6.711
10245TIP3    H130680   7.188   0.806   6.759
10245TIP3    H230681   7.285   0.818   6.644
10246TIP3   OH230682   6.245   2.607   3.078
10246TIP3    H130683   6.248   2.530   3.022
10246TIP3    H230684   6.189   2.581   3.152
10247TIP3   OH230685   3.780   2.810   2.947
10247TIP3    H130686   3.832   2.888   2.965
10247TIP3    H230687   3.767   2.811   2.852
10248TIP3   OH230688   0.669   6.100   3.574
10248TIP3    H130689   0.744   6.079   3.518
10248TIP3    H230690   0.598   6.046   3.540
10249TIP3   OH230691   7.588   5.943   0.778
10249TIP3    H130692   7.681   5.936   0.754
10249TIP3    H230693   7.584   6.021   0.833
10250TIP3   OH230694   2.370   3.199   5.256
10250TIP3    H130695   2.300   3.232   5.199
10250TIP3    H230696   2.337   3.213   5.345
10251TIP3   OH230697   2.683   3.316   4.162
10251TIP3    H130698   2.669   3.237   4.214
10251TIP3    H230699   2.724   3.377   4.222
10252TIP3   OH230700   3.949   6.494   5.244
10252TIP3    H130701   3.938   6.506   5.149
10252TIP3    H230702   3.915   6.574   5.282
10253TIP3   OH230703   4.423   2.892   3.763
10253TIP3    H130704   4.360   2.913   3.831
10253TIP3    H230705   4.370   2.873   3.685
10254TIP3   OH230706   3.689   0.796   2.978
10254TIP3    H130707   3.741   0.735   2.926
10254TIP3    H230708   3.686   0.876   2.926
10255TIP3   OH230709   3.997   2.530   4.304
10255TIP3    H130710   3.908   2.501   4.282
10255TIP3    H230711   4.009   2.505   4.396
10256TIP3   OH230712   0.876   2.245   6.611
10256TIP3    H130713   0.806   2.208   6.665
10256TIP3    H230714   0.847   2.230   6.521
10257TIP3   OH230715   4.197   2.918   5.255
10257TIP3    H130716   4.188   2.879   5.342
10257TIP3    H230717   4.121   2.976   5.247
10258TIP3   OH230718   7.648   6.166   6.030
10258TIP3    H130719   7.737   6.195   6.050
10258TIP3    H230720   7.649   6.150   5.936
10259TIP3   OH230721   0.553   3.143   2.844
10259TIP3    H130722   0.488   3.204   2.812
10259TIP3    H230723   0.502   3.069   2.877
10260TIP3   OH230724   3.873   5.298   2.706
10260TIP3    H130725   3.941   5.231   2.715
10260TIP3    H230726   3.920   5.381   2.716
10261TIP3   OH230727   2.808   4.581   6.392
10261TIP3    H130728   2.800   4.489   6.369
10261TIP3    H230729   2.801   4.583   6.488
10262TIP3   OH230730   7.708   4.637   5.407
10262TIP3    H130731   7.745   4.719   5.439
10262TIP3    H230732   7.754   4.569   5.456
10263TIP3   OH230733   1.084   2.907   3.308
10263TIP3    H130734   1.070   2.900   3.402
10263TIP3    H230735   1.032   2.836   3.270
10264TIP3   OH230736   6.345   0.164   0.229
10264TIP3    H130737   6.437   0.144   0.249
10264TIP3    H230738   6.332   0.252   0.264
10265TIP3   OH230739   4.761   4.898   3.316
10265TIP3    H130740   4.811   4.973   3.284
10265TIP3    H230741   4.762   4.836   3.243
10266TIP3   OH230742   6.413   4.452   0.578
10266TIP3    H130743   6.466   4.469   0.500
10266TIP3    H230744   6.475   4.448   0.650
10267TIP3   OH230745   3.498   4.380   3.040
10267TIP3    H130746   3.565   4.315   3.061
10267TIP3    H230747   3.427   4.330   3.001
10268TIP3   OH230748   6.093   2.771   5.992
10268TIP3    H130749   6.033   2.846   6.002
10268TIP3    H230750   6.180   2.810   5.998
10269TIP3   OH230751   4.652   6.799   1.459
10269TIP3    H130752   4.729   6.757   1.496
10269TIP3    H230753   4.652   6.887   1.496
10270TIP3   OH230754   7.053   1.941   6.618
10270TIP3    H130755   7.119   1.932   6.687
10270TIP3    H230756   6.974   1.971   6.663
10271TIP3   OH230757   3.978   1.656   6.648
10271TIP3    H130758   3.979   1.679   6.555
10271TIP3    H230759   3.890   1.621   6.663
10272TIP3   OH230760   8.262   2.398   4.211
10272TIP3    H130761   8.289   2.318   4.257
10272TIP3    H230762   8.299   2.469   4.262
10273TIP3   OH230763   6.124   3.816   2.191
10273TIP3    H130764   6.051   3.815   2.253
10273TIP3    H230765   6.097   3.756   2.122
10274TIP3   OH230766   6.080   1.819   0.196
10274TIP3    H130767   6.107   1.772   0.117
10274TIP3    H230768   5.995   1.856   0.174
10275TIP3   OH230769   3.701   7.645   2.554
10275TIP3    H130770   3.626   7.702   2.573
10275TIP3    H230771   3.680   7.604   2.471
10276TIP3   OH230772   5.509   6.335   4.401
10276TIP3    H130773   5.485   6.409   4.346
10276TIP3    H230774   5.588   6.364   4.447
10277TIP3   OH230775   7.040   6.158   1.831
10277TIP3    H130776   7.014   6.086   1.774
10277TIP3    H230777   6.967   6.169   1.892
10278TIP3   OH230778   6.883   2.004   4.860
10278TIP3    H130779   6.949   2.003   4.792
10278TIP3    H230780   6.932   2.016   4.941
10279TIP3   OH230781   2.002   0.197   3.276
10279TIP3    H130782   2.016   0.132   3.344
10279TIP3    H230783   2.005   0.147   3.194
10280TIP3   OH230784   4.610   3.170   1.726
10280TIP3    H130785   4.641   3.127   1.646
10280TIP3    H230786   4.549   3.237   1.696
10281TIP3   OH230787   6.603   7.231   1.046
10281TIP3    H130788   6.579   7.140   1.033
10281TIP3    H230789   6.592   7.246   1.140
10282TIP3   OH230790   3.044   1.787   6.524
10282TIP3    H130791   3.071   1.791   6.433
10282TIP3    H230792   2.948   1.791   6.520
10283TIP3   OH230793   7.246   6.938   4.695
10283TIP3    H130794   7.238   7.025   4.657
10283TIP3    H230795   7.304   6.890   4.635
10284TIP3   OH230796   5.577   4.553   2.104
10284TIP3    H130797   5.607   4.463   2.116
10284TIP3    H230798   5.648   4.596   2.056
10285TIP3   OH230799   0.223   0.236   1.807
10285TIP3    H130800   0.257   0.165   1.752
10285TIP3    H230801   0.194   0.302   1.745
10286TIP3   OH230802   2.257   1.436   0.340
10286TIP3    H130803   2.236   1.443   0.247
10286TIP3    H230804   2.192   1.376   0.375
10287TIP3   OH230805   7.144   6.250   2.092
10287TIP3    H130806   7.187   6.331   2.064
10287TIP3    H230807   7.096   6.220   2.015
10288TIP3   OH230808   4.235   0.461   0.842
10288TIP3    H130809   4.234   0.517   0.919
10288TIP3    H230810   4.326   0.460   0.813
10289TIP3   OH230811   3.015   1.381   0.776
10289TIP3    H130812   3.012   1.289   0.748
10289TIP3    H230813   2.975   1.381   0.863
10290TIP3   OH230814   5.323   6.188   1.175
10290TIP3    H130815   5.314   6.194   1.080
10290TIP3    H230816   5.317   6.094   1.194
10291TIP3   OH230817   4.261   6.461   4.516
10291TIP3    H130818   4.209   6.382   4.533
10291TIP3    H230819   4.282   6.495   4.603
10292TIP3   OH230820   4.062   2.228   4.303
10292TIP3    H130821   4.071   2.281   4.224
10292TIP3    H230822   3.991   2.269   4.352
10293TIP3   OH230823   2.850   4.573   4.025
10293TIP3    H130824   2.924   4.622   3.989
10293TIP3    H230825   2.841   4.497   3.967
10294TIP3   OH230826   6.149   1.224   0.666
10294TIP3    H130827   6.104   1.210   0.583
10294TIP3    H230828   6.188   1.311   0.658
10295TIP3   OH230829   3.145   2.520   5.071
10295TIP3    H130830   3.223   2.504   5.124
10295TIP3    H230831   3.156   2.463   4.995
10296TIP3   OH230832   1.403   7.445   1.608
10296TIP3    H130833   1.408   7.538   1.586
10296TIP3    H230834   1.491   7.422   1.638
10297TIP3   OH230835   3.697   0.723   1.532
10297TIP3    H130836   3.774   0.728   1.476
10297TIP3    H230837   3.628   0.687   1.475
10298TIP3   OH230838   7.425   4.466   3.432
10298TIP3    H130839   7.520   4.479   3.431
10298TIP3    H230840   7.414   4.371   3.429
10299TIP3   OH230841   8.045   4.966   6.623
10299TIP3    H130842   8.134   4.979   6.657
10299TIP3    H230843   8.043   5.017   6.542
10300TIP3   OH230844   4.650   5.830   2.308
10300TIP3    H130845   4.727   5.803   2.258
10300TIP3    H230846   4.685   5.855   2.393
10301TIP3   OH230847   1.616   6.247   5.813
10301TIP3    H130848   1.606   6.154   5.795
10301TIP3    H230849   1.622   6.288   5.726
10302TIP3   OH230850   3.132   2.946   5.784
10302TIP3    H130851   3.062   2.902   5.832
10302TIP3    H230852   3.168   3.009   5.846
10303TIP3   OH230853   7.685   3.017   3.557
10303TIP3    H130854   7.619   2.950   3.537
10303TIP3    H230855   7.676   3.080   3.485
10304TIP3   OH230856   1.452   4.243   1.836
10304TIP3    H130857   1.392   4.204   1.901
10304TIP3    H230858   1.519   4.286   1.889
10305TIP3   OH230859   5.143   6.448   1.937
10305TIP3    H130860   5.108   6.400   1.862
10305TIP3    H230861   5.176   6.379   1.995
10306TIP3   OH230862   0.985   0.855   0.228
10306TIP3    H130863   0.913   0.880   0.286
10306TIP3    H230864   0.946   0.791   0.168
10307TIP3   OH230865   8.199   2.412   4.798
10307TIP3    H130866   8.146   2.338   4.828
10307TIP3    H230867   8.244   2.381   4.720
10308TIP3   OH230868   8.192   6.604   3.509
10308TIP3    H130869   8.108   6.630   3.545
10308TIP3    H230870   8.171   6.534   3.447
10309TIP3   OH230871   5.672   2.232   0.571
10309TIP3    H130872   5.663   2.234   0.666
10309TIP3    H230873   5.764   2.211   0.555
10310TIP3   OH230874   5.720   4.029   0.143
10310TIP3    H130875   5.806   4.021   0.184
10310TIP3    H230876   5.687   3.940   0.137
10311TIP3   OH230877   0.741   5.951   5.406
10311TIP3    H130878   0.739   6.046   5.410
10311TIP3    H230879   0.830   5.928   5.433
10312TIP3   OH230880   2.099   7.743   6.599
10312TIP3    H130881   2.166   7.745   6.666
10312TIP3    H230882   2.147   7.746   6.516
10313TIP3   OH230883   0.360   2.103   2.395
10313TIP3    H130884   0.421   2.053   2.449
10313TIP3    H230885   0.280   2.050   2.394
10314TIP3   OH230886   0.286   4.342   3.077
10314TIP3    H130887   0.311   4.396   3.152
10314TIP3    H230888   0.312   4.253   3.100
10315TIP3   OH230889   5.332   4.249  -0.011
10315TIP3    H130890   5.394   4.232   0.059
10315TIP3    H230891   5.375   4.315  -0.066
10316TIP3   OH230892   2.213   1.817   2.117
10316TIP3    H130893   2.156   1.852   2.048
10316TIP3    H230894   2.243   1.895   2.164
10317TIP3   OH230895   3.164   7.325   5.626
10317TIP3    H130896   3.154   7.250   5.567
10317TIP3    H230897   3.164   7.286   5.713
10318TIP3   OH230898   0.486   1.535   1.024
10318TIP3    H130899   0.578   1.555   1.005
10318TIP3    H230900   0.469   1.454   0.975
10319TIP3   OH230901   4.685   5.255   1.002
10319TIP3    H130902   4.680   5.170   1.046
10319TIP3    H230903   4.609   5.303   1.036
10320TIP3   OH230904   2.751   1.934   6.246
10320TIP3    H130905   2.832   1.978   6.220
10320TIP3    H230906   2.742   1.861   6.185
10321TIP3   OH230907   5.414   6.934   0.453
10321TIP3    H130908   5.438   6.961   0.365
10321TIP3    H230909   5.352   7.001   0.482
10322TIP3   OH230910   6.293   4.600   2.197
10322TIP3    H130911   6.212   4.555   2.224
10322TIP3    H230912   6.340   4.615   2.278
10323TIP3   OH230913   3.496   2.907   2.969
10323TIP3    H130914   3.408   2.942   2.954
10323TIP3    H230915   3.489   2.857   3.050
10324TIP3   OH230916   1.403   0.176   2.521
10324TIP3    H130917   1.472   0.154   2.459
10324TIP3    H230918   1.428   0.131   2.602
10325TIP3   OH230919   5.092   4.135   4.436
10325TIP3    H130920   5.158   4.200   4.412
10325TIP3    H230921   5.032   4.182   4.493
10326TIP3   OH230922   0.715   2.127   1.934
10326TIP3    H130923   0.704   2.184   2.010
10326TIP3    H230924   0.648   2.059   1.946
10327TIP3   OH230925   1.451   0.517   1.257
10327TIP3    H130926   1.468   0.423   1.253
10327TIP3    H230927   1.535   0.558   1.237
10328TIP3   OH230928   6.648   1.015   2.109
10328TIP3    H130929   6.691   1.030   2.193
10328TIP3    H230930   6.636   0.920   2.105
10329TIP3   OH230931   7.262   1.185   2.238
10329TIP3    H130932   7.208   1.259   2.267
10329TIP3    H230933   7.332   1.179   2.304
10330TIP3   OH230934   3.909   7.052   0.075
10330TIP3    H130935   3.958   7.107   0.014
10330TIP3    H230936   3.838   7.109   0.107
10331TIP3   OH230937   5.900   0.784   4.523
10331TIP3    H130938   5.905   0.779   4.618
10331TIP3    H230939   5.817   0.743   4.500
10332TIP3   OH230940   4.251   3.342   4.669
10332TIP3    H130941   4.170   3.292   4.659
10332TIP3    H230942   4.254   3.398   4.592
10333TIP3   OH230943   5.496   4.274   5.185
10333TIP3    H130944   5.548   4.314   5.254
10333TIP3    H230945   5.554   4.272   5.109
10334TIP3   OH230946   1.853   2.749   4.168
10334TIP3    H130947   1.821   2.690   4.100
10334TIP3    H230948   1.936   2.782   4.134
10335TIP3   OH230949   1.760   4.160   3.106
10335TIP3    H130950   1.828   4.196   3.163
10335TIP3    H230951   1.678   4.185   3.147
10336TIP3   OH230952   2.569   0.495   5.024
10336TIP3    H130953   2.562   0.405   4.992
10336TIP3    H230954   2.529   0.492   5.112
10337TIP3   OH230955   4.025   1.663   0.946
10337TIP3    H130956   3.961   1.608   0.991
10337TIP3    H230957   4.022   1.747   0.993
10338TIP3   OH230958   5.509   0.169   6.786
10338TIP3    H130959   5.463   0.103   6.734
10338TIP3    H230960   5.507   0.248   6.733
10339TIP3   OH230961   7.460   1.567   3.967
10339TIP3    H130962   7.455   1.479   3.930
10339TIP3    H230963   7.418   1.559   4.053
10340TIP3   OH230964   1.210   3.302   5.153
10340TIP3    H130965   1.180   3.223   5.108
10340TIP3    H230966   1.140   3.322   5.215
10341TIP3   OH230967   1.568   5.221   4.604
10341TIP3    H130968   1.601   5.217   4.694
10341TIP3    H230969   1.507   5.148   4.598
10342TIP3   OH230970   5.545   3.720   5.425
10342TIP3    H130971   5.491   3.648   5.392
10342TIP3    H230972   5.529   3.793   5.365
10343TIP3   OH230973   6.424   4.808   2.671
10343TIP3    H130974   6.456   4.878   2.615
10343TIP3    H230975   6.331   4.825   2.681
10344TIP3   OH230976   2.669   0.798   3.101
10344TIP3    H130977   2.668   0.889   3.073
10344TIP3    H230978   2.674   0.748   3.020
10345TIP3   OH230979   1.121   6.644   1.457
10345TIP3    H130980   1.167   6.671   1.377
10345TIP3    H230981   1.118   6.548   1.451
10346TIP3   OH230982   8.101   6.723   2.925
10346TIP3    H130983   8.188   6.737   2.963
10346TIP3    H230984   8.066   6.811   2.911
10347TIP3   OH230985   7.023   1.251   1.103
10347TIP3    H130986   7.041   1.344   1.118
10347TIP3    H230987   6.962   1.250   1.029
10348TIP3   OH230988   5.614   5.958   1.811
10348TIP3    H130989   5.583   5.943   1.722
10348TIP3    H230990   5.568   6.037   1.839
10349TIP3   OH230991   5.305   6.432   0.722
10349TIP3    H130992   5.268   6.512   0.684
10349TIP3    H230993   5.337   6.459   0.808
10350TIP3   OH230994   2.766   6.564   6.640
10350TIP3    H130995   2.762   6.575   6.545
10350TIP3    H230996   2.689   6.511   6.661
10351TIP3   OH230997   0.713   5.400   1.183
10351TIP3    H130998   0.627   5.441   1.189
10351TIP3    H230999   0.774   5.465   1.220
10352TIP3   OH231000   7.064   6.867   2.656
10352TIP3    H131001   6.982   6.820   2.671
10352TIP3    H231002   7.128   6.798   2.639
10353TIP3   OH231003   2.059   2.862   3.606
10353TIP3    H131004   2.050   2.767   3.596
10353TIP3    H231005   2.120   2.873   3.678
10354TIP3   OH231006   4.233   3.106   0.432
10354TIP3    H131007   4.162   3.098   0.369
10354TIP3    H231008   4.286   3.178   0.398
10355TIP3   OH231009   4.712   4.119   6.192
10355TIP3    H131010   4.620   4.127   6.214
10355TIP3    H231011   4.759   4.145   6.271
10356TIP3   OH231012   1.771   1.543   4.210
10356TIP3    H131013   1.696   1.597   4.185
10356TIP3    H231014   1.753   1.515   4.300
10357TIP3   OH231015   3.357   4.116   6.697
10357TIP3    H131016   3.383   4.183   6.761
10357TIP3    H231017   3.440   4.089   6.656
10358TIP3   OH231018   3.238   7.528   1.369
10358TIP3    H131019   3.211   7.515   1.460
10358TIP3    H231020   3.330   7.556   1.376
10359TIP3   OH231021   0.566   1.598   3.596
10359TIP3    H131022   0.537   1.534   3.661
10359TIP3    H231023   0.490   1.613   3.541
10360TIP3   OH231024   4.720   1.795   6.655
10360TIP3    H131025   4.651   1.806   6.590
10360TIP3    H231026   4.704   1.708   6.692
10361TIP3   OH231027   2.689   2.228   2.629
10361TIP3    H131028   2.717   2.260   2.715
10361TIP3    H231029   2.613   2.282   2.608
10362TIP3   OH231030   1.415   7.683   6.605
10362TIP3    H131031   1.374   7.744   6.667
10362TIP3    H231032   1.462   7.740   6.543
10363TIP3   OH231033   0.740   0.871   4.235
10363TIP3    H131034   0.709   0.934   4.169
10363TIP3    H231035   0.798   0.813   4.187
10364TIP3   OH231036   3.105   4.338   6.456
10364TIP3    H131037   3.049   4.371   6.527
10364TIP3    H231038   3.046   4.285   6.402
10365TIP3   OH231039   3.077   7.203   5.842
10365TIP3    H131040   3.008   7.213   5.909
10365TIP3    H231041   3.036   7.151   5.773
10366TIP3   OH231042   7.594   7.472   1.458
10366TIP3    H131043   7.531   7.517   1.513
10366TIP3    H231044   7.661   7.439   1.518
10367TIP3   OH231045   7.083   2.888   4.586
10367TIP3    H131046   7.056   2.935   4.664
10367TIP3    H231047   7.055   2.943   4.513
10368TIP3   OH231048   1.191   7.154   3.781
10368TIP3    H131049   1.264   7.161   3.719
10368TIP3    H231050   1.151   7.069   3.762
10369TIP3   OH231051   5.969   1.770   0.962
10369TIP3    H131052   6.036   1.767   1.030
10369TIP3    H231053   5.903   1.707   0.991
10370TIP3   OH231054   7.234   6.652   2.635
10370TIP3    H131055   7.272   6.607   2.710
10370TIP3    H231056   7.308   6.699   2.596
10371TIP3   OH231057   3.766   6.177   0.605
10371TIP3    H131058   3.696   6.194   0.669
10371TIP3    H231059   3.780   6.261   0.561
10372TIP3   OH231060   7.611   2.434   6.726
10372TIP3    H131061   7.648   2.371   6.789
10372TIP3    H231062   7.622   2.519   6.768
10373TIP3   OH231063   1.979   5.394   3.162
10373TIP3    H131064   1.989   5.406   3.256
10373TIP3    H231065   2.040   5.324   3.140
10374TIP3   OH231066   6.607   5.137   0.026
10374TIP3    H131067   6.603   5.042   0.035
10374TIP3    H231068   6.695   5.160   0.056
10375TIP3   OH231069   2.746   6.794   3.826
10375TIP3    H131070   2.825   6.750   3.856
10375TIP3    H231071   2.766   6.888   3.832
10376TIP3   OH231072   7.379   3.798   1.863
10376TIP3    H131073   7.420   3.726   1.911
10376TIP3    H231074   7.386   3.873   1.921
10377TIP3   OH231075   2.730   1.854   3.551
10377TIP3    H131076   2.810   1.804   3.566
10377TIP3    H231077   2.690   1.861   3.638
10378TIP3   OH231078   5.091   0.007   4.917
10378TIP3    H131079   5.001   0.001   4.948
10378TIP3    H231080   5.083   0.026   4.824
10379TIP3   OH231081   5.189   5.417   6.760
10379TIP3    H131082   5.153   5.334   6.792
10379TIP3    H231083   5.161   5.482   6.825
10380TIP3   OH231084   0.567   1.727   5.088
10380TIP3    H131085   0.571   1.734   5.184
10380TIP3    H231086   0.628   1.794   5.057
10381TIP3   OH231087   5.560   6.216   4.757
10381TIP3    H131088   5.582   6.167   4.837
10381TIP3    H231089   5.469   6.242   4.770
10382TIP3   OH231090   7.431   6.028   2.305
10382TIP3    H131091   7.427   6.117   2.271
10382TIP3    H231092   7.341   6.006   2.328
10383TIP3   OH231093   5.489   3.419   3.543
10383TIP3    H131094   5.510   3.477   3.617
10383TIP3    H231095   5.408   3.375   3.568
10384TIP3   OH231096   0.640   4.252   2.421
10384TIP3    H131097   0.730   4.238   2.450
10384TIP3    H231098   0.602   4.310   2.487
10385TIP3   OH231099   1.187   4.596   0.259
10385TIP3    H131100   1.094   4.570   0.256
10385TIP3    H231101   1.187   4.678   0.308
10386TIP3   OH231102   5.377   5.813   0.229
10386TIP3    H131103   5.425   5.799   0.148
10386TIP3    H231104   5.356   5.725   0.260
10387TIP3   OH231105   1.571   0.913   5.219
10387TIP3    H131106   1.497   0.974   5.226
10387TIP3    H231107   1.645   0.960   5.257
10388TIP3   OH231108   7.357   0.488   2.883
10388TIP3    H131109   7.383   0.559   2.824
10388TIP3    H231110   7.277   0.520   2.926
10389TIP3   OH231111   6.647   0.330   3.845
10389TIP3    H131112   6.593   0.378   3.782
10389TIP3    H231113   6.585   0.275   3.893
10390TIP3   OH231114   7.536   4.408   0.887
10390TIP3    H131115   7.452   4.454   0.894
10390TIP3    H231116   7.601   4.478   0.880
10391TIP3   OH231117   6.432   3.036   5.257
10391TIP3    H131118   6.371   3.103   5.287
10391TIP3    H231119   6.513   3.083   5.238
10392TIP3   OH231120   6.320   2.075   6.172
10392TIP3    H131121   6.326   2.028   6.255
10392TIP3    H231122   6.370   2.022   6.110
10393TIP3   OH231123   3.581   5.862   4.540
10393TIP3    H131124   3.546   5.898   4.459
10393TIP3    H231125   3.651   5.922   4.565
10394TIP3   OH231126   3.137   0.425   0.977
10394TIP3    H131127   3.079   0.451   0.905
10394TIP3    H231128   3.212   0.384   0.934
10395TIP3   OH231129   3.351   0.037   2.475
10395TIP3    H131130   3.322   0.087   2.551
10395TIP3    H231131   3.394  -0.040   2.512
10396TIP3   OH231132   5.212   0.144   0.386
10396TIP3    H131133   5.231   0.098   0.305
10396TIP3    H231134   5.146   0.209   0.362
10397TIP3   OH231135   6.106   4.293   4.997
10397TIP3    H131136   6.175   4.228   5.012
10397TIP3    H231137   6.112   4.313   4.904
10398TIP3   OH231138   1.162   5.358   6.624
10398TIP3    H131139   1.189   5.326   6.710
10398TIP3    H231140   1.171   5.283   6.566
10399TIP3   OH231141   1.096   3.586   3.850
10399TIP3    H131142   1.164   3.597   3.916
10399TIP3    H231143   1.142   3.549   3.775
10400TIP3   OH231144   1.293   0.857   0.772
10400TIP3    H131145   1.378   0.901   0.771
10400TIP3    H231146   1.251   0.885   0.690
10401TIP3   OH231147   0.405   0.282   6.181
10401TIP3    H131148   0.373   0.192   6.180
10401TIP3    H231149   0.496   0.275   6.208
10402TIP3   OH231150   6.315   3.944   0.304
10402TIP3    H131151   6.376   3.984   0.367
10402TIP3    H231152   6.305   4.009   0.235
10403TIP3   OH231153   6.299   4.597   4.966
10403TIP3    H131154   6.311   4.528   5.031
10403TIP3    H231155   6.279   4.676   5.017
10404TIP3   OH231156   6.152   1.764   2.285
10404TIP3    H131157   6.198   1.823   2.345
10404TIP3    H231158   6.203   1.683   2.289
10405TIP3   OH231159   4.090   3.139   1.318
10405TIP3    H131160   4.049   3.220   1.350
10405TIP3    H231161   4.022   3.099   1.263
10406TIP3   OH231162   3.703   0.350   4.619
10406TIP3    H131163   3.629   0.334   4.678
10406TIP3    H231164   3.758   0.412   4.667
10407TIP3   OH231165   3.060   7.077   2.356
10407TIP3    H131166   3.032   7.013   2.290
10407TIP3    H231167   3.089   7.153   2.306
10408TIP3   OH231168   2.830   4.604   4.303
10408TIP3    H131169   2.902   4.661   4.332
10408TIP3    H231170   2.842   4.598   4.208
10409TIP3   OH231171   6.749   5.637   3.689
10409TIP3    H131172   6.773   5.728   3.670
10409TIP3    H231173   6.678   5.618   3.627
10410TIP3   OH231174   7.464   5.674   5.939
10410TIP3    H131175   7.413   5.734   5.885
10410TIP3    H231176   7.518   5.731   5.994
10411TIP3   OH231177   6.486   7.235   3.435
10411TIP3    H131178   6.535   7.216   3.515
10411TIP3    H231179   6.528   7.313   3.399
10412TIP3   OH231180   1.299   6.148   3.193
10412TIP3    H131181   1.323   6.182   3.107
10412TIP3    H231182   1.234   6.081   3.174
10413TIP3   OH231183   3.441   3.861   1.267
10413TIP3    H131184   3.424   3.912   1.188
10413TIP3    H231185   3.536   3.851   1.269
10414TIP3   OH231186   0.685   4.673   0.588
10414TIP3    H131187   0.643   4.599   0.543
10414TIP3    H231188   0.637   4.750   0.557
10415TIP3   OH231189   7.761   4.481   5.877
10415TIP3    H131190   7.791   4.561   5.833
10415TIP3    H231191   7.833   4.455   5.933
10416TIP3   OH231192   1.329   3.037   1.952
10416TIP3    H131193   1.290   2.951   1.967
10416TIP3    H231194   1.256   3.098   1.966
10417TIP3   OH231195   8.167   5.419   2.106
10417TIP3    H131196   8.081   5.460   2.110
10417TIP3    H231197   8.229   5.492   2.114
10418TIP3   OH231198   4.436   0.324   6.268
10418TIP3    H131199   4.361   0.362   6.313
10418TIP3    H231200   4.398   0.260   6.208
10419TIP3   OH231201   5.600   3.974   0.678
10419TIP3    H131202   5.636   3.897   0.722
10419TIP3    H231203   5.583   4.036   0.749
10420TIP3   OH231204   2.443   3.692   3.092
10420TIP3    H131205   2.490   3.736   3.163
10420TIP3    H231206   2.509   3.640   3.048
10421TIP3   OH231207   8.172   0.087   1.396
10421TIP3    H131208   8.221   0.007   1.379
10421TIP3    H231209   8.080   0.058   1.401
10422TIP3   OH231210   0.414   5.586   0.939
10422TIP3    H131211   0.365   5.592   0.857
10422TIP3    H231212   0.368   5.520   0.990
10423TIP3   OH231213   4.073   7.076   3.758
10423TIP3    H131214   4.139   7.133   3.796
10423TIP3    H231215   4.122   7.020   3.697
10424TIP3   OH231216   2.650   2.881   5.968
10424TIP3    H131217   2.680   2.834   6.045
10424TIP3    H231218   2.708   2.957   5.962
10425TIP3   OH231219   5.116   4.677   5.253
10425TIP3    H131220   5.180   4.748   5.260
10425TIP3    H231221   5.168   4.600   5.231
10426TIP3   OH231222   0.512   6.787   0.278
10426TIP3    H131223   0.569   6.711   0.265
10426TIP3    H231224   0.438   6.753   0.329
10427TIP3   OH231225   6.943   2.725   4.417
10427TIP3    H131226   6.974   2.749   4.504
10427TIP3    H231227   7.023   2.714   4.365
10428TIP3   OH231228   0.069   4.182   1.347
10428TIP3    H131229  -0.014   4.159   1.305
10428TIP3    H231230   0.044   4.245   1.415
10429TIP3   OH231231   0.987   5.320   1.484
10429TIP3    H131232   1.000   5.356   1.397
10429TIP3    H231233   1.073   5.325   1.526
10430TIP3   OH231234   5.270   6.796   4.192
10430TIP3    H131235   5.292   6.885   4.221
10430TIP3    H231236   5.330   6.779   4.120
10431TIP3   OH231237   5.734   2.332   6.212
10431TIP3    H131238   5.732   2.255   6.155
10431TIP3    H231239   5.721   2.406   6.153
10432TIP3   OH231240   0.548   0.543   3.759
10432TIP3    H131241   0.486   0.595   3.810
10432TIP3    H231242   0.517   0.551   3.669
10433TIP3   OH231243   1.888   7.725   4.423
10433TIP3    H131244   1.904   7.663   4.351
10433TIP3    H231245   1.805   7.695   4.462
10434TIP3   OH231246   5.701   3.179   2.336
10434TIP3    H131247   5.683   3.206   2.426
10434TIP3    H231248   5.780   3.125   2.342
10435TIP3   OH231249   5.056   6.504   4.276
10435TIP3    H131250   5.087   6.426   4.323
10435TIP3    H231251   5.087   6.491   4.186
10436TIP3   OH231252   5.400   5.374   5.428
10436TIP3    H131253   5.412   5.318   5.352
10436TIP3    H231254   5.395   5.314   5.503
10437TIP3   OH231255   3.823   7.148   3.638
10437TIP3    H131256   3.827   7.073   3.579
10437TIP3    H231257   3.910   7.152   3.678
10438TIP3   OH231258   4.399   5.704   1.617
10438TIP3    H131259   4.445   5.626   1.585
10438TIP3    H231260   4.326   5.668   1.669
10439TIP3   OH231261   0.593   0.633   1.712
10439TIP3    H131262   0.630   0.679   1.636
10439TIP3    H231263   0.660   0.569   1.736
10440TIP3   OH231264   7.792   5.945   1.665
10440TIP3    H131265   7.882   5.946   1.697
10440TIP3    H231266   7.747   5.881   1.721
10441TIP3   OH231267   8.209   6.158   0.023
10441TIP3    H131268   8.141   6.104  -0.019
10441TIP3    H231269   8.285   6.100   0.027
10442TIP3   OH231270   7.903   4.828   4.883
10442TIP3    H131271   7.996   4.805   4.872
10442TIP3    H231272   7.896   4.859   4.973
10443TIP3   OH231273   0.457   6.734   2.501
10443TIP3    H131274   0.551   6.722   2.484
10443TIP3    H231275   0.449   6.735   2.596
10444TIP3   OH231276   2.253   4.463   2.080
10444TIP3    H131277   2.248   4.558   2.068
10444TIP3    H231278   2.346   4.445   2.091
10445TIP3   OH231279   8.106   2.886   6.649
10445TIP3    H131280   8.194   2.872   6.615
10445TIP3    H231281   8.048   2.859   6.578
10446TIP3   OH231282   5.767   1.935   3.123
10446TIP3    H131283   5.745   1.855   3.076
10446TIP3    H231284   5.706   1.938   3.196
10447TIP3   OH231285   6.922   4.789   5.076
10447TIP3    H131286   6.938   4.724   5.145
10447TIP3    H231287   6.890   4.866   5.123
10448TIP3   OH231288   0.986   1.354   0.559
10448TIP3    H131289   0.896   1.367   0.591
10448TIP3    H231290   0.985   1.265   0.524
10449TIP3   OH231291   7.616   4.208   4.050
10449TIP3    H131292   7.709   4.233   4.058
10449TIP3    H231293   7.569   4.279   4.094
10450TIP3   OH231294   1.017   2.415   4.869
10450TIP3    H131295   1.100   2.396   4.825
10450TIP3    H231296   1.042   2.444   4.956
10451TIP3   OH231297   7.552   4.695   4.693
10451TIP3    H131298   7.554   4.790   4.682
10451TIP3    H231299   7.588   4.681   4.781
10452TIP3   OH231300   7.069   0.328   4.133
10452TIP3    H131301   7.102   0.248   4.093
10452TIP3    H231302   6.994   0.299   4.185
10453TIP3   OH231303   6.461   4.363   0.125
10453TIP3    H131304   6.417   4.286   0.089
10453TIP3    H231305   6.527   4.328   0.185
10454TIP3   OH231306   2.559   0.801   4.379
10454TIP3    H131307   2.513   0.885   4.374
10454TIP3    H231308   2.569   0.773   4.288
10455TIP3   OH231309   0.381   3.402   4.269
10455TIP3    H131310   0.333   3.411   4.187
10455TIP3    H231311   0.381   3.490   4.307
10456TIP3   OH231312   3.673   7.621   3.311
10456TIP3    H131313   3.657   7.625   3.405
10456TIP3    H231314   3.602   7.673   3.273
10457TIP3   OH231315   2.657   2.096   6.452
10457TIP3    H131316   2.659   2.186   6.421
10457TIP3    H231317   2.702   2.046   6.383
10458TIP3   OH231318   2.974   5.341   3.777
10458TIP3    H131319   3.017   5.386   3.849
10458TIP3    H231320   3.041   5.281   3.743
10459TIP3   OH231321   3.520   1.979   2.726
10459TIP3    H131322   3.518   1.981   2.630
10459TIP3    H231323   3.476   2.060   2.752
10460TIP3   OH231324   5.689   7.345   0.918
10460TIP3    H131325   5.719   7.311   1.002
10460TIP3    H231326   5.636   7.274   0.881
10461TIP3   OH231327   1.819   0.151   1.852
10461TIP3    H131328   1.723   0.150   1.862
10461TIP3    H231329   1.848   0.223   1.908
10462TIP3   OH231330   7.791   6.128   6.744
10462TIP3    H131331   7.796   6.205   6.801
10462TIP3    H231332   7.732   6.154   6.674
10463TIP3   OH231333   3.830   3.654   2.191
10463TIP3    H131334   3.905   3.711   2.210
10463TIP3    H231335   3.753   3.708   2.209
10464TIP3   OH231336   4.526   0.587   2.636
10464TIP3    H131337   4.468   0.655   2.601
10464TIP3    H231338   4.536   0.525   2.565
10465TIP3   OH231339   0.244   4.813   6.151
10465TIP3    H131340   0.232   4.831   6.058
10465TIP3    H231341   0.205   4.726   6.164
10466TIP3   OH231342   6.825   1.962   1.440
10466TIP3    H131343   6.731   1.954   1.423
10466TIP3    H231344   6.864   1.974   1.353
10467TIP3   OH231345   4.244   0.799   3.134
10467TIP3    H131346   4.151   0.776   3.128
10467TIP3    H231347   4.287   0.717   3.159
10468TIP3   OH231348   1.915   1.230   4.385
10468TIP3    H131349   1.939   1.320   4.403
10468TIP3    H231350   1.845   1.236   4.319
10469TIP3   OH231351   6.592   6.281   3.128
10469TIP3    H131352   6.610   6.221   3.200
10469TIP3    H231353   6.501   6.307   3.141
10470TIP3   OH231354   1.860   1.071   1.620
10470TIP3    H131355   1.900   1.075   1.707
10470TIP3    H231356   1.867   1.159   1.585
10471TIP3   OH231357   7.238   0.511   4.241
10471TIP3    H131358   7.171   0.516   4.309
10471TIP3    H231359   7.207   0.444   4.180
10472TIP3   OH231360   1.883   2.599   1.535
10472TIP3    H131361   1.895   2.692   1.553
10472TIP3    H231362   1.957   2.556   1.578
10473TIP3   OH231363   4.809   2.653   0.714
10473TIP3    H131364   4.856   2.677   0.634
10473TIP3    H231365   4.818   2.558   0.719
10474TIP3   OH231366   4.920   6.217   5.409
10474TIP3    H131367   4.980   6.143   5.416
10474TIP3    H231368   4.968   6.291   5.446
10475TIP3   OH231369   5.609   2.661   1.616
10475TIP3    H131370   5.582   2.590   1.558
10475TIP3    H231371   5.655   2.722   1.559
10476TIP3   OH231372   2.042   3.383   2.034
10476TIP3    H131373   2.097   3.412   2.107
10476TIP3    H231374   2.073   3.432   1.959
10477TIP3   OH231375   0.393   2.698   6.200
10477TIP3    H131376   0.430   2.622   6.155
10477TIP3    H231377   0.398   2.768   6.136
10478TIP3   OH231378   0.960   3.610   2.129
10478TIP3    H131379   0.947   3.518   2.105
10478TIP3    H231380   0.875   3.651   2.113
10479TIP3   OH231381   5.772   0.344   6.349
10479TIP3    H131382   5.748   0.278   6.413
10479TIP3    H231383   5.770   0.298   6.265
10480TIP3   OH231384   7.622   5.249   2.691
10480TIP3    H131385   7.636   5.165   2.735
10480TIP3    H231386   7.610   5.311   2.762
10481TIP3   OH231387   0.474   0.375   2.334
10481TIP3    H131388   0.543   0.379   2.401
10481TIP3    H231389   0.413   0.444   2.359
10482TIP3   OH231390   1.583   0.998   1.655
10482TIP3    H131391   1.627   1.059   1.715
10482TIP3    H231392   1.624   1.015   1.570
10483TIP3   OH231393   4.208   5.210   0.370
10483TIP3    H131394   4.140   5.263   0.412
10483TIP3    H231395   4.198   5.123   0.409
10484TIP3   OH231396   7.795   5.827   3.143
10484TIP3    H131397   7.752   5.762   3.087
10484TIP3    H231398   7.858   5.870   3.086
10485TIP3   OH231399   1.386   7.261   1.828
10485TIP3    H131400   1.393   7.307   1.744
10485TIP3    H231401   1.458   7.198   1.827
10486TIP3   OH231402   5.404   1.124   1.318
10486TIP3    H131403   5.364   1.037   1.320
10486TIP3    H231404   5.430   1.140   1.408
10487TIP3   OH231405   0.905   1.774   3.349
10487TIP3    H131406   0.869   1.783   3.261
10487TIP3    H231407   0.869   1.691   3.381
10488TIP3   OH231408   2.738   2.686   6.156
10488TIP3    H131409   2.774   2.606   6.119
10488TIP3    H231410   2.773   2.690   6.245
10489TIP3   OH231411   1.488   7.686   1.281
10489TIP3    H131412   1.426   7.717   1.348
10489TIP3    H231413   1.444   7.704   1.198
10490TIP3   OH231414   7.303   3.968   3.418
10490TIP3    H131415   7.246   3.902   3.458
10490TIP3    H231416   7.335   3.927   3.338
10491TIP3   OH231417   1.699   6.596   0.771
10491TIP3    H131418   1.781   6.559   0.805
10491TIP3    H231419   1.725   6.678   0.730
10492TIP3   OH231420   4.303   1.621   5.476
10492TIP3    H131421   4.313   1.627   5.381
10492TIP3    H231422   4.285   1.711   5.504
10493TIP3   OH231423   3.281   1.862   0.307
10493TIP3    H131424   3.213   1.869   0.374
10493TIP3    H231425   3.233   1.857   0.224
10494TIP3   OH231426   5.169   6.598   0.936
10494TIP3    H131427   5.163   6.647   0.854
10494TIP3    H231428   5.078   6.575   0.956
10495TIP3   OH231429   0.111   0.470   1.691
10495TIP3    H131430   0.170   0.544   1.705
10495TIP3    H231431   0.024   0.509   1.694
10496TIP3   OH231432   5.541   0.732   2.067
10496TIP3    H131433   5.634   0.714   2.054
10496TIP3    H231434   5.530   0.732   2.162
10497TIP3   OH231435   2.801   2.107   0.460
10497TIP3    H131436   2.887   2.134   0.428
10497TIP3    H231437   2.742   2.119   0.386
10498TIP3   OH231438   4.966   0.495   6.806
10498TIP3    H131439   5.042   0.546   6.780
10498TIP3    H231440   4.931   0.541   6.882
10499TIP3   OH231441   2.560   6.508   0.357
10499TIP3    H131442   2.558   6.596   0.394
10499TIP3    H231443   2.646   6.474   0.382
10500TIP3   OH231444   4.796   5.185   6.597
10500TIP3    H131445   4.787   5.091   6.612
10500TIP3    H231446   4.883   5.194   6.558
10501TIP3   OH231447   0.243   2.740   1.036
10501TIP3    H131448   0.238   2.792   0.956
10501TIP3    H231449   0.282   2.657   1.008
10502TIP3   OH231450   1.286   4.698   0.890
10502TIP3    H131451   1.375   4.734   0.898
10502TIP3    H231452   1.229   4.769   0.919
10503TIP3   OH231453   5.585   7.061   2.424
10503TIP3    H131454   5.593   6.968   2.447
10503TIP3    H231455   5.509   7.092   2.474
10504TIP3   OH231456   7.397   6.633   6.492
10504TIP3    H131457   7.393   6.539   6.480
10504TIP3    H231458   7.445   6.666   6.416
10505TIP3   OH231459   2.089   1.245   6.038
10505TIP3    H131460   2.158   1.187   6.071
10505TIP3    H231461   2.126   1.282   5.958
10506TIP3   OH231462   5.979   2.369   1.289
10506TIP3    H131463   5.947   2.431   1.224
10506TIP3    H231464   6.075   2.378   1.285
10507TIP3   OH231465   6.715   1.973   6.149
10507TIP3    H131466   6.636   1.931   6.116
10507TIP3    H231467   6.687   2.020   6.227
10508TIP3   OH231468   0.867   6.931   6.374
10508TIP3    H131469   0.806   6.861   6.395
10508TIP3    H231470   0.813   7.010   6.370
10509TIP3   OH231471   2.291   6.426   2.098
10509TIP3    H131472   2.215   6.480   2.073
10509TIP3    H231473   2.334   6.407   2.015
10510TIP3   OH231474   5.608   2.231   1.832
10510TIP3    H131475   5.581   2.154   1.881
10510TIP3    H231476   5.618   2.200   1.742
10511TIP3   OH231477   5.957   0.924   2.211
10511TIP3    H131478   5.891   0.901   2.146
10511TIP3    H231479   6.024   0.972   2.161
10512TIP3   OH231480   4.732   0.432   0.399
10512TIP3    H131481   4.665   0.369   0.371
10512TIP3    H231482   4.726   0.503   0.336
10513TIP3   OH231483   1.649   2.781   2.247
10513TIP3    H131484   1.735   2.785   2.288
10513TIP3    H231485   1.667   2.773   2.153
10514TIP3   OH231486   3.492   0.433   2.909
10514TIP3    H131487   3.477   0.385   2.990
10514TIP3    H231488   3.579   0.471   2.919
10515TIP3   OH231489   1.446   2.118   2.372
10515TIP3    H131490   1.412   2.109   2.283
10515TIP3    H231491   1.441   2.031   2.409
10516TIP3   OH231492   2.898   2.585   6.358
10516TIP3    H131493   2.952   2.509   6.337
10516TIP3    H231494   2.909   2.597   6.453
10517TIP3   OH231495   1.369   2.448   0.045
10517TIP3    H131496   1.346   2.541   0.043
10517TIP3    H231497   1.437   2.440  -0.021
10518TIP3   OH231498   7.392   3.155   0.917
10518TIP3    H131499   7.363   3.110   0.997
10518TIP3    H231500   7.413   3.244   0.946
10519TIP3   OH231501   1.883   5.843   4.993
10519TIP3    H131502   1.907   5.778   5.059
10519TIP3    H231503   1.966   5.885   4.971
10520TIP3   OH231504   0.319   4.954   1.755
10520TIP3    H131505   0.234   4.968   1.797
10520TIP3    H231506   0.377   5.017   1.798
10521TIP3   OH231507   2.802   6.218   4.105
10521TIP3    H131508   2.789   6.130   4.070
10521TIP3    H231509   2.755   6.275   4.045
10522TIP3   OH231510   5.766   6.272   3.191
10522TIP3    H131511   5.736   6.259   3.281
10522TIP3    H231512   5.853   6.310   3.199
10523TIP3   OH231513   3.271   6.505   6.649
10523TIP3    H131514   3.195   6.551   6.685
10523TIP3    H231515   3.339   6.572   6.643
10524TIP3   OH231516   5.190   7.525   3.583
10524TIP3    H131517   5.232   7.608   3.561
10524TIP3    H231518   5.208   7.468   3.509
10525TIP3   OH231519   1.641   0.777   1.826
10525TIP3    H131520   1.606   0.861   1.799
10525TIP3    H231521   1.698   0.750   1.755
10526TIP3   OH231522   5.760   4.649   3.579
10526TIP3    H131523   5.695   4.585   3.608
10526TIP3    H231524   5.747   4.724   3.638
10527TIP3   OH231525   6.850   1.475   2.301
10527TIP3    H131526   6.946   1.483   2.305
10527TIP3    H231527   6.829   1.407   2.365
10528TIP3   OH231528   3.506   2.893   3.413
10528TIP3    H131529   3.496   2.988   3.411
10528TIP3    H231530   3.420   2.859   3.389
10529TIP3   OH231531   6.622   6.230   0.377
10529TIP3    H131532   6.579   6.230   0.292
10529TIP3    H231533   6.650   6.321   0.390
10530TIP3   OH231534   2.948   6.135   0.072
10530TIP3    H131535   2.964   6.104  -0.017
10530TIP3    H231536   3.031   6.123   0.117
10531TIP3   OH231537   4.825   2.374   6.535
10531TIP3    H131538   4.900   2.432   6.522
10531TIP3    H231539   4.760   2.404   6.471
10532TIP3   OH231540   6.489   5.848   4.754
10532TIP3    H131541   6.425   5.916   4.732
10532TIP3    H231542   6.438   5.782   4.802
10533TIP3   OH231543   5.559   0.717   5.528
10533TIP3    H131544   5.504   0.796   5.534
10533TIP3    H231545   5.503   0.654   5.483
10534TIP3   OH231546   6.674   0.536   2.831
10534TIP3    H131547   6.686   0.621   2.789
10534TIP3    H231548   6.627   0.555   2.912
10535TIP3   OH231549   0.956   7.053   5.400
10535TIP3    H131550   0.982   7.028   5.311
10535TIP3    H231551   0.970   6.975   5.453
10536TIP3   OH231552   7.235   4.919   4.830
10536TIP3    H131553   7.234   4.986   4.898
10536TIP3    H231554   7.253   4.838   4.878
10537TIP3   OH231555   3.157   3.689   6.580
10537TIP3    H131556   3.221   3.669   6.647
10537TIP3    H231557   3.096   3.615   6.581
10538TIP3   OH231558   4.477   5.164   0.246
10538TIP3    H131559   4.448   5.097   0.308
10538TIP3    H231560   4.404   5.173   0.185
10539TIP3   OH231561   6.908   5.097   6.348
10539TIP3    H131562   6.969   5.163   6.382
10539TIP3    H231563   6.951   5.062   6.271
10540TIP3   OH231564   4.565   2.824   0.413
10540TIP3    H131565   4.653   2.856   0.436
10540TIP3    H231566   4.573   2.796   0.322
10541TIP3   OH231567   1.537   0.227   1.277
10541TIP3    H131568   1.597   0.187   1.214
10541TIP3    H231569   1.531   0.163   1.348
10542TIP3   OH231570   4.495   0.811   5.846
10542TIP3    H131571   4.531   0.808   5.935
10542TIP3    H231572   4.556   0.759   5.794
10543TIP3   OH231573   0.152   7.442   6.662
10543TIP3    H131574   0.163   7.536   6.650
10543TIP3    H231575   0.216   7.418   6.728
10544TIP3   OH231576   1.904   2.874   2.764
10544TIP3    H131577   1.992   2.837   2.775
10544TIP3    H231578   1.846   2.798   2.760
10545TIP3   OH231579   4.519   1.713   4.489
10545TIP3    H131580   4.484   1.720   4.400
10545TIP3    H231581   4.606   1.752   4.483
10546TIP3   OH231582   0.366   5.635   6.189
10546TIP3    H131583   0.304   5.702   6.217
10546TIP3    H231584   0.319   5.586   6.121
10547TIP3   OH231585   5.756   1.348   1.459
10547TIP3    H131586   5.674   1.396   1.448
10547TIP3    H231587   5.755   1.319   1.550
10548TIP3   OH231588   8.238   3.500   5.977
10548TIP3    H131589   8.170   3.437   6.000
10548TIP3    H231590   8.317   3.466   6.018
10549TIP3   OH231591   7.606   5.108   4.434
10549TIP3    H131592   7.610   5.203   4.426
10549TIP3    H231593   7.521   5.085   4.397
10550TIP3   OH231594   3.671   7.552   4.519
10550TIP3    H131595   3.661   7.489   4.590
10550TIP3    H231596   3.756   7.531   4.479
10551TIP3   OH231597   7.051   1.525   1.041
10551TIP3    H131598   7.004   1.550   0.962
10551TIP3    H231599   7.029   1.593   1.105
10552TIP3   OH231600   5.665   0.842   6.029
10552TIP3    H131601   5.580   0.870   5.995
10552TIP3    H231602   5.650   0.828   6.122
10553TIP3   OH231603   7.774   7.650   5.552
10553TIP3    H131604   7.718   7.705   5.606
10553TIP3    H231605   7.755   7.561   5.580
10554TIP3   OH231606   2.980   4.769   3.104
10554TIP3    H131607   2.982   4.862   3.127
10554TIP3    H231608   2.963   4.724   3.186
10555TIP3   OH231609   1.237   0.709   2.257
10555TIP3    H131610   1.331   0.694   2.269
10555TIP3    H231611   1.232   0.776   2.189
10556TIP3   OH231612   7.299   7.698   0.961
10556TIP3    H131613   7.282   7.612   0.999
10556TIP3    H231614   7.394   7.700   0.949
10557TIP3   OH231615   3.090   4.105   6.605
10557TIP3    H131616   3.181   4.117   6.632
10557TIP3    H231617   3.052   4.193   6.606
10558TIP3   OH231618   5.076   1.786   1.908
10558TIP3    H131619   5.050   1.825   1.992
10558TIP3    H231620   5.000   1.798   1.851
10559TIP3   OH231621   5.238   2.481   6.235
10559TIP3    H131622   5.296   2.408   6.258
10559TIP3    H231623   5.284   2.559   6.267
10560TIP3   OH231624   2.612   4.225   1.713
10560TIP3    H131625   2.665   4.229   1.792
10560TIP3    H231626   2.606   4.316   1.683
10561TIP3   OH231627   3.150   0.403   2.111
10561TIP3    H131628   3.066   0.447   2.124
10561TIP3    H231629   3.159   0.344   2.186
10562TIP3   OH231630   2.660   5.270   3.806
10562TIP3    H131631   2.747   5.245   3.836
10562TIP3    H231632   2.653   5.232   3.719
10563TIP3   OH231633   5.503   1.045   3.428
10563TIP3    H131634   5.593   1.053   3.398
10563TIP3    H231635   5.509   1.033   3.523
10564TIP3   OH231636   1.486   4.388   6.634
10564TIP3    H131637   1.451   4.475   6.613
10564TIP3    H231638   1.423   4.327   6.597
10565TIP3   OH231639   3.258   0.413   3.334
10565TIP3    H131640   3.229   0.499   3.366
10565TIP3    H231641   3.181   0.376   3.292
10566TIP3   OH231642   7.021   2.225   3.951
10566TIP3    H131643   6.955   2.186   4.009
10566TIP3    H231644   7.101   2.228   4.005
10567TIP3   OH231645   3.796   5.946   4.717
10567TIP3    H131646   3.781   5.862   4.760
10567TIP3    H231647   3.885   5.970   4.742
10568TIP3   OH231648   2.405   5.978   5.268
10568TIP3    H131649   2.470   6.002   5.202
10568TIP3    H231650   2.443   5.902   5.312
10569TIP3   OH231651   2.557   5.257   2.810
10569TIP3    H131652   2.640   5.280   2.768
10569TIP3    H231653   2.568   5.285   2.901
10570TIP3   OH231654   4.334   4.616   1.351
10570TIP3    H131655   4.375   4.538   1.315
10570TIP3    H231656   4.240   4.600   1.343
10571TIP3   OH231657   0.840   4.003   1.295
10571TIP3    H131658   0.851   4.035   1.385
10571TIP3    H231659   0.918   3.950   1.279
10572TIP3   OH231660   7.702   5.873   4.160
10572TIP3    H131661   7.700   5.895   4.067
10572TIP3    H231662   7.663   5.949   4.204
10573TIP3   OH231663   4.801   0.122   1.655
10573TIP3    H131664   4.798   0.184   1.582
10573TIP3    H231665   4.848   0.170   1.724
10574TIP3   OH231666   3.605   7.333   1.696
10574TIP3    H131667   3.652   7.403   1.742
10574TIP3    H231668   3.632   7.343   1.604
10575TIP3   OH231669   8.016   3.331   3.669
10575TIP3    H131670   7.924   3.313   3.690
10575TIP3    H231671   8.063   3.254   3.701
10576TIP3   OH231672   5.467   0.398   6.610
10576TIP3    H131673   5.405   0.457   6.653
10576TIP3    H231674   5.428   0.381   6.524
10577TIP3   OH231675   6.647   2.780   6.221
10577TIP3    H131676   6.691   2.727   6.288
10577TIP3    H231677   6.566   2.733   6.203
10578TIP3   OH231678   5.086   2.517   0.831
10578TIP3    H131679   5.046   2.444   0.877
10578TIP3    H231680   5.118   2.480   0.749
10579TIP3   OH231681   3.522   1.116   5.729
10579TIP3    H131682   3.600   1.099   5.781
10579TIP3    H231683   3.495   1.030   5.696
10580TIP3   OH231684   0.022   0.952   1.675
10580TIP3    H131685   0.046   0.927   1.764
10580TIP3    H231686  -0.061   0.908   1.659
10581TIP3   OH231687   2.541   0.729   2.087
10581TIP3    H131688   2.607   0.777   2.036
10581TIP3    H231689   2.593   0.671   2.143
10582TIP3   OH231690   6.112   5.895   3.891
10582TIP3    H131691   6.164   5.828   3.934
10582TIP3    H231692   6.177   5.951   3.847
10583TIP3   OH231693   4.642   4.510   0.878
10583TIP3    H131694   4.713   4.519   0.815
10583TIP3    H231695   4.638   4.416   0.897
10584TIP3   OH231696   0.909   3.403   1.518
10584TIP3    H131697   0.834   3.346   1.536
10584TIP3    H231698   0.969   3.386   1.590
10585TIP3   OH231699   2.645   6.861   2.134
10585TIP3    H131700   2.607   6.948   2.147
10585TIP3    H231701   2.591   6.803   2.187
10586TIP3   OH231702   0.208   5.294   0.515
10586TIP3    H131703   0.154   5.216   0.503
10586TIP3    H231704   0.285   5.262   0.563
10587TIP3   OH231705   2.077   6.648   5.829
10587TIP3    H131706   2.027   6.581   5.782
10587TIP3    H231707   2.115   6.703   5.760
10588TIP3   OH231708   6.110   3.775   6.692
10588TIP3    H131709   6.138   3.683   6.696
10588TIP3    H231710   6.022   3.774   6.730
10589TIP3   OH231711   7.858   4.501   6.581
10589TIP3    H131712   7.943   4.459   6.594
10589TIP3    H231713   7.828   4.468   6.497
10590TIP3   OH231714   6.975   3.394   1.267
10590TIP3    H131715   6.948   3.360   1.182
10590TIP3    H231716   7.066   3.421   1.254
10591TIP3   OH231717   2.380   5.755   1.801
10591TIP3    H131718   2.418   5.752   1.713
10591TIP3    H231719   2.454   5.742   1.860
10592TIP3   OH231720   1.196   3.470   1.143
10592TIP3    H131721   1.146   3.492   1.222
10592TIP3    H231722   1.171   3.380   1.124
10593TIP3   OH231723   7.145   5.462   2.463
10593TIP3    H131724   7.228   5.427   2.431
10593TIP3    H231725   7.134   5.422   2.549
10594TIP3   OH231726   4.653   4.759   0.978
10594TIP3    H131727   4.628   4.668   0.961
10594TIP3    H231728   4.708   4.783   0.904
10595TIP3   OH231729   4.901   3.331   2.449
10595TIP3    H131730   4.937   3.340   2.537
10595TIP3    H231731   4.974   3.352   2.391
10596TIP3   OH231732   5.258   5.826   5.080
10596TIP3    H131733   5.312   5.885   5.132
10596TIP3    H231734   5.168   5.852   5.100
10597TIP3   OH231735   0.957   7.675   1.524
10597TIP3    H131736   0.942   7.582   1.544
10597TIP3    H231737   0.873   7.717   1.541
10598TIP3   OH231738   4.276   7.165   1.136
10598TIP3    H131739   4.270   7.128   1.048
10598TIP3    H231740   4.255   7.258   1.124
10599TIP3   OH231741   7.069   3.854   0.734
10599TIP3    H131742   7.125   3.882   0.661
10599TIP3    H231743   6.981   3.853   0.697
10600TIP3   OH231744   3.834   1.061   3.627
10600TIP3    H131745   3.751   1.015   3.633
10600TIP3    H231746   3.824   1.119   3.552
10601TIP3   OH231747   1.240   5.550   1.888
10601TIP3    H131748   1.276   5.472   1.930
10601TIP3    H231749   1.295   5.622   1.920
10602TIP3   OH231750   0.824   5.440   2.901
10602TIP3    H131751   0.900   5.448   2.843
10602TIP3    H231752   0.842   5.362   2.954
10603TIP3   OH231753   6.516   6.839   6.096
10603TIP3    H131754   6.577   6.766   6.084
10603TIP3    H231755   6.438   6.800   6.136
10604TIP3   OH231756   6.238   7.756   5.138
10604TIP3    H131757   6.170   7.822   5.149
10604TIP3    H231758   6.294   7.767   5.214
10605TIP3   OH231759   0.553   4.773   6.627
10605TIP3    H131760   0.572   4.839   6.560
10605TIP3    H231761   0.639   4.740   6.652
10606TIP3   OH231762   1.584   5.424   3.957
10606TIP3    H131763   1.493   5.440   3.982
10606TIP3    H231764   1.578   5.353   3.892
10607TIP3   OH231765   4.739   3.628   2.395
10607TIP3    H131766   4.733   3.552   2.337
10607TIP3    H231767   4.701   3.597   2.478
10608TIP3   OH231768   7.743   6.514   3.950
10608TIP3    H131769   7.836   6.490   3.951
10608TIP3    H231770   7.740   6.601   3.990
10609TIP3   OH231771   6.102   1.361   4.939
10609TIP3    H131772   6.172   1.351   4.874
10609TIP3    H231773   6.056   1.440   4.913
10610TIP3   OH231774   6.560   6.094   6.315
10610TIP3    H131775   6.502   6.022   6.340
10610TIP3    H231776   6.572   6.082   6.220
10611TIP3   OH231777   1.572   4.713   0.895
10611TIP3    H131778   1.640   4.681   0.954
10611TIP3    H231779   1.573   4.651   0.822
10612TIP3   OH231780   2.685   6.657   4.406
10612TIP3    H131781   2.639   6.712   4.469
10612TIP3    H231782   2.633   6.577   4.402
10613TIP3   OH231783   1.645   0.502   0.313
10613TIP3    H131784   1.604   0.534   0.233
10613TIP3    H231785   1.631   0.407   0.311
10614TIP3   OH231786   7.158   5.528   0.366
10614TIP3    H131787   7.227   5.576   0.322
10614TIP3    H231788   7.095   5.595   0.394
10615TIP3   OH231789   5.791   6.246   0.162
10615TIP3    H131790   5.860   6.312   0.173
10615TIP3    H231791   5.733   6.259   0.237
10616TIP3   OH231792   4.630   6.797   0.628
10616TIP3    H131793   4.556   6.856   0.612
10616TIP3    H231794   4.660   6.819   0.717
10617TIP3   OH231795   8.207   6.324   3.072
10617TIP3    H131796   8.167   6.262   3.011
10617TIP3    H231797   8.297   6.335   3.039
10618TIP3   OH231798   0.186   3.674   2.195
10618TIP3    H131799   0.142   3.729   2.130
10618TIP3    H231800   0.178   3.722   2.277
10619TIP3   OH231801   3.586   5.915   0.579
10619TIP3    H131802   3.578   5.857   0.655
10619TIP3    H231803   3.677   5.943   0.579
10620TIP3   OH231804   6.778   5.964   0.408
10620TIP3    H131805   6.731   5.955   0.491
10620TIP3    H231806   6.797   6.057   0.401
10621TIP3   OH231807   1.884   0.472   6.753
10621TIP3    H131808   1.882   0.403   6.687
10621TIP3    H231809   1.853   0.550   6.707
10622TIP3   OH231810   3.649   6.052   3.215
10622TIP3    H131811   3.657   6.034   3.121
10622TIP3    H231812   3.740   6.055   3.246
10623TIP3   OH231813   1.553   3.748   4.122
10623TIP3    H131814   1.529   3.829   4.167
10623TIP3    H231815   1.633   3.718   4.166
10624TIP3   OH231816   0.134   6.585   1.129
10624TIP3    H131817   0.062   6.620   1.077
10624TIP3    H231818   0.122   6.624   1.216
10625TIP3   OH231819   7.963   0.797   2.409
10625TIP3    H131820   7.873   0.829   2.399
10625TIP3    H231821   7.963   0.751   2.493
10626TIP3   OH231822   4.328   3.819   2.122
10626TIP3    H131823   4.332   3.798   2.215
10626TIP3    H231824   4.412   3.791   2.087
10627TIP3   OH231825   4.320   4.564   1.658
10627TIP3    H131826   4.395   4.623   1.670
10627TIP3    H231827   4.359   4.478   1.640
10628TIP3   OH231828   0.197   6.378   4.338
10628TIP3    H131829   0.253   6.368   4.415
10628TIP3    H231830   0.141   6.300   4.338
10629TIP3   OH231831   6.069   5.646   3.751
10629TIP3    H131832   6.071   5.736   3.783
10629TIP3    H231833   6.036   5.654   3.661
10630TIP3   OH231834   4.978   5.027   0.070
10630TIP3    H131835   4.890   5.065   0.064
10630TIP3    H231836   5.021   5.079   0.139
10631TIP3   OH231837   1.547   6.317   1.522
10631TIP3    H131838   1.619   6.254   1.509
10631TIP3    H231839   1.589   6.393   1.563
10632TIP3   OH231840   1.649   3.057   3.523
10632TIP3    H131841   1.701   3.059   3.604
10632TIP3    H231842   1.706   3.014   3.459
10633TIP3   OH231843   3.519   6.763   4.005
10633TIP3    H131844   3.569   6.756   3.924
10633TIP3    H231845   3.515   6.674   4.039
10634TIP3   OH231846   0.973   7.635   5.766
10634TIP3    H131847   0.878   7.623   5.758
10634TIP3    H231848   1.010   7.564   5.713
10635TIP3   OH231849   6.232   3.658   5.545
10635TIP3    H131850   6.241   3.752   5.533
10635TIP3    H231851   6.163   3.633   5.483
10636TIP3   OH231852   5.428   1.845   0.556
10636TIP3    H131853   5.382   1.888   0.628
10636TIP3    H231854   5.456   1.761   0.592
10637TIP3   OH231855   3.006   0.552   2.421
10637TIP3    H131856   2.999   0.630   2.476
10637TIP3    H231857   2.937   0.494   2.453
10638TIP3   OH231858   5.652   4.351   5.984
10638TIP3    H131859   5.634   4.258   5.974
10638TIP3    H231860   5.570   4.394   5.960
10639TIP3   OH231861   7.901   4.784   2.248
10639TIP3    H131862   7.858   4.783   2.162
10639TIP3    H231863   7.893   4.694   2.280
10640TIP3   OH231864   4.411   0.054   1.449
10640TIP3    H131865   4.331   0.003   1.459
10640TIP3    H231866   4.478   0.003   1.496
10641TIP3   OH231867   0.020   2.130   0.646
10641TIP3    H131868   0.078   2.079   0.589
10641TIP3    H231869   0.043   2.103   0.735
10642TIP3   OH231870   6.185   2.109   0.343
10642TIP3    H131871   6.164   2.198   0.372
10642TIP3    H231872   6.102   2.075   0.310
10643TIP3   OH231873   5.598   2.783   0.849
10643TIP3    H131874   5.589   2.844   0.777
10643TIP3    H231875   5.522   2.800   0.905
10644TIP3   OH231876   4.555   0.133   1.230
10644TIP3    H131877   4.488   0.127   1.298
10644TIP3    H231878   4.559   0.045   1.192
10645TIP3   OH231879   1.038   6.335   0.520
10645TIP3    H131880   1.098   6.303   0.588
10645TIP3    H231881   1.045   6.430   0.525
10646TIP3   OH231882   3.699   6.256   1.762
10646TIP3    H131883   3.660   6.341   1.783
10646TIP3    H231884   3.792   6.275   1.748
10647TIP3   OH231885   2.366   4.264   4.626
10647TIP3    H131886   2.406   4.340   4.583
10647TIP3    H231887   2.367   4.285   4.719
10648TIP3   OH231888   4.387   1.879   1.875
10648TIP3    H131889   4.405   1.971   1.858
10648TIP3    H231890   4.326   1.879   1.948
10649TIP3   OH231891   7.452   1.689   5.657
10649TIP3    H131892   7.449   1.634   5.578
10649TIP3    H231893   7.406   1.638   5.724
10650TIP3   OH231894   1.526   1.317   4.783
10650TIP3    H131895   1.528   1.347   4.874
10650TIP3    H231896   1.608   1.350   4.746
10651TIP3   OH231897   0.223   4.166   4.244
10651TIP3    H131898   0.252   4.214   4.321
10651TIP3    H231899   0.296   4.107   4.224
10652TIP3   OH231900   3.266   5.015   5.498
10652TIP3    H131901   3.243   5.015   5.405
10652TIP3    H231902   3.312   5.098   5.512
10653TIP3   OH231903   8.128   4.123   6.693
10653TIP3    H131904   8.095   4.085   6.611
10653TIP3    H231905   8.105   4.058   6.759
10654TIP3   OH231906   7.692   2.353   0.763
10654TIP3    H131907   7.644   2.366   0.681
10654TIP3    H231908   7.656   2.419   0.823
10655TIP3   OH231909   5.663   6.900   0.092
10655TIP3    H131910   5.686   6.952   0.015
10655TIP3    H231911   5.726   6.828   0.092
10656TIP3   OH231912   5.413   7.486   2.807
10656TIP3    H131913   5.319   7.486   2.787
10656TIP3    H231914   5.448   7.559   2.755
10657TIP3   OH231915   2.270   3.124   6.514
10657TIP3    H131916   2.227   3.195   6.467
10657TIP3    H231917   2.220   3.046   6.492
10658TIP3   OH231918   4.380   6.931   0.898
10658TIP3    H131919   4.298   6.893   0.930
10658TIP3    H231920   4.365   6.946   0.805
10659TIP3   OH231921   8.277   2.324   0.473
10659TIP3    H131922   8.284   2.258   0.542
10659TIP3    H231923   8.244   2.276   0.398
10660TIP3   OH231924   5.755   6.678   0.391
10660TIP3    H131925   5.706   6.700   0.471
10660TIP3    H231926   5.695   6.702   0.320
10661TIP3   OH231927   5.045   3.976   4.706
10661TIP3    H131928   5.036   3.927   4.787
10661TIP3    H231929   4.963   3.962   4.659
10662TIP3   OH231930   7.950   6.937   5.860
10662TIP3    H131931   8.037   6.972   5.877
10662TIP3    H231932   7.894   7.014   5.848
10663TIP3   OH231933   1.193   0.328   1.586
10663TIP3    H131934   1.229   0.264   1.648
10663TIP3    H231935   1.191   0.283   1.502
10664TIP3   OH231936   2.747   4.582   5.074
10664TIP3    H131937   2.699   4.664   5.087
10664TIP3    H231938   2.690   4.515   5.112
10665TIP3   OH231939   1.745   3.273   1.678
10665TIP3    H131940   1.680   3.300   1.742
10665TIP3    H231941   1.791   3.353   1.654
10666TIP3   OH231942   3.436   7.445   0.018
10666TIP3    H131943   3.350   7.478   0.044
10666TIP3    H231944   3.419   7.360  -0.022
10667TIP3   OH231945   4.307   5.326   4.087
10667TIP3    H131946   4.211   5.331   4.088
10667TIP3    H231947   4.336   5.417   4.094
10668TIP3   OH231948   5.042   3.405   3.945
10668TIP3    H131949   5.008   3.354   4.018
10668TIP3    H231950   5.047   3.495   3.978
10669TIP3   OH231951   7.548   7.579   5.300
10669TIP3    H131952   7.536   7.664   5.258
10669TIP3    H231953   7.459   7.547   5.316
10670TIP3   OH231954   5.690   7.076   6.717
10670TIP3    H131955   5.606   7.033   6.699
10670TIP3    H231956   5.690   7.090   6.811
10671TIP3   OH231957   4.560   4.503   6.717
10671TIP3    H131958   4.527   4.573   6.774
10671TIP3    H231959   4.640   4.539   6.678
10672TIP3   OH231960   3.437   7.138   1.527
10672TIP3    H131961   3.372   7.175   1.587
10672TIP3    H231962   3.473   7.214   1.481
10673TIP3   OH231963   0.190   7.117   3.375
10673TIP3    H131964   0.211   7.025   3.392
10673TIP3    H231965   0.119   7.114   3.311
10674TIP3   OH231966   2.108   6.952   4.029
10674TIP3    H131967   2.178   6.892   4.056
10674TIP3    H231968   2.035   6.930   4.087
10675TIP3   OH231969   0.979   7.211   3.219
10675TIP3    H131970   0.886   7.198   3.201
10675TIP3    H231971   1.011   7.258   3.142
10676TIP3   OH231972   6.505   0.772   2.339
10676TIP3    H131973   6.526   0.680   2.356
10676TIP3    H231974   6.524   0.784   2.246
10677TIP3   OH231975   5.023   3.622   6.369
10677TIP3    H131976   5.116   3.603   6.355
10677TIP3    H231977   4.987   3.626   6.280
10678TIP3   OH231978   6.612   7.681   4.277
10678TIP3    H131979   6.606   7.652   4.368
10678TIP3    H231980   6.619   7.599   4.227
10679TIP3   OH231981   6.375   6.104   4.014
10679TIP3    H131982   6.439   6.171   3.990
10679TIP3    H231983   6.353   6.061   3.931
10680TIP3   OH231984   7.493   4.822   5.320
10680TIP3    H131985   7.449   4.855   5.398
10680TIP3    H231986   7.549   4.751   5.351
10681TIP3   OH231987   2.351   4.970   0.577
10681TIP3    H131988   2.257   4.960   0.593
10681TIP3    H231989   2.371   5.059   0.605
10682TIP3   OH231990   3.511   0.921   4.770
10682TIP3    H131991   3.489   0.891   4.682
10682TIP3    H231992   3.606   0.920   4.774
10683TIP3   OH231993   5.059   5.464   0.960
10683TIP3    H131994   5.153   5.477   0.952
10683TIP3    H231995   5.030   5.444   0.871
10684TIP3   OH231996   4.501   0.215   5.801
10684TIP3    H131997   4.545   0.132   5.816
10684TIP3    H231998   4.540   0.275   5.866
10685TIP3   OH231999   2.668   4.592   4.741
10685TIP3    H132000   2.672   4.498   4.722
10685TIP3    H232001   2.599   4.600   4.807
10686TIP3   OH232002   0.648   2.454   0.744
10686TIP3    H132003   0.634   2.511   0.819
10686TIP3    H232004   0.674   2.513   0.674
10687TIP3   OH232005   5.033   1.659   6.288
10687TIP3    H132006   5.034   1.623   6.199
10687TIP3    H232007   5.020   1.753   6.276
10688TIP3   OH232008   0.606   4.257   1.387
10688TIP3    H132009   0.560   4.334   1.351
10688TIP3    H232010   0.652   4.220   1.312
10689TIP3   OH232011   7.672   1.521   2.643
10689TIP3    H132012   7.631   1.435   2.630
10689TIP3    H232013   7.663   1.564   2.558
10690TIP3   OH232014   3.524   6.898   5.176
10690TIP3    H132015   3.448   6.930   5.129
10690TIP3    H232016   3.576   6.852   5.110
10691TIP3   OH232017   4.641   2.005   1.153
10691TIP3    H132018   4.650   2.087   1.202
10691TIP3    H232019   4.673   1.937   1.212
10692TIP3   OH232020   7.718   0.200   3.869
10692TIP3    H132021   7.662   0.215   3.793
10692TIP3    H232022   7.682   0.256   3.937
10693TIP3   OH232023   6.305   3.760   6.054
10693TIP3    H132024   6.287   3.666   6.059
10693TIP3    H232025   6.224   3.798   6.020
10694TIP3   OH232026   7.209   0.093   6.497
10694TIP3    H132027   7.274   0.082   6.428
10694TIP3    H232028   7.164   0.175   6.475
10695TIP3   OH232029   7.756   7.352   4.123
10695TIP3    H132030   7.732   7.371   4.214
10695TIP3    H232031   7.840   7.396   4.111
10696TIP3   OH232032   7.091   6.310   5.934
10696TIP3    H132033   7.130   6.357   5.860
10696TIP3    H232034   7.112   6.218   5.917
10697TIP3   OH232035   2.543   2.226   3.021
10697TIP3    H132036   2.624   2.245   2.975
10697TIP3    H232037   2.474   2.242   2.957
10698TIP3   OH232038   2.886   0.377   1.950
10698TIP3    H132039   2.917   0.301   2.000
10698TIP3    H232040   2.893   0.450   2.010
10699TIP3   OH232041   4.111   5.551   4.113
10699TIP3    H132042   4.161   5.632   4.118
10699TIP3    H232043   4.129   5.517   4.025
10700TIP3   OH232044   2.939   5.565   1.515
10700TIP3    H132045   2.972   5.628   1.579
10700TIP3    H232046   2.976   5.595   1.432
10701TIP3   OH232047   2.799   0.607   4.643
10701TIP3    H132048   2.859   0.634   4.573
10701TIP3    H232049   2.717   0.650   4.621
10702TIP3   OH232050   6.238   2.587   5.252
10702TIP3    H132051   6.238   2.496   5.222
10702TIP3    H232052   6.264   2.582   5.344
10703TIP3   OH232053   5.566   4.821   6.760
10703TIP3    H132054   5.646   4.841   6.712
10703TIP3    H232055   5.585   4.740   6.806
10704TIP3   OH232056   6.477   3.412   2.895
10704TIP3    H132057   6.473   3.450   2.983
10704TIP3    H232058   6.469   3.487   2.836
10705TIP3   OH232059   2.686   1.976   4.332
10705TIP3    H132060   2.703   1.882   4.327
10705TIP3    H232061   2.773   2.016   4.333
10706TIP3   OH232062   5.528   2.497   3.670
10706TIP3    H132063   5.549   2.590   3.677
10706TIP3    H232064   5.464   2.482   3.740
10707TIP3   OH232065   5.391   4.916   3.278
10707TIP3    H132066   5.388   4.842   3.339
10707TIP3    H232067   5.332   4.891   3.207
10708TIP3   OH232068   7.478   1.566   3.261
10708TIP3    H132069   7.487   1.651   3.304
10708TIP3    H232070   7.491   1.502   3.331
10709TIP3   OH232071   1.769   0.198   2.572
10709TIP3    H132072   1.849   0.214   2.521
10709TIP3    H232073   1.731   0.285   2.586
10710TIP3   OH232074   7.340   5.823   2.684
10710TIP3    H132075   7.309   5.889   2.622
10710TIP3    H232076   7.426   5.798   2.651
10711TIP3   OH232077   4.008   2.058   0.536
10711TIP3    H132078   3.943   2.040   0.468
10711TIP3    H232079   3.976   2.137   0.580
10712TIP3   OH232080   5.093   7.667   0.360
10712TIP3    H132081   5.143   7.635   0.285
10712TIP3    H232082   5.017   7.610   0.364
10713TIP3   OH232083   2.580   4.124   2.344
10713TIP3    H132084   2.554   4.196   2.401
10713TIP3    H232085   2.549   4.149   2.257
10714TIP3   OH232086   7.530   6.265   0.248
10714TIP3    H132087   7.551   6.216   0.327
10714TIP3    H232088   7.548   6.205   0.176
10715TIP3   OH232089   1.039   3.858   3.217
10715TIP3    H132090   1.114   3.917   3.227
10715TIP3    H232091   1.077   3.770   3.224
10716TIP3   OH232092   4.657   5.556   5.509
10716TIP3    H132093   4.659   5.477   5.455
10716TIP3    H232094   4.723   5.541   5.576
10717TIP3   OH232095   7.039   4.905   5.360
10717TIP3    H132096   6.949   4.916   5.329
10717TIP3    H232097   7.053   4.810   5.359
10718TIP3   OH232098   4.103   2.075   2.390
10718TIP3    H132099   4.129   2.165   2.373
10718TIP3    H232100   4.085   2.072   2.483
10719TIP3   OH232101   6.421   3.648   4.816
10719TIP3    H132102   6.492   3.592   4.847
10719TIP3    H232103   6.353   3.587   4.788
10720TIP3   OH232104   2.380   5.350   1.291
10720TIP3    H132105   2.424   5.404   1.225
10720TIP3    H232106   2.450   5.326   1.352
10721TIP3   OH232107   2.457   7.077   4.920
10721TIP3    H132108   2.416   6.999   4.957
10721TIP3    H232109   2.473   7.055   4.828
10722TIP3   OH232110   4.953   5.250   1.774
10722TIP3    H132111   4.942   5.170   1.723
10722TIP3    H232112   4.984   5.220   1.860
10723TIP3   OH232113   0.322   1.705   1.480
10723TIP3    H132114   0.327   1.610   1.493
10723TIP3    H232115   0.397   1.726   1.425
10724TIP3   OH232116   6.924   5.485   2.175
10724TIP3    H132117   6.849   5.537   2.145
10724TIP3    H232118   6.953   5.527   2.255
10725TIP3   OH232119   2.136   0.424   3.328
10725TIP3    H132120   2.085   0.348   3.300
10725TIP3    H232121   2.168   0.463   3.247
10726TIP3   OH232122   3.581   7.019   0.682
10726TIP3    H132123   3.495   7.059   0.696
10726TIP3    H232124   3.631   7.040   0.761
10727TIP3   OH232125   1.915   0.463   3.486
10727TIP3    H132126   1.873   0.390   3.440
10727TIP3    H232127   1.992   0.483   3.433
10728TIP3   OH232128   3.859   1.107   2.902
10728TIP3    H132129   3.765   1.097   2.886
10728TIP3    H232130   3.897   1.117   2.815
10729TIP3   OH232131   2.802   0.652   1.479
10729TIP3    H132132   2.740   0.597   1.430
10729TIP3    H232133   2.865   0.681   1.413
10730TIP3   OH232134   3.639   2.052   4.420
10730TIP3    H132135   3.650   2.007   4.504
10730TIP3    H232136   3.556   2.020   4.387
10731TIP3   OH232137   3.961   4.124   4.132
10731TIP3    H132138   3.866   4.127   4.147
10731TIP3    H232139   3.998   4.160   4.213
10732TIP3   OH232140   1.191   0.914   2.090
10732TIP3    H132141   1.183   0.985   2.154
10732TIP3    H232142   1.201   0.959   2.006
10733TIP3   OH232143   3.094   0.994   4.568
10733TIP3    H132144   3.105   1.028   4.657
10733TIP3    H232145   3.000   0.983   4.559
10734TIP3   OH232146   4.503   6.918   3.051
10734TIP3    H132147   4.562   6.992   3.040
10734TIP3    H232148   4.415   6.957   3.046
10735TIP3   OH232149   4.881   5.781   2.084
10735TIP3    H132150   4.890   5.687   2.101
10735TIP3    H232151   4.803   5.788   2.028
10736TIP3   OH232152   2.082   6.088   2.140
10736TIP3    H132153   2.028   6.153   2.095
10736TIP3    H232154   2.115   6.031   2.071
10737TIP3   OH232155   6.029   3.457   5.733
10737TIP3    H132156   6.050   3.550   5.725
10737TIP3    H232157   6.082   3.427   5.807
10738TIP3   OH232158   6.080   5.239   3.231
10738TIP3    H132159   6.055   5.321   3.189
10738TIP3    H232160   6.172   5.226   3.206
10739TIP3   OH232161   7.608   6.135   1.596
10739TIP3    H132162   7.643   6.143   1.507
10739TIP3    H232163   7.685   6.123   1.651
10740TIP3   OH232164   5.252   6.006   0.381
10740TIP3    H132165   5.164   5.969   0.386
10740TIP3    H232166   5.298   5.948   0.320
10741TIP3   OH232167   3.620   3.600   2.629
10741TIP3    H132168   3.690   3.550   2.587
10741TIP3    H232169   3.554   3.612   2.561
10742TIP3   OH232170   1.898   4.150   5.758
10742TIP3    H132171   1.861   4.218   5.702
10742TIP3    H232172   1.991   4.149   5.736
10743TIP3   OH232173   6.845   6.978   0.758
10743TIP3    H132174   6.891   6.974   0.674
10743TIP3    H232175   6.777   6.910   0.752
10744TIP3   OH232176   2.601   4.073   5.436
10744TIP3    H132177   2.647   4.156   5.430
10744TIP3    H232178   2.670   4.009   5.456
10745TIP3   OH232179   0.070   0.089   0.360
10745TIP3    H132180   0.109   0.169   0.394
10745TIP3    H232181  -0.025   0.102   0.371
10746TIP3   OH232182   7.405   1.452   1.637
10746TIP3    H132183   7.417   1.482   1.547
10746TIP3    H232184   7.491   1.462   1.678
10747TIP3   OH232185   6.288   6.692   4.934
10747TIP3    H132186   6.256   6.771   4.977
10747TIP3    H232187   6.260   6.620   4.990
10748TIP3   OH232188   6.189   2.851   3.980
10748TIP3    H132189   6.214   2.885   4.066
10748TIP3    H232190   6.150   2.926   3.935
10749TIP3   OH232191   5.903   3.722   4.857
10749TIP3    H132192   5.955   3.670   4.796
10749TIP3    H232193   5.957   3.799   4.875
10750TIP3   OH232194   7.865   6.464   0.674
10750TIP3    H132195   7.893   6.438   0.762
10750TIP3    H232196   7.913   6.407   0.615
10751TIP3   OH232197   1.585   3.044   1.226
10751TIP3    H132198   1.611   3.052   1.318
10751TIP3    H232199   1.643   2.976   1.191
10752TIP3   OH232200   5.283   3.820   0.778
10752TIP3    H132201   5.235   3.856   0.703
10752TIP3    H232202   5.296   3.895   0.836
10753TIP3   OH232203   7.231   3.735   5.271
10753TIP3    H132204   7.267   3.650   5.299
10753TIP3    H232205   7.270   3.750   5.185
10754TIP3   OH232206   3.880   5.610   5.683
10754TIP3    H132207   3.793   5.578   5.705
10754TIP3    H232208   3.906   5.558   5.607
10755TIP3   OH232209   2.027   6.729   5.129
10755TIP3    H132210   2.105   6.784   5.139
10755TIP3    H232211   2.018   6.685   5.214
10756TIP3   OH232212   6.671   4.034   1.944
10756TIP3    H132213   6.716   3.950   1.950
10756TIP3    H232214   6.618   4.039   2.023
10757TIP3   OH232215   7.184   4.133   2.458
10757TIP3    H132216   7.223   4.213   2.424
10757TIP3    H232217   7.255   4.068   2.455
10758TIP3   OH232218   3.374   6.341   2.596
10758TIP3    H132219   3.466   6.350   2.573
10758TIP3    H232220   3.328   6.343   2.511
10759TIP3   OH232221   0.494   2.684   5.185
10759TIP3    H132222   0.582   2.708   5.215
10759TIP3    H232223   0.489   2.717   5.096
10760TIP3   OH232224   3.807   6.768   2.457
10760TIP3    H132225   3.831   6.730   2.372
10760TIP3    H232226   3.836   6.859   2.451
10761TIP3   OH232227   5.742   7.719   0.472
10761TIP3    H132228   5.805   7.767   0.526
10761TIP3    H232229   5.693   7.786   0.426
10762TIP3   OH232230   0.384   2.044   0.727
10762TIP3    H132231   0.452   2.044   0.795
10762TIP3    H232232   0.337   1.962   0.742
10763TIP3   OH232233   2.965   7.084   6.695
10763TIP3    H132234   2.953   7.178   6.688
10763TIP3    H232235   3.055   7.073   6.726
10764TIP3   OH232236   3.479   7.064   3.733
10764TIP3    H132237   3.394   7.021   3.727
10764TIP3    H232238   3.534   7.002   3.781
10765TIP3   OH232239   5.834   7.001   5.423
10765TIP3    H132240   5.915   7.016   5.471
10765TIP3    H232241   5.862   6.969   5.337
10766TIP3   OH232242   1.094   7.283   5.656
10766TIP3    H132243   1.055   7.196   5.646
10766TIP3    H232244   1.046   7.337   5.594
10767TIP3   OH232245   6.135   6.312   4.603
10767TIP3    H132246   6.209   6.325   4.662
10767TIP3    H232247   6.129   6.393   4.553
10768TIP3   OH232248   4.814   5.230   4.782
10768TIP3    H132249   4.830   5.138   4.804
10768TIP3    H232250   4.750   5.259   4.847
10769TIP3   OH232251   1.679   2.518   2.723
10769TIP3    H132252   1.737   2.512   2.647
10769TIP3    H232253   1.735   2.497   2.797
10770TIP3   OH232254   3.729   7.548   1.799
10770TIP3    H132255   3.725   7.637   1.764
10770TIP3    H232256   3.808   7.548   1.854
10771TIP3   OH232257   4.920   1.351   0.726
10771TIP3    H132258   4.879   1.435   0.748
10771TIP3    H232259   4.883   1.289   0.789
10772TIP3   OH232260   2.164   5.713   3.948
10772TIP3    H132261   2.178   5.763   4.028
10772TIP3    H232262   2.091   5.655   3.969
10773TIP3   OH232263   3.976   2.342   1.689
10773TIP3    H132264   3.896   2.333   1.638
10773TIP3    H232265   3.965   2.423   1.739
10774TIP3   OH232266   4.763   4.511   1.752
10774TIP3    H132267   4.854   4.514   1.779
10774TIP3    H232268   4.733   4.602   1.759
10775TIP3   OH232269   4.435   7.690   0.818
10775TIP3    H132270   4.460   7.631   0.747
10775TIP3    H232271   4.368   7.642   0.866
10776TIP3   OH232272   1.875   1.338   1.502
10776TIP3    H132273   1.795   1.334   1.555
10776TIP3    H232274   1.858   1.407   1.438
10777TIP3   OH232275   3.185   3.749   5.686
10777TIP3    H132276   3.197   3.664   5.644
10777TIP3    H232277   3.250   3.750   5.757
10778TIP3   OH232278   4.570   1.883   0.583
10778TIP3    H132279   4.662   1.855   0.580
10778TIP3    H232280   4.534   1.840   0.660
10779TIP3   OH232281   0.980   0.692   3.456
10779TIP3    H132282   1.032   0.757   3.409
10779TIP3    H232283   1.026   0.679   3.538
10780TIP3   OH232284   6.919   0.343   5.223
10780TIP3    H132285   6.854   0.386   5.168
10780TIP3    H232286   6.873   0.267   5.259
10781TIP3   OH232287   6.493   7.222   6.302
10781TIP3    H132288   6.530   7.147   6.350
10781TIP3    H232289   6.445   7.182   6.229
10782TIP3   OH232290   1.701   2.918   2.961
10782TIP3    H132291   1.763   2.880   3.023
10782TIP3    H232292   1.753   2.934   2.882
10783TIP3   OH232293   2.629   5.895   5.890
10783TIP3    H132294   2.721   5.886   5.865
10783TIP3    H232295   2.608   5.987   5.871
10784TIP3   OH232296   1.098   3.829   6.129
10784TIP3    H132297   1.015   3.834   6.176
10784TIP3    H232298   1.143   3.910   6.151
10785TIP3   OH232299   2.866   7.636   5.462
10785TIP3    H132300   2.933   7.639   5.529
10785TIP3    H232301   2.835   7.545   5.463
10786TIP3   OH232302   4.699   2.730   2.515
10786TIP3    H132303   4.691   2.806   2.572
10786TIP3    H232304   4.647   2.662   2.558
10787TIP3   OH232305   1.993   0.621   3.990
10787TIP3    H132306   1.992   0.580   3.904
10787TIP3    H232307   2.012   0.714   3.972
10788TIP3   OH232308   6.708   1.307   1.334
10788TIP3    H132309   6.729   1.364   1.259
10788TIP3    H232310   6.615   1.287   1.322
10789TIP3   OH232311   6.149   1.071   1.231
10789TIP3    H132312   6.089   1.127   1.282
10789TIP3    H232313   6.094   1.000   1.198
10790TIP3   OH232314   1.320   3.963   3.300
10790TIP3    H132315   1.388   3.948   3.365
10790TIP3    H232316   1.353   3.921   3.221
10791TIP3   OH232317   4.015   5.686   1.498
10791TIP3    H132318   3.943   5.689   1.434
10791TIP3    H232319   4.078   5.624   1.460
10792TIP3   OH232320   2.814   1.965   0.944
10792TIP3    H132321   2.784   1.877   0.921
10792TIP3    H232322   2.892   1.979   0.890
10793TIP3   OH232323   0.978   4.796   4.101
10793TIP3    H132324   0.965   4.765   4.012
10793TIP3    H232325   0.931   4.733   4.156
10794TIP3   OH232326   6.612   3.389   4.419
10794TIP3    H132327   6.699   3.350   4.416
10794TIP3    H232328   6.568   3.344   4.492
10795TIP3   OH232329   5.247   3.735   5.958
10795TIP3    H132330   5.234   3.758   5.866
10795TIP3    H232331   5.310   3.663   5.956
10796TIP3   OH232332   7.386   6.987   6.785
10796TIP3    H132333   7.427   7.015   6.866
10796TIP3    H232334   7.401   7.060   6.724
10797TIP3   OH232335   2.743   4.356   3.876
10797TIP3    H132336   2.734   4.262   3.891
10797TIP3    H232337   2.674   4.376   3.812
10798TIP3   OH232338   3.692   3.318   5.892
10798TIP3    H132339   3.777   3.274   5.890
10798TIP3    H232340   3.630   3.252   5.861
10799TIP3   OH232341   6.290   0.141   4.982
10799TIP3    H132342   6.238   0.068   4.949
10799TIP3    H232343   6.377   0.104   4.998
10800TIP3   OH232344   0.932   7.698   5.347
10800TIP3    H132345   0.887   7.756   5.409
10800TIP3    H232346   0.912   7.735   5.261
10801TIP3   OH232347   4.476   5.461   5.799
10801TIP3    H132348   4.500   5.471   5.707
10801TIP3    H232349   4.453   5.549   5.829
10802TIP3   OH232350   4.803   6.804   2.780
10802TIP3    H132351   4.885   6.755   2.774
10802TIP3    H232352   4.735   6.738   2.764
10803TIP3   OH232353   6.622   2.033   5.007
10803TIP3    H132354   6.691   1.984   4.964
10803TIP3    H232355   6.621   2.118   4.962
10804TIP3   OH232356   2.787   6.366   0.425
10804TIP3    H132357   2.855   6.433   0.414
10804TIP3    H232358   2.753   6.379   0.513
10805TIP3   OH232359   1.322   4.186   6.506
10805TIP3    H132360   1.366   4.111   6.547
10805TIP3    H232361   1.243   4.149   6.467
10806TIP3   OH232362   4.936   0.739   5.699
10806TIP3    H132363   4.921   0.742   5.605
10806TIP3    H232364   5.010   0.798   5.714
10807TIP3   OH232365   1.764   7.727   4.716
10807TIP3    H132366   1.704   7.698   4.648
10807TIP3    H232367   1.707   7.768   4.782
10808TIP3   OH232368   6.319   0.385   2.585
10808TIP3    H132369   6.256   0.325   2.626
10808TIP3    H232370   6.404   0.351   2.612
10809TIP3   OH232371   7.923   4.779   3.429
10809TIP3    H132372   7.838   4.802   3.466
10809TIP3    H232373   7.970   4.736   3.501
10810TIP3   OH232374   4.600   5.457   2.009
10810TIP3    H132375   4.515   5.444   1.968
10810TIP3    H232376   4.641   5.370   2.009
10811TIP3   OH232377   2.660   5.807   2.313
10811TIP3    H132378   2.696   5.894   2.330
10811TIP3    H232379   2.573   5.824   2.277
10812TIP3   OH232380   6.781   2.695   1.787
10812TIP3    H132381   6.847   2.761   1.807
10812TIP3    H232382   6.753   2.663   1.873
10813TIP3   OH232383   0.719   5.628   3.852
10813TIP3    H132384   0.813   5.608   3.853
10813TIP3    H232385   0.690   5.604   3.765
10814TIP3   OH232386   2.753   2.518   3.455
10814TIP3    H132387   2.671   2.525   3.504
10814TIP3    H232388   2.821   2.513   3.522
10815TIP3   OH232389   6.806   7.089   4.311
10815TIP3    H132390   6.852   7.100   4.395
10815TIP3    H232391   6.713   7.093   4.333
10816TIP3   OH232392   5.925   3.039   1.230
10816TIP3    H132393   5.892   3.120   1.192
10816TIP3    H232394   5.880   2.969   1.182
10817TIP3   OH232395   3.712   1.611   3.669
10817TIP3    H132396   3.656   1.625   3.745
10817TIP3    H232397   3.747   1.523   3.681
10818TIP3   OH232398   6.455   5.200   6.722
10818TIP3    H132399   6.479   5.119   6.677
10818TIP3    H232400   6.434   5.261   6.651
10819TIP3   OH232401   6.136   1.157   1.990
10819TIP3    H132402   6.200   1.101   2.034
10819TIP3    H232403   6.187   1.228   1.951
10820TIP3   OH232404   5.409   6.446   0.982
10820TIP3    H132405   5.454   6.503   1.045
10820TIP3    H232406   5.321   6.484   0.974
10821TIP3   OH232407   3.982   6.284   2.419
10821TIP3    H132408   3.937   6.353   2.469
10821TIP3    H232409   4.011   6.328   2.340
10822TIP3   OH232410   6.694   7.352   6.625
10822TIP3    H132411   6.781   7.391   6.630
10822TIP3    H232412   6.704   7.278   6.566
10823TIP3   OH232413   6.787   2.224   0.959
10823TIP3    H132414   6.861   2.180   1.001
10823TIP3    H232415   6.760   2.291   1.022
10824TIP3   OH232416   5.641   2.389   2.763
10824TIP3    H132417   5.653   2.364   2.854
10824TIP3    H232418   5.706   2.336   2.716
10825TIP3   OH232419   7.009   5.962   1.608
10825TIP3    H132420   6.925   5.936   1.570
10825TIP3    H232421   7.046   5.881   1.644
10826TIP3   OH232422   1.110   3.570   5.070
10826TIP3    H132423   1.088   3.605   4.983
10826TIP3    H232424   1.157   3.489   5.052
10827TIP3   OH232425   7.352   7.378   2.776
10827TIP3    H132426   7.323   7.287   2.786
10827TIP3    H232427   7.427   7.386   2.835
10828TIP3   OH232428   7.557   0.301   5.644
10828TIP3    H132429   7.600   0.374   5.688
10828TIP3    H232430   7.510   0.342   5.571
10829TIP3   OH232431   6.855   5.688   1.745
10829TIP3    H132432   6.951   5.684   1.747
10829TIP3    H232433   6.827   5.596   1.743
10830TIP3   OH232434   2.688   7.479   1.695
10830TIP3    H132435   2.708   7.534   1.771
10830TIP3    H232436   2.596   7.457   1.705
10831TIP3   OH232437   2.680   0.796   5.933
10831TIP3    H132438   2.664   0.703   5.918
10831TIP3    H232439   2.769   0.799   5.968
10832TIP3   OH232440   3.089   5.274   0.168
10832TIP3    H132441   3.168   5.282   0.114
10832TIP3    H232442   3.079   5.179   0.182
10833TIP3   OH232443   8.219   0.328   3.258
10833TIP3    H132444   8.312   0.331   3.281
10833TIP3    H232445   8.204   0.408   3.207
10834TIP3   OH232446   7.898   1.278   5.467
10834TIP3    H132447   7.949   1.336   5.411
10834TIP3    H232448   7.963   1.236   5.524
10835TIP3   OH232449   3.675   6.893   5.417
10835TIP3    H132450   3.637   6.921   5.334
10835TIP3    H232451   3.750   6.839   5.391
10836TIP3   OH232452   3.545   6.605   1.852
10836TIP3    H132453   3.569   6.619   1.760
10836TIP3    H232454   3.626   6.621   1.900
10837TIP3   OH232455   4.311   5.868   1.372
10837TIP3    H132456   4.394   5.877   1.327
10837TIP3    H232457   4.334   5.842   1.461
10838TIP3   OH232458   6.617   0.743   2.081
10838TIP3    H132459   6.710   0.724   2.092
10838TIP3    H232460   6.601   0.730   1.987
10839TIP3   OH232461   5.984   1.648   1.589
10839TIP3    H132462   6.030   1.715   1.640
10839TIP3    H232463   6.053   1.608   1.535
10840TIP3   OH232464   2.817   2.615   1.153
10840TIP3    H132465   2.740   2.568   1.181
10840TIP3    H232466   2.889   2.577   1.203
10841TIP3   OH232467   3.696   2.381   4.728
10841TIP3    H132468   3.770   2.405   4.672
10841TIP3    H232469   3.634   2.454   4.717
10842TIP3   OH232470   4.745   6.114   3.505
10842TIP3    H132471   4.662   6.104   3.459
10842TIP3    H232472   4.781   6.196   3.471
10843TIP3   OH232473   4.801   6.638   3.775
10843TIP3    H132474   4.871   6.681   3.824
10843TIP3    H232475   4.744   6.600   3.842
10844TIP3   OH232476   7.432   1.107   6.717
10844TIP3    H132477   7.398   1.019   6.733
10844TIP3    H232478   7.492   1.096   6.643
10845TIP3   OH232479   1.528   3.369   0.723
10845TIP3    H132480   1.547   3.461   0.703
10845TIP3    H232481   1.612   3.332   0.750
10846TIP3   OH232482   0.786   7.200   0.892
10846TIP3    H132483   0.822   7.267   0.950
10846TIP3    H232484   0.716   7.246   0.844
10847TIP3   OH232485   2.751   3.038   5.159
10847TIP3    H132486   2.693   2.962   5.151
10847TIP3    H232487   2.709   3.106   5.108
10848TIP3   OH232488   0.597   0.677   2.140
10848TIP3    H132489   0.648   0.703   2.064
10848TIP3    H232490   0.621   0.586   2.156
10849TIP3   OH232491   7.319   6.284   3.365
10849TIP3    H132492   7.283   6.369   3.389
10849TIP3    H232493   7.413   6.300   3.354
10850TIP3   OH232494   3.499   2.578   6.757
10850TIP3    H132495   3.430   2.530   6.711
10850TIP3    H232496   3.576   2.571   6.701
10851TIP3   OH232497   0.365   1.633   3.419
10851TIP3    H132498   0.287   1.596   3.378
10851TIP3    H232499   0.406   1.685   3.351
10852TIP3   OH232500   3.663   3.493   0.804
10852TIP3    H132501   3.653   3.553   0.730
10852TIP3    H232502   3.681   3.408   0.763
10853TIP3   OH232503   2.479   6.175   5.442
10853TIP3    H132504   2.424   6.100   5.418
10853TIP3    H232505   2.418   6.239   5.478
10854TIP3   OH232506   2.514   5.464   5.695
10854TIP3    H132507   2.580   5.400   5.719
10854TIP3    H232508   2.442   5.448   5.756
10855TIP3   OH232509   2.580   7.238   0.512
10855TIP3    H132510   2.577   7.332   0.529
10855TIP3    H232511   2.673   7.220   0.495
10856TIP3   OH232512   5.954   2.283   2.734
10856TIP3    H132513   5.968   2.191   2.712
10856TIP3    H232514   5.944   2.327   2.650
10857TIP3   OH232515   0.109   2.477   3.723
10857TIP3    H132516   0.096   2.476   3.818
10857TIP3    H232517   0.128   2.386   3.701
10858TIP3   OH232518   3.105   6.282   5.240
10858TIP3    H132519   3.080   6.368   5.274
10858TIP3    H232520   3.145   6.238   5.314
10859TIP3   OH232521   1.949   2.242   2.946
10859TIP3    H132522   1.853   2.245   2.953
10859TIP3    H232523   1.965   2.204   2.860
10860TIP3   OH232524   2.910   3.385   4.834
10860TIP3    H132525   2.860   3.461   4.862
10860TIP3    H232526   2.946   3.410   4.749
10861TIP3   OH232527   2.433   2.855   6.716
10861TIP3    H132528   2.478   2.937   6.738
10861TIP3    H232529   2.341   2.873   6.734
10862TIP3   OH232530   7.163   2.106   1.450
10862TIP3    H132531   7.186   2.179   1.508
10862TIP3    H232532   7.127   2.039   1.509
10863TIP3   OH232533   6.043   1.933   1.426
10863TIP3    H132534   5.955   1.913   1.459
10863TIP3    H232535   6.097   1.937   1.505
10864TIP3   OH232536   4.912   7.193   6.209
10864TIP3    H132537   4.827   7.212   6.170
10864TIP3    H232538   4.892   7.171   6.300
10865TIP3   OH232539   6.780   6.890   5.849
10865TIP3    H132540   6.738   6.856   5.771
10865TIP3    H232541   6.843   6.822   5.874
10866TIP3   OH232542   6.012   3.341   6.195
10866TIP3    H132543   6.062   3.371   6.119
10866TIP3    H232544   5.991   3.421   6.243
10867TIP3   OH232545   3.847   2.319   4.979
10867TIP3    H132546   3.880   2.232   5.001
10867TIP3    H232547   3.812   2.310   4.890
10868TIP3   OH232548   8.059   7.279   0.445
10868TIP3    H132549   8.108   7.203   0.476
10868TIP3    H232550   8.052   7.266   0.350
10869TIP3   OH232551   2.451   0.235   4.765
10869TIP3    H132552   2.474   0.143   4.770
10869TIP3    H232553   2.526   0.277   4.723
10870TIP3   OH232554   7.631   1.867   5.440
10870TIP3    H132555   7.698   1.933   5.425
10870TIP3    H232556   7.554   1.917   5.466
10871TIP3   OH232557   2.619   3.165   1.516
10871TIP3    H132558   2.530   3.155   1.548
10871TIP3    H232559   2.611   3.167   1.421
10872TIP3   OH232560   1.047  -0.021   3.020
10872TIP3    H132561   1.135   0.013   3.008
10872TIP3    H232562   0.993   0.056   3.040
10873TIP3   OH232563   5.059   5.830   3.979
10873TIP3    H132564   5.129   5.779   4.019
10873TIP3    H232565   4.982   5.811   4.032
10874TIP3   OH232566   7.445   0.437   6.314
10874TIP3    H132567   7.367   0.382   6.303
10874TIP3    H232568   7.518   0.375   6.320
10875TIP3   OH232569   2.748   3.925   2.749
10875TIP3    H132570   2.664   3.966   2.769
10875TIP3    H232571   2.725   3.840   2.711
10876TIP3   OH232572   4.180   3.792   5.419
10876TIP3    H132573   4.272   3.799   5.445
10876TIP3    H232574   4.178   3.828   5.330
10877TIP3   OH232575   3.326   3.583   0.645
10877TIP3    H132576   3.406   3.629   0.623
10877TIP3    H232577   3.347   3.490   0.635
10878TIP3   OH232578   4.832   2.915   3.303
10878TIP3    H132579   4.856   2.925   3.396
10878TIP3    H232580   4.915   2.897   3.259
10879TIP3   OH232581   3.213   2.488   6.031
10879TIP3    H132582   3.165   2.570   6.041
10879TIP3    H232583   3.233   2.483   5.938
10880TIP3   OH232584   6.990   5.990   4.821
10880TIP3    H132585   7.038   5.907   4.812
10880TIP3    H232586   6.898   5.965   4.823
10881TIP3   OH232587   1.503   6.670   4.642
10881TIP3    H132588   1.559   6.745   4.665
10881TIP3    H232589   1.415   6.698   4.666
10882TIP3   OH232590   2.609   6.618   2.518
10882TIP3    H132591   2.530   6.658   2.553
10882TIP3    H232592   2.584   6.587   2.431
10883TIP3   OH232593   0.802   5.564   5.799
10883TIP3    H132594   0.771   5.474   5.798
10883TIP3    H232595   0.733   5.612   5.845
10884TIP3   OH232596   5.119   2.422   5.985
10884TIP3    H132597   5.175   2.450   6.057
10884TIP3    H232598   5.102   2.329   6.002
10885TIP3   OH232599   5.131   6.490   3.595
10885TIP3    H132600   5.078   6.412   3.609
10885TIP3    H232601   5.186   6.495   3.673
10886TIP3   OH232602   3.799   5.984   6.530
10886TIP3    H132603   3.712   5.993   6.571
10886TIP3    H232604   3.843   6.067   6.549
10887TIP3   OH232605   5.101   0.535   4.879
10887TIP3    H132606   5.023   0.589   4.894
10887TIP3    H232607   5.120   0.546   4.786
10888TIP3   OH232608   3.627   1.018   2.796
10888TIP3    H132609   3.658   1.079   2.729
10888TIP3    H232610   3.562   0.963   2.751
10889TIP3   OH232611   7.060   1.649   2.111
10889TIP3    H132612   6.996   1.679   2.176
10889TIP3    H232613   7.134   1.709   2.121
10890TIP3   OH232614   1.336   3.353   2.642
10890TIP3    H132615   1.312   3.261   2.650
10890TIP3    H232616   1.422   3.358   2.684
10891TIP3   OH232617   1.679   7.379   1.625
10891TIP3    H132618   1.705   7.287   1.631
10891TIP3    H232619   1.725   7.421   1.699
10892TIP3   OH232620   1.367   3.566   4.071
10892TIP3    H132621   1.310   3.576   4.147
10892TIP3    H232622   1.439   3.628   4.087
10893TIP3   OH232623   1.191   5.629   4.780
10893TIP3    H132624   1.174   5.544   4.739
10893TIP3    H232625   1.274   5.618   4.825
10894TIP3   OH232626   7.871   6.926   1.774
10894TIP3    H132627   7.780   6.945   1.753
10894TIP3    H232628   7.919   6.941   1.693
10895TIP3   OH232629   2.032   2.408   4.484
10895TIP3    H132630   2.126   2.426   4.482
10895TIP3    H232631   1.998   2.464   4.554
10896TIP3   OH232632   5.974   1.897   4.833
10896TIP3    H132633   5.908   1.964   4.848
10896TIP3    H232634   6.057   1.945   4.836
10897TIP3   OH232635   2.592   7.462   1.364
10897TIP3    H132636   2.659   7.466   1.296
10897TIP3    H232637   2.601   7.545   1.411
10898TIP3   OH232638   0.264   4.448   3.332
10898TIP3    H132639   0.287   4.475   3.421
10898TIP3    H232640   0.194   4.384   3.344
10899TIP3   OH232641   2.901   7.626   6.555
10899TIP3    H132642   2.899   7.601   6.647
10899TIP3    H232643   2.987   7.667   6.543
10900TIP3   OH232644   7.060   4.416   1.570
10900TIP3    H132645   7.154   4.402   1.560
10900TIP3    H232646   7.025   4.329   1.591
10901TIP3   OH232647   7.500   7.607   2.885
10901TIP3    H132648   7.574   7.647   2.839
10901TIP3    H232649   7.539   7.533   2.932
10902TIP3   OH232650   4.576   6.576   0.463
10902TIP3    H132651   4.656   6.524   0.452
10902TIP3    H232652   4.602   6.648   0.521
10903TIP3   OH232653   3.468   2.224   4.767
10903TIP3    H132654   3.410   2.209   4.693
10903TIP3    H232655   3.542   2.271   4.731
10904TIP3   OH232656   5.219   2.746   0.834
10904TIP3    H132657   5.247   2.741   0.926
10904TIP3    H232658   5.170   2.665   0.820
10905TIP3   OH232659   7.782   2.946   4.166
10905TIP3    H132660   7.726   2.879   4.206
10905TIP3    H232661   7.721   3.011   4.133
10906TIP3   OH232662   7.075   2.178   4.437
10906TIP3    H132663   7.126   2.245   4.482
10906TIP3    H232664   7.140   2.114   4.408
10907TIP3   OH232665   4.185   4.952   1.793
10907TIP3    H132666   4.201   4.916   1.880
10907TIP3    H232667   4.272   4.963   1.754
10908TIP3   OH232668   7.005   0.785   1.083
10908TIP3    H132669   7.002   0.852   1.151
10908TIP3    H232670   7.097   0.759   1.078
10909TIP3   OH232671   5.589   6.821   1.797
10909TIP3    H132672   5.606   6.730   1.819
10909TIP3    H232673   5.624   6.831   1.708
10910TIP3   OH232674   6.815   3.782   6.578
10910TIP3    H132675   6.854   3.695   6.567
10910TIP3    H232676   6.730   3.776   6.534
10911TIP3   OH232677   5.618   0.071   0.887
10911TIP3    H132678   5.563   0.141   0.850
10911TIP3    H232679   5.693   0.066   0.828
10912TIP3   OH232680   7.094   6.056   5.824
10912TIP3    H132681   7.132   6.092   5.744
10912TIP3    H232682   6.999   6.062   5.810
10913TIP3   OH232683   1.585   7.372   0.504
10913TIP3    H132684   1.602   7.310   0.434
10913TIP3    H232685   1.564   7.454   0.459
10914TIP3   OH232686   2.499   3.947   2.894
10914TIP3    H132687   2.427   3.979   2.948
10914TIP3    H232688   2.567   3.922   2.957
10915TIP3   OH232689   0.396   5.878   3.224
10915TIP3    H132690   0.478   5.919   3.195
10915TIP3    H232691   0.389   5.798   3.172
10916TIP3   OH232692   3.349   3.372   4.052
10916TIP3    H132693   3.374   3.317   4.126
10916TIP3    H232694   3.432   3.396   4.010
10917TIP3   OH232695   2.595   4.953   5.910
10917TIP3    H132696   2.655   5.022   5.939
10917TIP3    H232697   2.641   4.908   5.840
10918TIP3   OH232698   6.716   1.534   2.075
10918TIP3    H132699   6.739   1.448   2.041
10918TIP3    H232700   6.761   1.539   2.159
10919TIP3   OH232701   7.766   2.804   0.770
10919TIP3    H132702   7.709   2.881   0.773
10919TIP3    H232703   7.714   2.738   0.724
10920TIP3   OH232704   2.254   3.951   2.272
10920TIP3    H132705   2.185   3.927   2.333
10920TIP3    H232706   2.334   3.950   2.325
10921TIP3   OH232707   7.988   2.247   1.342
10921TIP3    H132708   7.992   2.289   1.256
10921TIP3    H232709   7.950   2.160   1.325
10922TIP3   OH232710   5.464   0.304   0.451
10922TIP3    H132711   5.405   0.239   0.413
10922TIP3    H232712   5.431   0.388   0.419
10923TIP3   OH232713   4.936   4.021   0.303
10923TIP3    H132714   5.018   4.037   0.257
10923TIP3    H232715   4.933   4.089   0.371
10924TIP3   OH232716   3.905   4.570   0.148
10924TIP3    H132717   3.950   4.509   0.206
10924TIP3    H232718   3.976   4.612   0.099
10925TIP3   OH232719   7.963   5.375   3.365
10925TIP3    H132720   8.043   5.358   3.414
10925TIP3    H232721   7.971   5.467   3.338
10926TIP3   OH232722   5.473   7.344   1.285
10926TIP3    H132723   5.506   7.270   1.336
10926TIP3    H232724   5.436   7.404   1.350
10927TIP3   OH232725   4.804   3.367   0.884
10927TIP3    H132726   4.896   3.353   0.904
10927TIP3    H232727   4.804   3.404   0.796
10928TIP3   OH232728   8.189   5.719   6.422
10928TIP3    H132729   8.260   5.776   6.453
10928TIP3    H232730   8.145   5.689   6.501
10929TIP3   OH232731   3.764   2.667   0.353
10929TIP3    H132732   3.714   2.743   0.322
10929TIP3    H232733   3.700   2.613   0.400
10930TIP3   OH232734   5.169   1.520   5.243
10930TIP3    H132735   5.110   1.595   5.242
10930TIP3    H232736   5.179   1.496   5.151
10931TIP3   OH232737   3.405   3.762   4.577
10931TIP3    H132738   3.495   3.739   4.555
10931TIP3    H232739   3.413   3.821   4.652
10932TIP3   OH232740   2.064   0.109   4.646
10932TIP3    H132741   2.125   0.074   4.581
10932TIP3    H232742   2.109   0.185   4.683
10933TIP3   OH232743   6.957   3.519   3.489
10933TIP3    H132744   6.932   3.538   3.579
10933TIP3    H232745   6.880   3.476   3.451
10934TIP3   OH232746   5.841   7.497   6.732
10934TIP3    H132747   5.767   7.557   6.720
10934TIP3    H232748   5.836   7.438   6.657
10935TIP3   OH232749   4.289   1.224   2.426
10935TIP3    H132750   4.250   1.304   2.462
10935TIP3    H232751   4.226   1.194   2.361
10936TIP3   OH232752   3.572   4.310   6.568
10936TIP3    H132753   3.513   4.384   6.583
10936TIP3    H232754   3.622   4.301   6.649
10937TIP3   OH232755   1.851   1.712   0.954
10937TIP3    H132756   1.781   1.663   0.997
10937TIP3    H232757   1.880   1.775   1.019
10938TIP3   OH232758   6.275   4.456   3.904
10938TIP3    H132759   6.227   4.387   3.858
10938TIP3    H232760   6.293   4.522   3.836
10939TIP3   OH232761   2.503   0.347   6.378
10939TIP3    H132762   2.494   0.287   6.304
10939TIP3    H232763   2.597   0.346   6.398
10940TIP3   OH232764   6.626   4.084   1.150
10940TIP3    H132765   6.531   4.084   1.140
10940TIP3    H232766   6.654   4.001   1.111
10941TIP3   OH232767   3.021   6.819   0.874
10941TIP3    H132768   2.941   6.865   0.901
10941TIP3    H232769   3.035   6.754   0.943
10942TIP3   OH232770   2.522   5.090   2.318
10942TIP3    H132771   2.449   5.044   2.277
10942TIP3    H232772   2.511   5.074   2.412
10943TIP3   OH232773   2.913   7.497   4.619
10943TIP3    H132774   2.958   7.575   4.587
10943TIP3    H232775   2.983   7.434   4.635
10944TIP3   OH232776   3.204   2.179   6.112
10944TIP3    H132777   3.238   2.268   6.116
10944TIP3    H232778   3.282   2.123   6.112
10945TIP3   OH232779   4.435   6.568   6.723
10945TIP3    H132780   4.390   6.493   6.685
10945TIP3    H232781   4.440   6.632   6.652
10946TIP3   OH232782   6.793   2.677   4.110
10946TIP3    H132783   6.865   2.697   4.170
10946TIP3    H232784   6.817   2.722   4.029
10947TIP3   OH232785   0.376   5.335   0.169
10947TIP3    H132786   0.331   5.396   0.111
10947TIP3    H232787   0.308   5.307   0.231
10948TIP3   OH232788   2.388   3.874   2.567
10948TIP3    H132789   2.362   3.803   2.625
10948TIP3    H232790   2.479   3.854   2.545
10949TIP3   OH232791   3.854   5.157   0.947
10949TIP3    H132792   3.778   5.137   0.892
10949TIP3    H232793   3.873   5.250   0.929
10950TIP3   OH232794   4.034   0.831   5.143
10950TIP3    H132795   4.047   0.926   5.154
10950TIP3    H232796   4.043   0.795   5.231
10951TIP3   OH232797   5.569   1.091   5.695
10951TIP3    H132798   5.609   1.169   5.655
10951TIP3    H232799   5.482   1.085   5.655
10952TIP3   OH232800   2.151   3.105   4.456
10952TIP3    H132801   2.239   3.100   4.493
10952TIP3    H232802   2.094   3.068   4.524
10953TIP3   OH232803   4.192   2.307   1.290
10953TIP3    H132804   4.269   2.292   1.235
10953TIP3    H232805   4.220   2.281   1.378
10954TIP3   OH232806   5.583   4.677   5.241
10954TIP3    H132807   5.556   4.624   5.316
10954TIP3    H232808   5.675   4.655   5.228
10955TIP3   OH232809   5.594   1.336   3.090
10955TIP3    H132810   5.676   1.361   3.133
10955TIP3    H232811   5.621   1.291   3.010
10956TIP3   OH232812   0.893   3.347   2.532
10956TIP3    H132813   0.839   3.308   2.600
10956TIP3    H232814   0.833   3.402   2.482
10957TIP3   OH232815   7.808   0.919   5.641
10957TIP3    H132816   7.716   0.919   5.667
10957TIP3    H232817   7.807   0.940   5.548
10958TIP3   OH232818   7.295   2.799   2.238
10958TIP3    H132819   7.267   2.793   2.329
10958TIP3    H232820   7.362   2.867   2.238
10959TIP3   OH232821   2.760   6.927   6.009
10959TIP3    H132822   2.710   6.930   6.091
10959TIP3    H232823   2.851   6.930   6.037
10960TIP3   OH232824   3.825   0.901   0.442
10960TIP3    H132825   3.869   0.898   0.528
10960TIP3    H232826   3.826   0.993   0.417
10961TIP3   OH232827   1.650   7.714   1.728
10961TIP3    H132828   1.676   7.795   1.771
10961TIP3    H232829   1.730   7.683   1.685
10962TIP3   OH232830   1.138   6.951   6.371
10962TIP3    H132831   1.051   6.932   6.404
10962TIP3    H232832   1.128   7.030   6.319
10963TIP3   OH232833   1.569   7.689   5.784
10963TIP3    H132834   1.617   7.640   5.717
10963TIP3    H232835   1.512   7.624   5.825
10964TIP3   OH232836   1.120   1.813   6.521
10964TIP3    H132837   1.133   1.726   6.559
10964TIP3    H232838   1.067   1.859   6.586
10965TIP3   OH232839   6.888   0.674   2.079
10965TIP3    H132840   6.942   0.622   2.138
10965TIP3    H232841   6.947   0.743   2.048
10966TIP3   OH232842   2.019   1.625   0.222
10966TIP3    H132843   1.988   1.582   0.301
10966TIP3    H232844   2.046   1.554   0.164
10967TIP3   OH232845   4.157   6.836   3.625
10967TIP3    H132846   4.177   6.779   3.699
10967TIP3    H232847   4.090   6.789   3.576
10968TIP3   OH232848   4.403   5.326   3.760
10968TIP3    H132849   4.324   5.286   3.795
10968TIP3    H232850   4.444   5.368   3.835
10969TIP3   OH232851   4.886   2.738   1.948
10969TIP3    H132852   4.891   2.779   2.034
10969TIP3    H232853   4.797   2.754   1.918
10970TIP3   OH232854   5.915   6.744   3.497
10970TIP3    H132855   5.891   6.758   3.406
10970TIP3    H232856   5.893   6.825   3.541
10971TIP3   OH232857   7.898   7.270   2.671
10971TIP3    H132858   7.952   7.221   2.609
10971TIP3    H232859   7.813   7.278   2.627
10972TIP3   OH232860   5.481   5.918   4.024
10972TIP3    H132861   5.549   5.900   3.959
10972TIP3    H232862   5.526   5.964   4.094
10973TIP3   OH232863   5.751   5.572   3.400
10973TIP3    H132864   5.710   5.658   3.399
10973TIP3    H232865   5.681   5.511   3.378
10974TIP3   OH232866   4.190   5.605   1.745
10974TIP3    H132867   4.105   5.626   1.706
10974TIP3    H232868   4.171   5.592   1.838
10975TIP3   OH232869   8.016   4.099   2.803
10975TIP3    H132870   8.106   4.129   2.790
10975TIP3    H232871   7.963   4.161   2.752
10976TIP3   OH232872   1.828   3.678   4.104
10976TIP3    H132873   1.802   3.702   4.015
10976TIP3    H232874   1.787   3.592   4.119
10977TIP3   OH232875   0.133   3.511   4.156
10977TIP3    H132876   0.119   3.595   4.113
10977TIP3    H232877   0.051   3.464   4.146
10978TIP3   OH232878   6.018   1.169   0.422
10978TIP3    H132879   6.108   1.170   0.390
10978TIP3    H232880   5.980   1.251   0.390
10979TIP3   OH232881   3.898   3.013   2.753
10979TIP3    H132882   3.907   3.101   2.716
10979TIP3    H232883   3.878   3.027   2.845
10980TIP3   OH232884   2.403   2.662   4.772
10980TIP3    H132885   2.404   2.616   4.856
10980TIP3    H232886   2.456   2.740   4.786
10981TIP3   OH232887   4.093   4.561   2.910
10981TIP3    H132888   4.053   4.639   2.872
10981TIP3    H232889   4.107   4.585   3.002
10982TIP3   OH232890   0.558   4.542   5.619
10982TIP3    H132891   0.511   4.608   5.568
10982TIP3    H232892   0.564   4.466   5.561
10983TIP3   OH232893   2.144   5.423   6.327
10983TIP3    H132894   2.145   5.516   6.305
10983TIP3    H232895   2.203   5.383   6.263
10984TIP3   OH232896   4.237   2.698   6.647
10984TIP3    H132897   4.240   2.699   6.551
10984TIP3    H232898   4.157   2.746   6.668
10985TIP3   OH232899   1.125   3.371   5.727
10985TIP3    H132900   1.036   3.405   5.743
10985TIP3    H232901   1.179   3.450   5.717
10986TIP3   OH232902   2.519   6.097   5.731
10986TIP3    H132903   2.569   6.169   5.768
10986TIP3    H232904   2.576   6.060   5.663
10987TIP3   OH232905   3.261   3.488   5.614
10987TIP3    H132906   3.185   3.429   5.617
10987TIP3    H232907   3.308   3.471   5.695
10988TIP3   OH232908   6.579   3.820   6.010
10988TIP3    H132909   6.489   3.797   6.031
10988TIP3    H232910   6.573   3.904   5.963
10989TIP3   OH232911   0.581   5.185   0.223
10989TIP3    H132912   0.519   5.256   0.206
10989TIP3    H232913   0.530   5.119   0.269
10990TIP3   OH232914   6.127   3.776   4.470
10990TIP3    H132915   6.118   3.797   4.377
10990TIP3    H232916   6.218   3.747   4.480
10991TIP3   OH232917   3.756   2.149   0.398
10991TIP3    H132918   3.748   2.244   0.400
10991TIP3    H232919   3.667   2.117   0.388
10992TIP3   OH232920   0.560   1.460   1.450
10992TIP3    H132921   0.621   1.478   1.379
10992TIP3    H232922   0.482   1.426   1.406
10993TIP3   OH232923   4.663   7.098   6.090
10993TIP3    H132924   4.600   7.053   6.035
10993TIP3    H232925   4.611   7.142   6.157
10994TIP3   OH232926   3.781   1.422   2.756
10994TIP3    H132927   3.694   1.461   2.767
10994TIP3    H232928   3.805   1.393   2.844
10995TIP3   OH232929   5.566   1.727   3.692
10995TIP3    H132930   5.574   1.822   3.694
10995TIP3    H232931   5.510   1.706   3.767
10996TIP3   OH232932   4.532   1.307   0.123
10996TIP3    H132933   4.479   1.308   0.203
10996TIP3    H232934   4.500   1.382   0.072
10997TIP3   OH232935   3.503   0.771   0.550
10997TIP3    H132936   3.542   0.846   0.594
10997TIP3    H232937   3.441   0.735   0.613
10998TIP3   OH232938   5.686   6.547   2.955
10998TIP3    H132939   5.625   6.550   3.028
10998TIP3    H232940   5.702   6.453   2.941
10999TIP3   OH232941   2.769   7.789   5.181
10999TIP3    H132942   2.793   7.810   5.271
10999TIP3    H232943   2.717   7.709   5.188
11000TIP3   OH232944   0.824   3.842   6.225
11000TIP3    H132945   0.836   3.927   6.267
11000TIP3    H232946   0.738   3.849   6.182
11001TIP3   OH232947   2.991   0.462   3.742
11001TIP3    H132948   3.054   0.510   3.689
11001TIP3    H232949   3.034   0.378   3.761
11002TIP3   OH232950   2.546   3.130   2.262
11002TIP3    H132951   2.561   3.040   2.291
11002TIP3    H232952   2.633   3.170   2.262
11003TIP3   OH232953   4.464   0.782   4.273
11003TIP3    H132954   4.406   0.858   4.275
11003TIP3    H232955   4.405   0.708   4.257
11004TIP3   OH232956   6.674   5.385   2.005
11004TIP3    H132957   6.696   5.329   1.931
11004TIP3    H232958   6.686   5.329   2.082
11005TIP3   OH232959   6.799   5.008   0.407
11005TIP3    H132960   6.706   4.993   0.389
11005TIP3    H232961   6.836   4.921   0.417
11006TIP3   OH232962   5.927   5.889   5.613
11006TIP3    H132963   5.852   5.874   5.556
11006TIP3    H232964   5.903   5.965   5.665
11007TIP3   OH232965   5.760   3.912   0.440
11007TIP3    H132966   5.725   3.957   0.516
11007TIP3    H232967   5.855   3.912   0.454
11008TIP3   OH232968   5.433   3.943   6.019
11008TIP3    H132969   5.361   3.882   6.028
11008TIP3    H232970   5.461   3.936   5.928
11009TIP3   OH232971   5.121   2.344   5.108
11009TIP3    H132972   5.178   2.278   5.067
11009TIP3    H232973   5.141   2.337   5.201
11010TIP3   OH232974   0.608   5.199   3.299
11010TIP3    H132975   0.634   5.107   3.300
11010TIP3    H232976   0.593   5.221   3.391
11011TIP3   OH232977   0.902   4.569   0.981
11011TIP3    H132978   0.952   4.573   0.900
11011TIP3    H232979   0.841   4.642   0.975
11012TIP3   OH232980   4.966   3.797   0.877
11012TIP3    H132981   5.032   3.844   0.927
11012TIP3    H232982   4.955   3.848   0.797
11013TIP3   OH232983   2.201   6.462   1.147
11013TIP3    H132984   2.167   6.551   1.152
11013TIP3    H232985   2.295   6.472   1.131
11014TIP3   OH232986   0.419   7.675   0.253
11014TIP3    H132987   0.500   7.724   0.242
11014TIP3    H232988   0.354   7.740   0.280
11015TIP3   OH232989   7.916   6.776   6.387
11015TIP3    H132990   8.011   6.777   6.389
11015TIP3    H232991   7.892   6.686   6.412
11016TIP3   OH232992   1.186   4.098   6.108
11016TIP3    H132993   1.242   4.054   6.044
11016TIP3    H232994   1.209   4.190   6.101
11017TIP3   OH232995   0.459   5.179   1.834
11017TIP3    H132996   0.549   5.205   1.854
11017TIP3    H232997   0.411   5.261   1.827
11018TIP3   OH232998   1.903   6.786   2.513
11018TIP3    H132999   1.830   6.732   2.481
11018TIP3    H233000   1.979   6.728   2.508
11019TIP3   OH233001   0.332   2.501   0.899
11019TIP3    H133002   0.292   2.510   0.813
11019TIP3    H233003   0.407   2.443   0.884
11020TIP3   OH233004   7.713   7.601   3.431
11020TIP3    H133005   7.728   7.691   3.460
11020TIP3    H233006   7.680   7.610   3.342
11021TIP3   OH233007   3.757   3.266   3.162
11021TIP3    H133008   3.825   3.334   3.163
11021TIP3    H233009   3.676   3.314   3.179
11022TIP3   OH233010   1.476   4.917   0.214
11022TIP3    H133011   1.440   4.965   0.288
11022TIP3    H233012   1.409   4.923   0.146
11023TIP3   OH233013   5.159   7.168   1.381
11023TIP3    H133014   5.087   7.140   1.438
11023TIP3    H233015   5.238   7.151   1.432
11024TIP3   OH233016   1.358   6.413   4.584
11024TIP3    H133017   1.327   6.501   4.606
11024TIP3    H233018   1.327   6.358   4.655
11025TIP3   OH233019   1.201   2.769   3.987
11025TIP3    H133020   1.210   2.863   3.968
11025TIP3    H233021   1.132   2.739   3.928
11026TIP3   OH233022   6.796   3.885   5.075
11026TIP3    H133023   6.736   3.813   5.094
11026TIP3    H233024   6.743   3.964   5.088
11027TIP3   OH233025   7.107   4.758   1.056
11027TIP3    H133026   7.176   4.824   1.048
11027TIP3    H233027   7.106   4.714   0.971
11028TIP3   OH233028   1.539   6.943   3.382
11028TIP3    H133029   1.598   7.017   3.375
11028TIP3    H233030   1.506   6.930   3.293
11029TIP3   OH233031   3.649   5.817   3.577
11029TIP3    H133032   3.708   5.824   3.502
11029TIP3    H233033   3.682   5.881   3.640
11030TIP3   OH233034   1.430   1.548   2.381
11030TIP3    H133035   1.384   1.526   2.300
11030TIP3    H233036   1.433   1.467   2.430
11031TIP3   OH233037   5.967   1.014   6.259
11031TIP3    H133038   5.932   1.074   6.193
11031TIP3    H233039   5.925   1.042   6.340
11032TIP3   OH233040   5.790   3.753   0.734
11032TIP3    H133041   5.829   3.710   0.658
11032TIP3    H233042   5.866   3.782   0.785
11033TIP3   OH233043   3.437   4.722   1.902
11033TIP3    H133044   3.426   4.813   1.875
11033TIP3    H233045   3.402   4.719   1.991
11034TIP3   OH233046   6.668   5.335   5.077
11034TIP3    H133047   6.574   5.353   5.083
11034TIP3    H233048   6.676   5.276   5.002
11035TIP3   OH233049   0.151   0.603   3.591
11035TIP3    H133050   0.136   0.694   3.616
11035TIP3    H233051   0.133   0.553   3.670
11036TIP3   OH233052   0.368   4.496   0.244
11036TIP3    H133053   0.330   4.561   0.186
11036TIP3    H233054   0.348   4.412   0.204
11037TIP3   OH233055   2.410   5.894   2.194
11037TIP3    H133056   2.403   5.989   2.196
11037TIP3    H233057   2.348   5.863   2.260
11038TIP3   OH233058   1.565   7.321   5.174
11038TIP3    H133059   1.658   7.306   5.187
11038TIP3    H233060   1.560   7.397   5.117
11039TIP3   OH233061   5.645   1.520   5.250
11039TIP3    H133062   5.626   1.608   5.219
11039TIP3    H233063   5.575   1.466   5.214
11040TIP3   OH233064   7.295   6.884   5.049
11040TIP3    H133065   7.339   6.964   5.079
11040TIP3    H233066   7.232   6.915   4.984
11041TIP3   OH233067   1.331   7.066   5.487
11041TIP3    H133068   1.287   7.129   5.544
11041TIP3    H233069   1.419   7.059   5.522
11042TIP3   OH233070   4.268   4.325   1.206
11042TIP3    H133071   4.336   4.317   1.274
11042TIP3    H233072   4.317   4.323   1.124
11043TIP3   OH233073   2.159   1.605   2.954
11043TIP3    H133074   2.224   1.535   2.950
11043TIP3    H233075   2.197   1.669   3.015
11044TIP3   OH233076   6.456   5.800   1.368
11044TIP3    H133077   6.513   5.861   1.322
11044TIP3    H233078   6.516   5.742   1.416
11045TIP3   OH233079   4.426   5.095   2.052
11045TIP3    H133080   4.495   5.106   1.987
11045TIP3    H233081   4.375   5.177   2.046
11046TIP3   OH233082   2.462   1.926   0.256
11046TIP3    H133083   2.551   1.893   0.245
11046TIP3    H233084   2.466   2.017   0.226
11047TIP3   OH233085   7.679   7.661   4.146
11047TIP3    H133086   7.703   7.601   4.217
11047TIP3    H233087   7.756   7.718   4.136
11048TIP3   OH233088   2.598   1.764   2.302
11048TIP3    H133089   2.503   1.761   2.317
11048TIP3    H233090   2.631   1.686   2.347
11049TIP3   OH233091   8.153   7.118   4.237
11049TIP3    H133092   8.064   7.152   4.243
11049TIP3    H233093   8.162   7.061   4.314
11050TIP3   OH233094   2.767   2.286   2.896
11050TIP3    H133095   2.826   2.361   2.888
11050TIP3    H233096   2.825   2.210   2.897
11051TIP3   OH233097   3.858   1.173   0.355
11051TIP3    H133098   3.935   1.175   0.412
11051TIP3    H233099   3.883   1.229   0.281
11052TIP3   OH233100   3.136   1.237   3.432
11052TIP3    H133101   3.212   1.211   3.484
11052TIP3    H233102   3.138   1.333   3.431
11053TIP3   OH233103   6.672   2.163   5.552
11053TIP3    H133104   6.732   2.116   5.494
11053TIP3    H233105   6.636   2.233   5.498
11054TIP3   OH233106   1.038   6.394   0.174
11054TIP3    H133107   0.962   6.384   0.117
11054TIP3    H233108   1.007   6.444   0.249
11055TIP3   OH233109   0.163   7.037   1.667
11055TIP3    H133110   0.219   6.966   1.698
11055TIP3    H233111   0.082   7.028   1.716
11056TIP3   OH233112   0.094   2.062   2.145
11056TIP3    H133113   0.097   2.132   2.080
11056TIP3    H233114   0.114   1.982   2.096
11057TIP3   OH233115   0.183   0.456   2.732
11057TIP3    H133116   0.231   0.511   2.795
11057TIP3    H233117   0.251   0.424   2.673
11058TIP3   OH233118   2.469   3.631   5.844
11058TIP3    H133119   2.481   3.574   5.920
11058TIP3    H233120   2.378   3.618   5.818
11059TIP3   OH233121   2.075   5.222   4.709
11059TIP3    H133122   2.057   5.129   4.696
11059TIP3    H233123   2.141   5.244   4.643
11060TIP3   OH233124   3.511   0.421   4.825
11060TIP3    H133125   3.479   0.475   4.752
11060TIP3    H233126   3.469   0.458   4.902
11061TIP3   OH233127   0.112   3.971   0.462
11061TIP3    H133128   0.044   3.910   0.489
11061TIP3    H233129   0.064   4.044   0.423
11062TIP3   OH233130   5.425   0.833   4.324
11062TIP3    H133131   5.403   0.811   4.233
11062TIP3    H233132   5.346   0.872   4.359
11063TIP3   OH233133   6.130   6.163   6.710
11063TIP3    H133134   6.193   6.190   6.777
11063TIP3    H233135   6.098   6.246   6.673
11064TIP3   OH233136   2.971   7.165   1.330
11064TIP3    H133137   2.890   7.152   1.379
11064TIP3    H233138   3.003   7.250   1.359
11065TIP3   OH233139   5.774   5.800   0.614
11065TIP3    H133140   5.850   5.803   0.555
11065TIP3    H233141   5.701   5.831   0.560
11066TIP3   OH233142   0.491   6.135   0.694
11066TIP3    H133143   0.403   6.136   0.732
11066TIP3    H233144   0.520   6.226   0.701
11067TIP3   OH233145   6.956   4.488   0.871
11067TIP3    H133146   6.905   4.565   0.845
11067TIP3    H233147   6.893   4.432   0.918
11068TIP3   OH233148   7.198   0.215   0.256
11068TIP3    H133149   7.188   0.262   0.174
11068TIP3    H233150   7.276   0.160   0.243
11069TIP3   OH233151   2.475   6.988   5.880
11069TIP3    H133152   2.533   7.014   5.808
11069TIP3    H233153   2.518   7.021   5.958
11070TIP3   OH233154   3.739   2.055  -0.003
11070TIP3    H133155   3.699   1.984  -0.052
11070TIP3    H233156   3.812   2.014   0.043
11071TIP3   OH233157   0.580   2.650   2.904
11071TIP3    H133158   0.616   2.734   2.933
11071TIP3    H233159   0.511   2.631   2.967
11072TIP3   OH233160   4.583   0.724   3.321
11072TIP3    H133161   4.668   0.707   3.361
11072TIP3    H233162   4.584   0.675   3.239
11073TIP3   OH233163   1.767   3.212   2.745
11073TIP3    H133164   1.845   3.262   2.723
11073TIP3    H233165   1.774   3.132   2.691
11074TIP3   OH233166   5.668   4.636   0.633
11074TIP3    H133167   5.587   4.599   0.668
11074TIP3    H233168   5.735   4.571   0.654
11075TIP3   OH233169   8.082   7.815   3.122
11075TIP3    H133170   7.988   7.804   3.134
11075TIP3    H233171   8.102   7.768   3.041
11076TIP3   OH233172   6.684   3.212   0.278
11076TIP3    H133173   6.748   3.155   0.320
11076TIP3    H233174   6.634   3.155   0.220
11077TIP3   OH233175   4.832   6.050   6.449
11077TIP3    H133176   4.895   5.999   6.500
11077TIP3    H233177   4.856   6.141   6.464
11078TIP3   OH233178   5.840   6.567   5.203
11078TIP3    H133179   5.806   6.643   5.155
11078TIP3    H233180   5.800   6.492   5.159
11079TIP3   OH233181   0.577   5.322   4.186
11079TIP3    H133182   0.661   5.317   4.140
11079TIP3    H233183   0.558   5.232   4.211
11080TIP3   OH233184   2.047   4.536   4.616
11080TIP3    H133185   1.971   4.525   4.673
11080TIP3    H233186   2.119   4.557   4.676
11081TIP3   OH233187   6.778   3.136   4.331
11081TIP3    H133188   6.787   3.080   4.253
11081TIP3    H233189   6.860   3.125   4.378
11082TIP3   OH233190   0.601   4.997   3.595
11082TIP3    H133191   0.549   4.927   3.555
11082TIP3    H233192   0.604   4.975   3.688
11083TIP3   OH233193   5.498   3.244   0.320
11083TIP3    H133194   5.436   3.316   0.335
11083TIP3    H233195   5.449   3.166   0.344
11084TIP3   OH233196   4.400   6.670   4.885
11084TIP3    H133197   4.478   6.689   4.833
11084TIP3    H233198   4.345   6.748   4.874
11085TIP3   OH233199   8.067   7.543   6.706
11085TIP3    H133200   8.126   7.473   6.737
11085TIP3    H233201   8.008   7.559   6.780
11086TIP3   OH233202   4.368   0.110   6.095
11086TIP3    H133203   4.438   0.045   6.105
11086TIP3    H233204   4.349   0.109   6.001
11087TIP3   OH233205   3.048   6.348   4.180
11087TIP3    H133206   2.963   6.305   4.171
11087TIP3    H233207   3.086   6.310   4.259
11088TIP3   OH233208   2.816   0.334   1.624
11088TIP3    H133209   2.781   0.352   1.537
11088TIP3    H233210   2.905   0.302   1.609
11089TIP3   OH233211   5.008   5.933   0.481
11089TIP3    H133212   5.034   6.000   0.544
11089TIP3    H233213   4.924   5.900   0.514
11090TIP3   OH233214   7.778   5.063   2.811
11090TIP3    H133215   7.822   5.033   2.890
11090TIP3    H233216   7.849   5.093   2.754
11091TIP3   OH233217   7.411   7.185   1.829
11091TIP3    H133218   7.486   7.152   1.878
11091TIP3    H233219   7.418   7.280   1.834
11092TIP3   OH233220   2.226   1.245   6.411
11092TIP3    H133221   2.250   1.246   6.504
11092TIP3    H233222   2.295   1.194   6.369
11093TIP3   OH233223   3.438   7.325   2.220
11093TIP3    H133224   3.472   7.353   2.135
11093TIP3    H233225   3.415   7.233   2.209
11094TIP3   OH233226   3.250   1.206   0.271
11094TIP3    H133227   3.321   1.149   0.302
11094TIP3    H233228   3.203   1.231   0.350
11095TIP3   OH233229   7.861   0.430   4.195
11095TIP3    H133230   7.907   0.510   4.170
11095TIP3    H233231   7.930   0.364   4.202
11096TIP3   OH233232   4.496   2.710   5.518
11096TIP3    H133233   4.443   2.633   5.499
11096TIP3    H233234   4.464   2.777   5.458
11097TIP3   OH233235   5.946   4.057   4.402
11097TIP3    H133236   5.893   4.061   4.322
11097TIP3    H233237   6.015   3.994   4.382
11098TIP3   OH233238   5.879   2.078   6.605
11098TIP3    H133239   5.905   2.170   6.606
11098TIP3    H233240   5.871   2.056   6.512
11099TIP3   OH233241   1.178   1.545   4.035
11099TIP3    H133242   1.163   1.498   3.953
11099TIP3    H233243   1.101   1.524   4.089
11100TIP3   OH233244   4.418   7.586   2.450
11100TIP3    H133245   4.430   7.520   2.518
11100TIP3    H233246   4.396   7.666   2.497
11101TIP3   OH233247   0.509   1.716   6.146
11101TIP3    H133248   0.539   1.630   6.115
11101TIP3    H233249   0.542   1.722   6.236
11102TIP3   OH233250   7.363   0.140   4.008
11102TIP3    H133251   7.367   0.173   4.097
11102TIP3    H233252   7.269   0.129   3.990
11103TIP3   OH233253   5.818   0.306   1.208
11103TIP3    H133254   5.789   0.216   1.220
11103TIP3    H233255   5.795   0.351   1.289
11104TIP3   OH233256   1.924   6.256   1.968
11104TIP3    H133257   1.954   6.338   1.928
11104TIP3    H233258   1.871   6.215   1.900
11105TIP3   OH233259   4.385   6.985   1.304
11105TIP3    H133260   4.369   7.057   1.243
11105TIP3    H233261   4.324   7.000   1.376
11106TIP3   OH233262   3.311   3.829   1.614
11106TIP3    H133263   3.292   3.737   1.595
11106TIP3    H233264   3.246   3.878   1.564
11107TIP3   OH233265   3.848   3.742   2.540
11107TIP3    H133266   3.841   3.656   2.500
11107TIP3    H233267   3.760   3.780   2.532
11108TIP3   OH233268   1.135   3.972   5.244
11108TIP3    H133269   1.081   4.005   5.315
11108TIP3    H233270   1.116   4.030   5.170
11109TIP3   OH233271   3.864   6.407   6.128
11109TIP3    H133272   3.880   6.360   6.210
11109TIP3    H233273   3.883   6.498   6.148
11110TIP3   OH233274   1.548   3.610   6.323
11110TIP3    H133275   1.562   3.523   6.359
11110TIP3    H233276   1.453   3.618   6.315
11111TIP3   OH233277   0.934   5.596   5.566
11111TIP3    H133278   1.019   5.573   5.604
11111TIP3    H233279   0.871   5.582   5.636
11112TIP3   OH233280   4.385   3.301   2.824
11112TIP3    H133281   4.461   3.336   2.871
11112TIP3    H233282   4.423   3.244   2.757
11113TIP3   OH233283   2.168   2.448   0.950
11113TIP3    H133284   2.203   2.366   0.985
11113TIP3    H233285   2.223   2.517   0.990
11114TIP3   OH233286   3.360   3.408   0.446
11114TIP3    H133287   3.407   3.476   0.397
11114TIP3    H233288   3.286   3.385   0.390
11115TIP3   OH233289   4.702   7.102   4.331
11115TIP3    H133290   4.754   7.149   4.267
11115TIP3    H233291   4.657   7.170   4.382
11116TIP3   OH233292   7.353   5.229   1.137
11116TIP3    H133293   7.322   5.318   1.123
11116TIP3    H233294   7.449   5.237   1.139
11117TIP3   OH233295   0.690   1.755   4.159
11117TIP3    H133296   0.719   1.746   4.068
11117TIP3    H233297   0.710   1.672   4.200
11118TIP3   OH233298   3.505   1.020   2.260
11118TIP3    H133299   3.521   0.957   2.331
11118TIP3    H233300   3.455   0.971   2.195
11119TIP3   OH233301   2.232   4.347   6.373
11119TIP3    H133302   2.233   4.298   6.291
11119TIP3    H233303   2.323   4.348   6.402
11120TIP3   OH233304   8.171   6.111   2.844
11120TIP3    H133305   8.209   6.085   2.760
11120TIP3    H233306   8.091   6.157   2.821
11121TIP3   OH233307   2.130   1.196   0.469
11121TIP3    H133308   2.175   1.137   0.530
11121TIP3    H233309   2.047   1.216   0.512
11122TIP3   OH233310   0.529   4.725   0.034
11122TIP3    H133311   0.439   4.696   0.046
11122TIP3    H233312   0.532   4.760  -0.055
11123TIP3   OH233313   5.361   0.786   0.738
11123TIP3    H133314   5.392   0.809   0.825
11123TIP3    H233315   5.394   0.697   0.723
11124TIP3   OH233316   6.305   6.005   5.355
11124TIP3    H133317   6.232   6.058   5.388
11124TIP3    H233318   6.278   5.915   5.369
11125TIP3   OH233319   5.171   2.381   6.659
11125TIP3    H133320   5.134   2.319   6.721
11125TIP3    H233321   5.245   2.420   6.706
11126TIP3   OH233322   1.984   7.435   3.014
11126TIP3    H133323   2.053   7.500   3.030
11126TIP3    H233324   1.985   7.422   2.919
11127TIP3   OH233325   5.041   7.747   2.739
11127TIP3    H133326   5.065   7.766   2.648
11127TIP3    H233327   5.053   7.653   2.748
11128TIP3   OH233328   2.148   3.108   5.886
11128TIP3    H133329   2.097   3.144   5.813
11128TIP3    H233330   2.098   3.130   5.964
11129TIP3   OH233331   3.517   6.779   5.618
11129TIP3    H133332   3.586   6.804   5.556
11129TIP3    H233333   3.468   6.860   5.633
11130TIP3   OH233334   8.143   4.606   1.124
11130TIP3    H133335   8.238   4.602   1.113
11130TIP3    H233336   8.113   4.519   1.098
11131TIP3   OH233337   5.277   2.119   6.372
11131TIP3    H133338   5.189   2.146   6.398
11131TIP3    H233339   5.333   2.194   6.392
11132TIP3   OH233340   0.997   3.602   1.348
11132TIP3    H133341   1.015   3.515   1.383
11132TIP3    H233342   0.902   3.607   1.342
11133TIP3   OH233343   3.763   3.540   2.977
11133TIP3    H133344   3.672   3.528   2.949
11133TIP3    H233345   3.759   3.611   3.041
11134TIP3   OH233346   2.371   2.101   0.586
11134TIP3    H133347   2.403   2.013   0.564
11134TIP3    H233348   2.290   2.085   0.636
11135TIP3   OH233349   0.290   2.114   3.250
11135TIP3    H133350   0.287   2.206   3.277
11135TIP3    H233351   0.350   2.073   3.311
11136TIP3   OH233352   6.392   1.184   6.234
11136TIP3    H133353   6.357   1.197   6.322
11136TIP3    H233354   6.385   1.089   6.220
11137TIP3   OH233355   2.842   4.990   4.215
11137TIP3    H133356   2.853   5.013   4.307
11137TIP3    H233357   2.915   5.034   4.171
11138TIP3   OH233358   0.830   1.633   2.344
11138TIP3    H133359   0.850   1.565   2.280
11138TIP3    H233360   0.912   1.650   2.389
11139TIP3   OH233361   8.286   4.123   0.277
11139TIP3    H133362   8.191   4.131   0.279
11139TIP3    H233363   8.309   4.125   0.184
11140TIP3   OH233364   4.556   2.156   5.759
11140TIP3    H133365   4.632   2.123   5.711
11140TIP3    H233366   4.566   2.119   5.847
11141TIP3   OH233367   3.064   3.201   3.034
11141TIP3    H133368   3.093   3.289   3.010
11141TIP3    H233369   3.030   3.211   3.123
11142TIP3   OH233370   2.408   1.950   5.265
11142TIP3    H133371   2.432   2.040   5.243
11142TIP3    H233372   2.413   1.947   5.360
11143TIP3   OH233373   0.351   1.292   1.557
11143TIP3    H133374   0.436   1.306   1.599
11143TIP3    H233375   0.321   1.207   1.590
11144TIP3   OH233376   1.796   5.204   5.761
11144TIP3    H133377   1.717   5.256   5.776
11144TIP3    H233378   1.781   5.123   5.809
11145TIP3   OH233379   5.066   2.051   4.784
11145TIP3    H133380   5.055   1.964   4.822
11145TIP3    H233381   5.068   2.037   4.690
11146TIP3   OH233382   0.592   5.788   6.544
11146TIP3    H133383   0.651   5.805   6.471
11146TIP3    H233384   0.638   5.721   6.596
11147TIP3   OH233385   3.509   7.750   4.367
11147TIP3    H133386   3.545   7.838   4.360
11147TIP3    H233387   3.576   7.700   4.413
11148TIP3   OH233388   3.473   6.872   0.315
11148TIP3    H133389   3.455   6.942   0.253
11148TIP3    H233390   3.569   6.865   0.317
11149TIP3   OH233391   3.772   5.358   3.859
11149TIP3    H133392   3.771   5.286   3.796
11149TIP3    H233393   3.789   5.436   3.807
11150TIP3   OH233394   1.440   7.003   4.010
11150TIP3    H133395   1.348   6.979   4.012
11150TIP3    H233396   1.442   7.087   3.965
11151TIP3   OH233397   5.540   4.110   3.066
11151TIP3    H133398   5.509   4.022   3.047
11151TIP3    H233399   5.635   4.106   3.049
11152TIP3   OH233400   6.072   0.260   6.078
11152TIP3    H133401   6.047   0.192   6.141
11152TIP3    H233402   6.139   0.219   6.023
11153TIP3   OH233403   2.181   3.524   0.023
11153TIP3    H133404   2.194   3.558   0.111
11153TIP3    H233405   2.267   3.491  -0.004
11154TIP3   OH233406   6.539   2.328   3.646
11154TIP3    H133407   6.584   2.282   3.717
11154TIP3    H233408   6.525   2.416   3.679
11155TIP3   OH233409   3.317   0.095   4.870
11155TIP3    H133410   3.240   0.152   4.881
11155TIP3    H233411   3.373   0.116   4.944
11156TIP3   OH233412   3.404   4.405   1.601
11156TIP3    H133413   3.447   4.328   1.564
11156TIP3    H233414   3.451   4.421   1.683
11157TIP3   OH233415   1.806   6.806   2.101
11157TIP3    H133416   1.808   6.900   2.121
11157TIP3    H233417   1.794   6.763   2.185
11158TIP3   OH233418   7.159   6.331   5.347
11158TIP3    H133419   7.165   6.268   5.275
11158TIP3    H233420   7.250   6.343   5.375
11159TIP3   OH233421   8.309   1.017   1.256
11159TIP3    H133422   8.368   1.092   1.266
11159TIP3    H233423   8.236   1.036   1.316
11160TIP3   OH233424   1.688   4.029   6.305
11160TIP3    H133425   1.649   4.094   6.364
11160TIP3    H233426   1.687   4.071   6.220
11161TIP3   OH233427   2.488   1.951   4.990
11161TIP3    H133428   2.512   1.945   5.082
11161TIP3    H233429   2.395   1.927   4.988
11162TIP3   OH233430   5.011   6.944   5.270
11162TIP3    H133431   5.015   6.975   5.361
11162TIP3    H233432   4.917   6.932   5.253
11163TIP3   OH233433   0.678   3.228   0.507
11163TIP3    H133434   0.672   3.191   0.595
11163TIP3    H233435   0.712   3.317   0.521
11164TIP3   OH233436   1.871   7.221   0.476
11164TIP3    H133437   1.789   7.175   0.458
11164TIP3    H233438   1.850   7.279   0.550
11165TIP3   OH233439   4.605   6.113   2.417
11165TIP3    H133440   4.678   6.171   2.440
11165TIP3    H233441   4.619   6.094   2.324
11166TIP3   OH233442   7.931   6.161   3.867
11166TIP3    H133443   8.015   6.143   3.909
11166TIP3    H233444   7.940   6.251   3.834
11167TIP3   OH233445   5.848   6.909   6.537
11167TIP3    H133446   5.784   6.946   6.598
11167TIP3    H233447   5.802   6.906   6.453
11168TIP3   OH233448   7.342   2.587   6.294
11168TIP3    H133449   7.358   2.601   6.387
11168TIP3    H233450   7.354   2.673   6.254
11169TIP3   OH233451   0.683   7.180   3.113
11169TIP3    H133452   0.627   7.127   3.170
11169TIP3    H233453   0.654   7.159   3.024
11170TIP3   OH233454   7.413   0.505   3.949
11170TIP3    H133455   7.416   0.593   3.986
11170TIP3    H233456   7.471   0.454   4.005
11171TIP3   OH233457   0.422   7.691   2.034
11171TIP3    H133458   0.498   7.710   2.089
11171TIP3    H233459   0.353   7.670   2.096
11172TIP3   OH233460   6.809   2.423   5.432
11172TIP3    H133461   6.714   2.411   5.423
11172TIP3    H233462   6.821   2.458   5.520
11173TIP3   OH233463   0.782   1.423   2.919
11173TIP3    H133464   0.795   1.515   2.943
11173TIP3    H233465   0.801   1.420   2.825
11174TIP3   OH233466   3.353   6.530   6.124
11174TIP3    H133467   3.278   6.562   6.073
11174TIP3    H233468   3.315   6.500   6.207
11175TIP3   OH233469   6.979   6.419   1.522
11175TIP3    H133470   6.978   6.475   1.444
11175TIP3    H233471   6.887   6.403   1.541
11176TIP3   OH233472   3.650   2.883   1.560
11176TIP3    H133473   3.675   2.975   1.571
11176TIP3    H233474   3.570   2.874   1.610
11177TIP3   OH233475   7.098   1.758   4.531
11177TIP3    H133476   7.083   1.731   4.441
11177TIP3    H233477   7.187   1.727   4.551
11178TIP3   OH233478   4.424   5.021   5.348
11178TIP3    H133479   4.453   5.093   5.292
11178TIP3    H233480   4.504   4.971   5.366
11179TIP3   OH233481   5.644   6.750   4.434
11179TIP3    H133482   5.628   6.822   4.374
11179TIP3    H233483   5.663   6.793   4.518
11180TIP3   OH233484   2.863   2.481   6.010
11180TIP3    H133485   2.829   2.413   5.952
11180TIP3    H233486   2.931   2.437   6.061
11181TIP3   OH233487   6.626   0.652   6.214
11181TIP3    H133488   6.672   0.572   6.192
11181TIP3    H233489   6.607   0.645   6.307
11182TIP3   OH233490   1.370   6.695   5.084
11182TIP3    H133491   1.395   6.605   5.105
11182TIP3    H233492   1.446   6.730   5.038
11183TIP3   OH233493   5.356   1.669   3.524
11183TIP3    H133494   5.368   1.577   3.501
11183TIP3    H233495   5.420   1.685   3.593
11184TIP3   OH233496   8.015   5.134   3.605
11184TIP3    H133497   7.939   5.140   3.662
11184TIP3    H233498   8.050   5.224   3.602
11185TIP3   OH233499   4.223   3.679   1.751
11185TIP3    H133500   4.172   3.652   1.828
11185TIP3    H233501   4.245   3.771   1.768
11186TIP3   OH233502   5.306   3.573   2.024
11186TIP3    H133503   5.315   3.478   2.018
11186TIP3    H233504   5.245   3.595   1.953
11187TIP3   OH233505   0.116   4.948   4.231
11187TIP3    H133506   0.113   4.917   4.141
11187TIP3    H233507   0.160   4.878   4.279
11188TIP3   OH233508   1.026   1.171   4.751
11188TIP3    H133509   1.108   1.197   4.794
11188TIP3    H233510   0.981   1.117   4.816
11189TIP3   OH233511   0.776   7.106   1.386
11189TIP3    H133512   0.779   7.087   1.292
11189TIP3    H233513   0.826   7.188   1.396
11190TIP3   OH233514   7.905   4.587   2.976
11190TIP3    H133515   7.906   4.555   2.886
11190TIP3    H233516   7.986   4.636   2.985
11191TIP3   OH233517   5.311   3.467   6.022
11191TIP3    H133518   5.276   3.445   5.936
11191TIP3    H233519   5.398   3.427   6.023
11192TIP3   OH233520   5.237   2.125   4.037
11192TIP3    H133521   5.173   2.189   4.008
11192TIP3    H233522   5.319   2.150   3.994
11193TIP3   OH233523   6.660   7.005   2.579
11193TIP3    H133524   6.646   7.055   2.659
11193TIP3    H233525   6.598   7.042   2.516
11194TIP3   OH233526   7.442   2.154   3.547
11194TIP3    H133527   7.354   2.155   3.587
11194TIP3    H233528   7.443   2.230   3.489
11195TIP3   OH233529   7.295   0.294   0.665
11195TIP3    H133530   7.259   0.296   0.754
11195TIP3    H233531   7.231   0.343   0.612
11196TIP3   OH233532   5.601   4.012   1.705
11196TIP3    H133533   5.556   3.928   1.696
11196TIP3    H233534   5.551   4.059   1.771
11197TIP3   OH233535   2.906   3.805   0.896
11197TIP3    H133536   2.825   3.826   0.942
11197TIP3    H233537   2.931   3.718   0.929
11198TIP3   OH233538   1.748   4.837   0.261
11198TIP3    H133539   1.665   4.885   0.257
11198TIP3    H233540   1.792   4.859   0.179
11199TIP3   OH233541   0.546   2.407   5.261
11199TIP3    H133542   0.474   2.360   5.304
11199TIP3    H233543   0.515   2.497   5.254
11200TIP3   OH233544   5.487   6.803   3.987
11200TIP3    H133545   5.493   6.832   3.896
11200TIP3    H233546   5.520   6.878   4.037
11201TIP3   OH233547   5.282   7.557   5.879
11201TIP3    H133548   5.280   7.622   5.809
11201TIP3    H233549   5.211   7.497   5.858
11202TIP3   OH233550   7.899   0.068   6.667
11202TIP3    H133551   7.931   0.104   6.749
11202TIP3    H233552   7.831   0.006   6.692
11203TIP3   OH233553   2.098   4.178   3.705
11203TIP3    H133554   2.104   4.264   3.664
11203TIP3    H233555   2.131   4.191   3.794
11204TIP3   OH233556   6.310   1.038   6.767
11204TIP3    H133557   6.291   1.067   6.678
11204TIP3    H233558   6.273   1.107   6.823
11205TIP3   OH233559   5.067   5.110   2.554
11205TIP3    H133560   5.049   5.017   2.542
11205TIP3    H233561   5.131   5.114   2.626
11206TIP3   OH233562   4.701   6.009   2.091
11206TIP3    H133563   4.795   6.019   2.105
11206TIP3    H233564   4.672   5.954   2.163
11207TIP3   OH233565   0.493   3.287   6.734
11207TIP3    H133566   0.450   3.273   6.650
11207TIP3    H233567   0.446   3.361   6.773
11208TIP3   OH233568   5.265   0.102   1.296
11208TIP3    H133569   5.187   0.132   1.342
11208TIP3    H233570   5.277   0.165   1.224
11209TIP3   OH233571   7.675   0.220   1.032
11209TIP3    H133572   7.662   0.242   0.940
11209TIP3    H233573   7.713   0.132   1.031
11210TIP3   OH233574   7.183   3.727   3.518
11210TIP3    H133575   7.106   3.671   3.503
11210TIP3    H233576   7.255   3.681   3.475
11211TIP3   OH233577   3.469   6.024   6.263
11211TIP3    H133578   3.486   6.116   6.283
11211TIP3    H233579   3.374   6.017   6.262
11212TIP3   OH233580   6.329   0.873   5.555
11212TIP3    H133581   6.246   0.894   5.597
11212TIP3    H233582   6.393   0.927   5.600
11213TIP3   OH233583   6.951   0.226   2.832
11213TIP3    H133584   7.035   0.195   2.867
11213TIP3    H233585   6.972   0.310   2.791
11214TIP3   OH233586   1.453   2.555   2.544
11214TIP3    H133587   1.427   2.645   2.565
11214TIP3    H233588   1.529   2.539   2.600
11215TIP3   OH233589   6.980   7.359   5.485
11215TIP3    H133590   7.021   7.277   5.513
11215TIP3    H233591   6.886   7.344   5.495
11216TIP3   OH233592   1.478   1.194   2.039
11216TIP3    H133593   1.427   1.114   2.047
11216TIP3    H233594   1.558   1.167   1.994
11217TIP3   OH233595   6.488   7.639   3.227
11217TIP3    H133596   6.528   7.694   3.160
11217TIP3    H233597   6.553   7.571   3.245
11218TIP3   OH233598   4.443   7.382   3.213
11218TIP3    H133599   4.496   7.351   3.139
11218TIP3    H233600   4.443   7.477   3.204
11219TIP3   OH233601   2.782   1.845   3.139
11219TIP3    H133602   2.705   1.897   3.160
11219TIP3    H233603   2.782   1.840   3.043
11220TIP3   OH233604   4.218   2.503   3.759
11220TIP3    H133605   4.142   2.475   3.707
11220TIP3    H233606   4.194   2.590   3.791
11221TIP3   OH233607   6.239   4.334   5.915
11221TIP3    H133608   6.199   4.419   5.901
11221TIP3    H233609   6.199   4.277   5.849
11222TIP3   OH233610   6.028   3.741   5.722
11222TIP3    H133611   5.961   3.750   5.654
11222TIP3    H233612   6.096   3.803   5.698
11223TIP3   OH233613   6.305   5.909   6.374
11223TIP3    H133614   6.259   5.898   6.457
11223TIP3    H233615   6.337   5.822   6.352
11224TIP3   OH233616   6.097   5.465   3.988
11224TIP3    H133617   6.181   5.454   4.032
11224TIP3    H233618   6.114   5.524   3.915
11225TIP3   OH233619   0.067   1.488   1.348
11225TIP3    H133620   0.111   1.540   1.281
11225TIP3    H233621   0.103   1.400   1.338
11226TIP3   OH233622   6.002   3.817   0.885
11226TIP3    H133623   6.083   3.827   0.836
11226TIP3    H233624   6.007   3.729   0.923
11227TIP3   OH233625   1.460   5.459   4.429
11227TIP3    H133626   1.471   5.383   4.486
11227TIP3    H233627   1.427   5.422   4.347
11228TIP3   OH233628   5.123   0.088   2.469
11228TIP3    H133629   5.075   0.141   2.405
11228TIP3    H233630   5.092   0.119   2.554
11229TIP3   OH233631   5.641   4.099   4.934
11229TIP3    H133632   5.573   4.044   4.895
11229TIP3    H233633   5.723   4.066   4.897
11230TIP3   OH233634   3.202   6.937   6.720
11230TIP3    H133635   3.231   6.866   6.777
11230TIP3    H233636   3.205   6.900   6.632
11231TIP3   OH233637   1.197   7.432   5.061
11231TIP3    H133638   1.190   7.353   5.115
11231TIP3    H233639   1.107   7.457   5.042
11232TIP3   OH233640   3.452   3.862   0.354
11232TIP3    H133641   3.436   3.936   0.413
11232TIP3    H233642   3.512   3.896   0.288
11233TIP3   OH233643   6.232   5.270   1.396
11233TIP3    H133644   6.203   5.325   1.468
11233TIP3    H233645   6.151   5.244   1.352
11234TIP3   OH233646   3.287   1.643   2.022
11234TIP3    H133647   3.219   1.711   2.023
11234TIP3    H233648   3.249   1.572   1.971
11235TIP3   OH233649   4.343   0.507   3.245
11235TIP3    H133650   4.354   0.416   3.273
11235TIP3    H233651   4.431   0.533   3.216
11236TIP3   OH233652   1.267   6.791   5.457
11236TIP3    H133653   1.285   6.885   5.454
11236TIP3    H233654   1.262   6.771   5.550
11237TIP3   OH233655   4.200   0.043   5.503
11237TIP3    H133656   4.155   0.030   5.587
11237TIP3    H233657   4.213  -0.046   5.469
11238TIP3   OH233658   8.094   7.452   2.749
11238TIP3    H133659   8.006   7.419   2.728
11238TIP3    H233660   8.142   7.375   2.779
11239TIP3   OH233661   7.060   0.500   6.052
11239TIP3    H133662   7.093   0.586   6.078
11239TIP3    H233663   7.047   0.507   5.957
11240TIP3   OH233664   4.648   6.008   4.380
11240TIP3    H133665   4.647   6.093   4.425
11240TIP3    H233666   4.581   5.956   4.425
11241TIP3   OH233667   0.025   1.736   6.023
11241TIP3    H133668  -0.010   1.714   5.937
11241TIP3    H233669   0.110   1.692   6.026
11242TIP3   OH233670   2.205   6.975   5.267
11242TIP3    H133671   2.264   6.900   5.262
11242TIP3    H233672   2.248   7.035   5.328
11243TIP3   OH233673   2.412   3.757   5.499
11243TIP3    H133674   2.486   3.734   5.443
11243TIP3    H233675   2.368   3.674   5.516
11244TIP3   OH233676   4.302   2.311   4.418
11244TIP3    H133677   4.273   2.381   4.476
11244TIP3    H233678   4.222   2.264   4.395
11245TIP3   OH233679   5.977   6.289   6.318
11245TIP3    H133680   6.011   6.212   6.363
11245TIP3    H233681   6.033   6.299   6.241
11246TIP3   OH233682   0.695   5.491   5.377
11246TIP3    H133683   0.755   5.510   5.450
11246TIP3    H233684   0.720   5.554   5.309
11247TIP3   OH233685   4.137   1.276   6.600
11247TIP3    H133686   4.184   1.225   6.666
11247TIP3    H233687   4.154   1.367   6.623
11248TIP3   OH233688   4.435   6.869   3.369
11248TIP3    H133689   4.373   6.802   3.343
11248TIP3    H233690   4.486   6.886   3.290
11249TIP3   OH233691   6.088   2.751   2.650
11249TIP3    H133692   6.035   2.831   2.649
11249TIP3    H233693   6.174   2.778   2.619
11250TIP3   OH233694   6.240   1.434   2.224
11250TIP3    H133695   6.226   1.339   2.222
11250TIP3    H233696   6.263   1.453   2.315
11251TIP3   OH233697   6.228   4.792   5.164
11251TIP3    H133698   6.196   4.717   5.215
11251TIP3    H233699   6.260   4.854   5.230
11252TIP3   OH233700   5.666   2.532   2.369
11252TIP3    H133701   5.687   2.622   2.394
11252TIP3    H233702   5.596   2.542   2.304
11253TIP3   OH233703   2.704   7.174   1.262
11253TIP3    H133704   2.795   7.157   1.235
11253TIP3    H233705   2.681   7.255   1.217
11254TIP3   OH233706   0.383   0.470   2.072
11254TIP3    H133707   0.430   0.390   2.094
11254TIP3    H233708   0.312   0.474   2.137
11255TIP3   OH233709   3.552   5.251   1.380
11255TIP3    H133710   3.471   5.204   1.362
11255TIP3    H233711   3.616   5.181   1.396
11256TIP3   OH233712   2.311   3.393   5.742
11256TIP3    H133713   2.400   3.362   5.724
11256TIP3    H233714   2.302   3.384   5.836
11257TIP3   OH233715   7.250   1.539   0.592
11257TIP3    H133716   7.244   1.456   0.545
11257TIP3    H233717   7.184   1.532   0.661
11258TIP3   OH233718   3.747   3.843   2.880
11258TIP3    H133719   3.731   3.784   2.807
11258TIP3    H233720   3.792   3.918   2.841
11259TIP3   OH233721   3.594   3.670   5.512
11259TIP3    H133722   3.668   3.635   5.462
11259TIP3    H233723   3.519   3.663   5.453
11260TIP3   OH233724   1.611   0.738   4.138
11260TIP3    H133725   1.567   0.663   4.098
11260TIP3    H233726   1.540   0.793   4.171
11261TIP3   OH233727   2.034   5.007   0.332
11261TIP3    H133728   2.029   4.954   0.412
11261TIP3    H233729   2.005   5.095   0.359
11262TIP3   OH233730   3.810   7.316   3.286
11262TIP3    H133731   3.727   7.356   3.260
11262TIP3    H233732   3.795   7.222   3.274
11263TIP3   OH233733   1.726   5.701   2.911
11263TIP3    H133734   1.712   5.685   2.818
11263TIP3    H233735   1.721   5.796   2.920
11264TIP3   OH233736   8.139   2.013   5.353
11264TIP3    H133737   8.104   2.037   5.268
11264TIP3    H233738   8.193   1.936   5.336
11265TIP3   OH233739   0.454   0.663   5.297
11265TIP3    H133740   0.443   0.715   5.376
11265TIP3    H233741   0.380   0.601   5.298
11266TIP3   OH233742   4.915   4.898   5.057
11266TIP3    H133743   4.827   4.925   5.031
11266TIP3    H233744   4.921   4.918   5.150
11267TIP3   OH233745   2.165   7.399   1.282
11267TIP3    H133746   2.111   7.432   1.210
11267TIP3    H233747   2.190   7.311   1.255
11268TIP3   OH233748   0.855   1.951   4.720
11268TIP3    H133749   0.923   1.949   4.786
11268TIP3    H233750   0.900   1.929   4.638
11269TIP3   OH233751   4.597   0.225   0.273
11269TIP3    H133752   4.519   0.252   0.224
11269TIP3    H233753   4.662   0.205   0.205
11270TIP3   OH233754   5.056   3.355   2.690
11270TIP3    H133755   5.018   3.299   2.757
11270TIP3    H233756   5.150   3.340   2.696
11271TIP3   OH233757   2.950   3.947   1.687
11271TIP3    H133758   3.009   3.948   1.611
11271TIP3    H233759   2.980   3.872   1.739
11272TIP3   OH233760   0.870   5.629   1.206
11272TIP3    H133761   0.944   5.570   1.193
11272TIP3    H233762   0.879   5.694   1.136
11273TIP3   OH233763   3.476   0.978   2.563
11273TIP3    H133764   3.554   0.933   2.530
11273TIP3    H233765   3.418   0.908   2.592
11274TIP3   OH233766   0.483   7.056   2.611
11274TIP3    H133767   0.484   7.151   2.612
11274TIP3    H233768   0.575   7.031   2.603
11275TIP3   OH233769   2.096   0.962   3.230
11275TIP3    H133770   2.154   0.964   3.153
11275TIP3    H233771   2.095   0.870   3.255
11276TIP3   OH233772   1.006   4.911   1.353
11276TIP3    H133773   1.037   4.998   1.375
11276TIP3    H233774   0.915   4.924   1.326
11277TIP3   OH233775   0.028   7.582   3.348
11277TIP3    H133776   0.007   7.660   3.400
11277TIP3    H233777   0.064   7.520   3.412
11278TIP3   OH233778   4.096   0.752   5.400
11278TIP3    H133779   4.024   0.691   5.414
11278TIP3    H233780   4.171   0.711   5.444
11279TIP3   OH233781   2.473   5.246   4.714
11279TIP3    H133782   2.443   5.228   4.803
11279TIP3    H233783   2.416   5.192   4.659
11280TIP3   OH233784   0.993   2.637   3.233
11280TIP3    H133785   1.013   2.548   3.262
11280TIP3    H233786   0.903   2.632   3.200
11281TIP3   OH233787   3.717   1.868   2.426
11281TIP3    H133788   3.739   1.947   2.376
11281TIP3    H233789   3.766   1.798   2.384
11282TIP3   OH233790   4.496   6.328   3.917
11282TIP3    H133791   4.575   6.297   3.872
11282TIP3    H233792   4.495   6.278   3.999
11283TIP3   OH233793   0.589   4.278   2.143
11283TIP3    H133794   0.508   4.323   2.164
11283TIP3    H233795   0.638   4.277   2.225
11284TIP3   OH233796   0.142   6.530   4.077
11284TIP3    H133797   0.142   6.453   4.134
11284TIP3    H233798   0.196   6.594   4.124
11285TIP3   OH233799   2.663   3.090   5.483
11285TIP3    H133800   2.692   3.034   5.554
11285TIP3    H233801   2.653   3.032   5.408
11286TIP3   OH233802   1.644   6.460   4.320
11286TIP3    H133803   1.629   6.545   4.362
11286TIP3    H233804   1.606   6.470   4.232
11287TIP3   OH233805   6.437   6.160   0.599
11287TIP3    H133806   6.405   6.098   0.533
11287TIP3    H233807   6.498   6.216   0.552
11288TIP3   OH233808   5.550   1.649   0.935
11288TIP3    H133809   5.633   1.613   0.967
11288TIP3    H233810   5.489   1.635   1.007
11289TIP3   OH233811   5.203   6.173   0.751
11289TIP3    H133812   5.276   6.120   0.719
11289TIP3    H233813   5.236   6.262   0.753
11290TIP3   OH233814   7.450   4.563   6.581
11290TIP3    H133815   7.422   4.611   6.659
11290TIP3    H233816   7.528   4.610   6.551
11291TIP3   OH233817   5.055   1.319   5.375
11291TIP3    H133818   5.025   1.261   5.305
11291TIP3    H233819   5.076   1.401   5.330
11292TIP3   OH233820   2.496   4.141   3.749
11292TIP3    H133821   2.417   4.095   3.777
11292TIP3    H233822   2.558   4.070   3.730
11293TIP3   OH233823   7.627   2.776   0.315
11293TIP3    H133824   7.654   2.826   0.238
11293TIP3    H233825   7.548   2.820   0.346
11294TIP3   OH233826   6.039   0.051   4.555
11294TIP3    H133827   6.125   0.091   4.570
11294TIP3    H233828   5.988   0.076   4.632
11295TIP3   OH233829   4.626   6.566   3.990
11295TIP3    H133830   4.556   6.501   3.987
11295TIP3    H233831   4.670   6.551   4.073
11296TIP3   OH233832   5.487   4.572   3.292
11296TIP3    H133833   5.426   4.611   3.355
11296TIP3    H233834   5.433   4.513   3.240
11297TIP3   OH233835   0.093   3.922   5.862
11297TIP3    H133836   0.044   3.988   5.912
11297TIP3    H233837   0.045   3.914   5.780
11298TIP3   OH233838   1.120   6.508   0.937
11298TIP3    H133839   1.049   6.551   0.889
11298TIP3    H233840   1.200   6.544   0.900
11299TIP3   OH233841   7.662   2.581   4.002
11299TIP3    H133842   7.638   2.627   3.921
11299TIP3    H233843   7.742   2.624   4.031
11300TIP3   OH233844   5.451   6.593   4.277
11300TIP3    H133845   5.383   6.659   4.289
11300TIP3    H233846   5.526   6.628   4.325
11301TIP3   OH233847   0.486   6.885   4.434
11301TIP3    H133848   0.451   6.798   4.415
11301TIP3    H233849   0.426   6.922   4.499
11302TIP3   OH233850   1.263   0.356   0.329
11302TIP3    H133851   1.225   0.431   0.373
11302TIP3    H233852   1.212   0.347   0.248
11303TIP3   OH233853   0.250   2.873   0.176
11303TIP3    H133854   0.225   2.965   0.170
11303TIP3    H233855   0.260   2.845   0.085
11304TIP3   OH233856   5.478   6.184   1.823
11304TIP3    H133857   5.496   6.276   1.803
11304TIP3    H233858   5.390   6.169   1.790
11305TIP3   OH233859   6.822   2.429   1.690
11305TIP3    H133860   6.878   2.396   1.620
11305TIP3    H233861   6.846   2.522   1.697
11306TIP3   OH233862   2.155   6.713   1.204
11306TIP3    H133863   2.197   6.799   1.214
11306TIP3    H233864   2.075   6.731   1.154
11307TIP3   OH233865   7.941   4.777   5.170
11307TIP3    H133866   7.885   4.854   5.177
11307TIP3    H233867   8.026   4.805   5.204
11308TIP3   OH233868   5.626   0.753   6.286
11308TIP3    H133869   5.691   0.725   6.351
11308TIP3    H233870   5.558   0.686   6.289
11309TIP3   OH233871   6.325   4.886   2.180
11309TIP3    H133872   6.387   4.921   2.116
11309TIP3    H233873   6.334   4.791   2.173
11310TIP3   OH233874   1.902   3.892   4.570
11310TIP3    H133875   1.858   3.864   4.649
11310TIP3    H233876   1.833   3.931   4.516
11311TIP3   OH233877   6.321   4.916   6.442
11311TIP3    H133878   6.315   5.010   6.463
11311TIP3    H233879   6.335   4.914   6.348
11312TIP3   OH233880   0.016   4.603   2.580
11312TIP3    H133881   0.054   4.597   2.668
11312TIP3    H233882   0.055   4.529   2.533
11313TIP3   OH233883   2.988   4.215   3.098
11313TIP3    H133884   2.918   4.153   3.080
11313TIP3    H233885   2.943   4.291   3.135
11314TIP3   OH233886   2.146   7.603   6.304
11314TIP3    H133887   2.052   7.585   6.309
11314TIP3    H233888   2.179   7.542   6.239
11315TIP3   OH233889   3.806   0.767   6.010
11315TIP3    H133890   3.831   0.751   6.101
11315TIP3    H233891   3.720   0.809   6.016
11316TIP3   OH233892   2.205   6.762   4.780
11316TIP3    H133893   2.202   6.815   4.700
11316TIP3    H233894   2.250   6.682   4.753
11317TIP3   OH233895   2.533   3.583   0.426
11317TIP3    H133896   2.548   3.488   0.427
11317TIP3    H233897   2.601   3.617   0.368
11318TIP3   OH233898   6.882   1.290   5.388
11318TIP3    H133899   6.952   1.330   5.337
11318TIP3    H233900   6.857   1.212   5.338
11319TIP3   OH233901   0.708   5.462   6.198
11319TIP3    H133902   0.680   5.550   6.222
11319TIP3    H233903   0.659   5.441   6.119
11320TIP3   OH233904   1.204   7.095   3.300
11320TIP3    H133905   1.120   7.137   3.281
11320TIP3    H233906   1.269   7.161   3.274
11321TIP3   OH233907   6.008   3.564   4.627
11321TIP3    H133908   6.025   3.641   4.573
11321TIP3    H233909   5.927   3.527   4.592
11322TIP3   OH233910   3.603   2.511   0.484
11322TIP3    H133911   3.556   2.428   0.472
11322TIP3    H233912   3.535   2.574   0.505
11323TIP3   OH233913   2.265   5.030   4.171
11323TIP3    H133914   2.212   5.068   4.102
11323TIP3    H233915   2.215   4.955   4.202
11324TIP3   OH233916   5.783   7.744   2.042
11324TIP3    H133917   5.787   7.658   2.083
11324TIP3    H233918   5.864   7.750   1.991
11325TIP3   OH233919   5.240   3.074   5.799
11325TIP3    H133920   5.332   3.079   5.775
11325TIP3    H233921   5.236   3.001   5.861
11326TIP3   OH233922   7.497   2.384   3.374
11326TIP3    H133923   7.563   2.443   3.337
11326TIP3    H233924   7.447   2.354   3.298
11327TIP3   OH233925   4.109   3.575   6.542
11327TIP3    H133926   4.175   3.610   6.482
11327TIP3    H233927   4.027   3.577   6.492
11328TIP3   OH233928   3.064   6.693   3.205
11328TIP3    H133929   3.107   6.714   3.122
11328TIP3    H233930   3.084   6.601   3.220
11329TIP3   OH233931   5.525   3.871   6.607
11329TIP3    H133932   5.443   3.851   6.562
11329TIP3    H233933   5.499   3.921   6.684
11330TIP3   OH233934   5.632   0.920   1.626
11330TIP3    H133935   5.722   0.934   1.655
11330TIP3    H233936   5.628   0.959   1.539
11331TIP3   OH233937   2.191   7.543   5.312
11331TIP3    H133938   2.098   7.564   5.311
11331TIP3    H233939   2.216   7.541   5.220
11332TIP3   OH233940   8.107   1.819   6.448
11332TIP3    H133941   8.097   1.724   6.455
11332TIP3    H233942   8.193   1.832   6.409
11333TIP3   OH233943   3.350   0.417   0.260
11333TIP3    H133944   3.414   0.392   0.194
11333TIP3    H233945   3.355   0.347   0.326
11334TIP3   OH233946   7.357   5.275   2.573
11334TIP3    H133947   7.338   5.205   2.511
11334TIP3    H233948   7.453   5.277   2.578
11335TIP3   OH233949   0.115   5.677   1.191
11335TIP3    H133950   0.127   5.606   1.129
11335TIP3    H233951   0.197   5.726   1.188
11336TIP3   OH233952   7.115   0.741   5.749
11336TIP3    H133953   7.058   0.673   5.784
11336TIP3    H233954   7.108   0.731   5.654
11337TIP3   OH233955   0.455   1.100   2.278
11337TIP3    H133956   0.400   1.111   2.201
11337TIP3    H233957   0.519   1.033   2.252
11338TIP3   OH233958   0.141   2.926   2.404
11338TIP3    H133959   0.162   2.834   2.389
11338TIP3    H233960   0.215   2.974   2.367
11339TIP3   OH233961   0.318   4.595   6.583
11339TIP3    H133962   0.260   4.610   6.657
11339TIP3    H233963   0.372   4.674   6.579
11340TIP3   OH233964   4.961   2.094   3.441
11340TIP3    H133965   4.997   2.035   3.507
11340TIP3    H233966   4.998   2.062   3.358
11341TIP3   OH233967   0.126   3.459   0.754
11341TIP3    H133968   0.042   3.419   0.730
11341TIP3    H233969   0.189   3.419   0.694
11342TIP3   OH233970   0.443   4.243   5.896
11342TIP3    H133971   0.518   4.184   5.908
11342TIP3    H233972   0.481   4.331   5.901
11343TIP3   OH233973   5.749   7.293   2.102
11343TIP3    H133974   5.727   7.201   2.116
11343TIP3    H233975   5.671   7.341   2.131
11344TIP3   OH233976   0.658   0.958   5.437
11344TIP3    H133977   0.728   1.021   5.417
11344TIP3    H233978   0.693   0.874   5.406
11345TIP3   OH233979   6.290   1.193   3.814
11345TIP3    H133980   6.204   1.228   3.790
11345TIP3    H233981   6.307   1.230   3.901
11346TIP3   OH233982   0.082   0.421   6.641
11346TIP3    H133983   0.054   0.480   6.710
11346TIP3    H233984   0.018   0.434   6.571
11347TIP3   OH233985   3.493   3.529   2.909
11347TIP3    H133986   3.482   3.601   2.971
11347TIP3    H233987   3.501   3.571   2.823
11348TIP3   OH233988   5.177   5.570   6.522
11348TIP3    H133989   5.188   5.515   6.599
11348TIP3    H233990   5.185   5.509   6.448
11349TIP3   OH233991   7.378   0.688   1.419
11349TIP3    H133992   7.342   0.776   1.426
11349TIP3    H233993   7.371   0.651   1.507
11350TIP3   OH233994   0.329   7.282   4.147
11350TIP3    H133995   0.235   7.268   4.153
11350TIP3    H233996   0.361   7.210   4.092
11351TIP3   OH233997   0.399   0.345   1.310
11351TIP3    H133998   0.449   0.324   1.389
11351TIP3    H233999   0.459   0.327   1.238
11352TIP3   OH234000   1.425   4.187   4.727
11352TIP3    H134001   1.484   4.248   4.772
11352TIP3    H234002   1.483   4.134   4.672
11353TIP3   OH234003   5.770   0.768   3.346
11353TIP3    H134004   5.689   0.758   3.397
11353TIP3    H234005   5.826   0.822   3.401
11354TIP3   OH234006   6.516   3.596   2.259
11354TIP3    H134007   6.501   3.631   2.172
11354TIP3    H234008   6.575   3.660   2.300
11355TIP3   OH234009   2.851   2.398   4.379
11355TIP3    H134010   2.802   2.480   4.386
11355TIP3    H234011   2.880   2.396   4.288
11356TIP3   OH234012   5.540   6.235   1.327
11356TIP3    H134013   5.535   6.331   1.335
11356TIP3    H234014   5.463   6.212   1.274
11357TIP3   OH234015   4.894   6.482   1.358
11357TIP3    H134016   4.820   6.467   1.299
11357TIP3    H234017   4.954   6.410   1.339
11358TIP3   OH234018   1.214   5.248   1.597
11358TIP3    H134019   1.210   5.164   1.643
11358TIP3    H234020   1.307   5.270   1.597
11359TIP3   OH234021   0.094   4.974   5.007
11359TIP3    H134022   0.130   4.885   5.008
11359TIP3    H234023  -0.001   4.961   5.001
11360TIP3   OH234024   6.980   7.163   1.639
11360TIP3    H134025   6.889   7.179   1.615
11360TIP3    H234026   7.020   7.129   1.559
11361TIP3   OH234027   7.817   7.211   2.216
11361TIP3    H134028   7.830   7.122   2.183
11361TIP3    H234029   7.724   7.215   2.240
11362TIP3   OH234030   8.208   6.005   5.294
11362TIP3    H134031   8.157   5.969   5.367
11362TIP3    H234032   8.146   6.008   5.221
11363TIP3   OH234033   6.022   7.399   4.639
11363TIP3    H134034   6.110   7.387   4.602
11363TIP3    H234035   6.007   7.493   4.635
11364TIP3   OH234036   5.172   3.887   6.148
11364TIP3    H134037   5.180   3.832   6.071
11364TIP3    H234038   5.083   3.872   6.180
11365TIP3   OH234039   3.656   4.524   0.045
11365TIP3    H134040   3.733   4.520   0.101
11365TIP3    H234041   3.592   4.574   0.096
11366TIP3   OH234042   5.320   5.445   2.221
11366TIP3    H134043   5.309   5.505   2.295
11366TIP3    H234044   5.344   5.362   2.261
11367TIP3   OH234045   2.471   0.624   6.360
11367TIP3    H134046   2.567   0.618   6.360
11367TIP3    H234047   2.442   0.539   6.394
11368TIP3   OH234048   5.351   7.483   3.082
11368TIP3    H134049   5.308   7.566   3.102
11368TIP3    H234050   5.383   7.493   2.992
11369TIP3   OH234051   2.977   2.093   3.298
11369TIP3    H134052   2.943   2.122   3.213
11369TIP3    H234053   2.927   2.144   3.362
11370TIP3   OH234054   2.336   4.343   5.370
11370TIP3    H134055   2.314   4.377   5.283
11370TIP3    H234056   2.387   4.264   5.352
11371TIP3   OH234057   1.645   2.540   6.473
11371TIP3    H134058   1.716   2.477   6.484
11371TIP3    H234059   1.687   2.625   6.479
11372TIP3   OH234060   1.750   3.188   0.558
11372TIP3    H134061   1.764   3.130   0.483
11372TIP3    H234062   1.782   3.138   0.633
11373TIP3   OH234063   5.358   6.983   0.865
11373TIP3    H134064   5.309   7.026   0.935
11373TIP3    H234065   5.295   6.922   0.826
11374TIP3   OH234066   2.382   2.318   6.316
11374TIP3    H134067   2.346   2.236   6.351
11374TIP3    H234068   2.447   2.289   6.251
11375TIP3   OH234069   1.291   5.940   3.811
11375TIP3    H134070   1.235   5.865   3.830
11375TIP3    H234071   1.236   6.000   3.761
11376TIP3   OH234072   0.708   3.057   0.290
11376TIP3    H134073   0.692   3.096   0.376
11376TIP3    H234074   0.771   2.987   0.307
11377TIP3   OH234075   1.807   2.355   0.533
11377TIP3    H134076   1.869   2.295   0.491
11377TIP3    H234077   1.849   2.441   0.526
11378TIP3   OH234078   3.942   0.877   0.691
11378TIP3    H134079   3.859   0.836   0.716
11378TIP3    H234080   3.972   0.922   0.770
11379TIP3   OH234081   5.089   7.173   2.174
11379TIP3    H134082   4.996   7.192   2.191
11379TIP3    H234083   5.129   7.173   2.260
11380TIP3   OH234084   7.251   5.109   2.362
11380TIP3    H134085   7.315   5.088   2.294
11380TIP3    H234086   7.184   5.161   2.315
11381TIP3   OH234087   4.705   0.273   6.379
11381TIP3    H134088   4.737   0.186   6.357
11381TIP3    H234089   4.623   0.281   6.329
11382TIP3   OH234090   4.979   1.544   4.087
11382TIP3    H134091   4.929   1.474   4.046
11382TIP3    H234092   4.978   1.524   4.181
11383TIP3   OH234093   5.613   4.834   5.989
11383TIP3    H134094   5.573   4.916   6.017
11383TIP3    H234095   5.670   4.809   6.061
11384TIP3   OH234096   6.816   3.500   0.710
11384TIP3    H134097   6.768   3.487   0.628
11384TIP3    H234098   6.899   3.540   0.683
11385TIP3   OH234099   6.957   0.864   1.450
11385TIP3    H134100   6.863   0.863   1.463
11385TIP3    H234101   6.983   0.772   1.448
11386TIP3   OH234102   0.122   2.451   3.991
11386TIP3    H134103   0.072   2.435   4.071
11386TIP3    H234104   0.210   2.419   4.011
11387TIP3   OH234105   6.217   5.675   1.097
11387TIP3    H134106   6.240   5.584   1.078
11387TIP3    H234107   6.180   5.673   1.185
11388TIP3   OH234108   5.972   1.251   1.338
11388TIP3    H134109   5.969   1.287   1.249
11388TIP3    H234110   5.894   1.287   1.381
11389TIP3   OH234111   6.926   5.154   2.698
11389TIP3    H134112   6.965   5.072   2.729
11389TIP3    H234113   6.997   5.219   2.707
11390TIP3   OH234114   7.528   1.815   2.854
11390TIP3    H134115   7.526   1.900   2.809
11390TIP3    H234116   7.510   1.836   2.945
11391TIP3   OH234117   7.149   1.429   4.550
11391TIP3    H134118   7.221   1.430   4.613
11391TIP3    H234119   7.083   1.486   4.589
11392TIP3   OH234120   1.860   1.884   3.049
11392TIP3    H134121   1.924   1.890   3.120
11392TIP3    H234122   1.783   1.842   3.090
11393TIP3   OH234123   0.791   1.158   2.229
11393TIP3    H134124   0.758   1.070   2.210
11393TIP3    H234125   0.764   1.210   2.154
11394TIP3   OH234126   7.751   3.099   2.384
11394TIP3    H134127   7.846   3.103   2.381
11394TIP3    H234128   7.724   3.108   2.292
11395TIP3   OH234129   8.101   7.731   2.824
11395TIP3    H134130   8.165   7.766   2.762
11395TIP3    H234131   8.060   7.659   2.777
11396TIP3   OH234132   7.475   6.632   0.633
11396TIP3    H134133   7.562   6.614   0.669
11396TIP3    H234134   7.482   6.611   0.540
11397TIP3   OH234135   6.357   4.018   1.240
11397TIP3    H134136   6.273   3.974   1.254
11397TIP3    H234137   6.334   4.102   1.199
11398TIP3   OH234138   0.660   7.302   3.654
11398TIP3    H134139   0.702   7.298   3.568
11398TIP3    H234140   0.726   7.268   3.715
11399TIP3   OH234141   1.950   2.054   1.729
11399TIP3    H134142   2.034   2.094   1.705
11399TIP3    H234143   1.968   2.007   1.810
11400TIP3   OH234144   2.428   5.819   4.786
11400TIP3    H134145   2.350   5.809   4.731
11400TIP3    H234146   2.497   5.847   4.726
11401TIP3   OH234147   2.196   3.795   2.037
11401TIP3    H134148   2.265   3.765   1.977
11401TIP3    H234149   2.240   3.856   2.095
11402TIP3   OH234150   2.126   3.210   6.286
11402TIP3    H134151   2.169   3.286   6.245
11402TIP3    H234152   2.177   3.135   6.256
11403TIP3   OH234153   4.420   7.385   2.653
11403TIP3    H134154   4.388   7.390   2.743
11403TIP3    H234155   4.413   7.293   2.630
11404TIP3   OH234156   3.881   7.705   5.647
11404TIP3    H134157   3.825   7.701   5.725
11404TIP3    H234158   3.922   7.618   5.643
11405TIP3   OH234159   0.270   0.008   1.646
11405TIP3    H134160   0.239   0.010   1.556
11405TIP3    H234161   0.196  -0.028   1.696
11406TIP3   OH234162   1.131   4.326   5.110
11406TIP3    H134163   1.070   4.384   5.156
11406TIP3    H234164   1.080   4.291   5.037
11407TIP3   OH234165   5.717   6.394   0.385
11407TIP3    H134166   5.632   6.383   0.429
11407TIP3    H234167   5.729   6.489   0.380
11408TIP3   OH234168   4.409   3.490   0.990
11408TIP3    H134169   4.315   3.486   0.972
11408TIP3    H234170   4.429   3.409   1.036
11409TIP3   OH234171   5.490   4.912   1.722
11409TIP3    H134172   5.402   4.924   1.686
11409TIP3    H234173   5.478   4.912   1.817
11410TIP3   OH234174   0.585   4.572   4.477
11410TIP3    H134175   0.510   4.582   4.419
11410TIP3    H234176   0.572   4.638   4.545
11411TIP3   OH234177   4.788   5.894   5.435
11411TIP3    H134178   4.720   5.828   5.421
11411TIP3    H234179   4.870   5.845   5.439
11412TIP3   OH234180   1.195   2.117   2.630
11412TIP3    H134181   1.106   2.115   2.595
11412TIP3    H234182   1.242   2.177   2.573
11413TIP3   OH234183   7.431   5.334   6.276
11413TIP3    H134184   7.507   5.358   6.224
11413TIP3    H234185   7.419   5.240   6.262
11414TIP3   OH234186   0.431   1.079   4.764
11414TIP3    H134187   0.451   1.154   4.708
11414TIP3    H234188   0.367   1.112   4.826
11415TIP3   OH234189   0.175   7.771   0.824
11415TIP3    H134190   0.097   7.799   0.873
11415TIP3    H234191   0.246   7.824   0.860
11416TIP3   OH234192   1.221   7.511   6.599
11416TIP3    H134193   1.152   7.535   6.660
11416TIP3    H234194   1.293   7.570   6.619
11417TIP3   OH234195   4.761   3.135   6.715
11417TIP3    H134196   4.723   3.075   6.652
11417TIP3    H234197   4.820   3.190   6.663
11418TIP3   OH234198   4.520   5.921   4.840
11418TIP3    H134199   4.608   5.909   4.804
11418TIP3    H234200   4.533   5.930   4.934
11419TIP3   OH234201   0.632   7.656   4.948
11419TIP3    H134202   0.599   7.585   4.892
11419TIP3    H234203   0.586   7.734   4.918
11420TIP3   OH234204   0.308   5.801   0.500
11420TIP3    H134205   0.301   5.745   0.423
11420TIP3    H234206   0.240   5.867   0.487
11421TIP3   OH234207   5.827   3.360   5.408
11421TIP3    H134208   5.768   3.358   5.483
11421TIP3    H234209   5.863   3.272   5.402
11422TIP3   OH234210   2.921   6.425   4.481
11422TIP3    H134211   2.832   6.423   4.447
11422TIP3    H234212   2.916   6.374   4.563
11423TIP3   OH234213   3.935   5.851   5.549
11423TIP3    H134214   3.914   5.920   5.613
11423TIP3    H234215   3.940   5.771   5.601
11424TIP3   OH234216   4.251   0.612   6.766
11424TIP3    H134217   4.263   0.700   6.732
11424TIP3    H234218   4.329   0.564   6.736
11425TIP3   OH234219   4.319   0.636   1.558
11425TIP3    H134220   4.382   0.683   1.504
11425TIP3    H234221   4.300   0.557   1.508
11426TIP3   OH234222   0.581   6.213   5.040
11426TIP3    H134223   0.609   6.213   5.131
11426TIP3    H234224   0.659   6.241   4.991
11427TIP3   OH234225   6.019   3.792   4.204
11427TIP3    H134226   5.945   3.731   4.206
11427TIP3    H234227   5.987   3.866   4.153
11428TIP3   OH234228   1.152   0.324   3.339
11428TIP3    H134229   1.227   0.267   3.324
11428TIP3    H234230   1.181   0.386   3.405
11429TIP3   OH234231   3.399   7.477   1.866
11429TIP3    H134232   3.374   7.390   1.835
11429TIP3    H234233   3.492   7.468   1.889
11430TIP3   OH234234   4.873   0.692   2.775
11430TIP3    H134235   4.887   0.611   2.822
11430TIP3    H234236   4.960   0.729   2.763
11431TIP3   OH234237   1.425   0.509   4.127
11431TIP3    H134238   1.374   0.545   4.055
11431TIP3    H234239   1.419   0.414   4.116
11432TIP3   OH234240   5.532   5.506   3.066
11432TIP3    H134241   5.471   5.560   3.115
11432TIP3    H234242   5.578   5.454   3.132
11433TIP3   OH234243   1.562   4.346   2.593
11433TIP3    H134244   1.606   4.413   2.540
11433TIP3    H234245   1.555   4.270   2.535
11434TIP3   OH234246   6.546   1.626   4.081
11434TIP3    H134247   6.486   1.670   4.021
11434TIP3    H234248   6.617   1.595   4.025
11435TIP3   OH234249   0.895   4.016   0.958
11435TIP3    H134250   0.842   4.017   1.038
11435TIP3    H234251   0.965   4.080   0.974
11436TIP3   OH234252   7.016   7.340   0.130
11436TIP3    H134253   7.108   7.364   0.122
11436TIP3    H234254   7.002   7.331   0.225
11437TIP3   OH234255   0.493   4.348   0.705
11437TIP3    H134256   0.542   4.368   0.625
11437TIP3    H234257   0.469   4.434   0.740
11438TIP3   OH234258   1.487   0.597   0.110
11438TIP3    H134259   1.488   0.693   0.110
11438TIP3    H234260   1.416   0.573   0.051
11439TIP3   OH234261   0.523   2.272   6.545
11439TIP3    H134262   0.520   2.253   6.451
11439TIP3    H234263   0.565   2.358   6.550
11440TIP3   OH234264   1.980   1.682   5.971
11440TIP3    H134265   2.004   1.736   5.896
11440TIP3    H234266   2.038   1.710   6.041
11441TIP3   OH234267   3.440   4.128   5.422
11441TIP3    H134268   3.462   4.218   5.444
11441TIP3    H234269   3.410   4.132   5.331
11442TIP3   OH234270   2.254   7.185   0.858
11442TIP3    H134271   2.248   7.202   0.952
11442TIP3    H234272   2.174   7.221   0.822
11443TIP3   OH234273   7.056   2.900   4.127
11443TIP3    H134274   7.135   2.942   4.095
11443TIP3    H234275   6.984   2.955   4.093
11444TIP3   OH234276   6.114   1.584   5.833
11444TIP3    H134277   6.145   1.494   5.819
11444TIP3    H234278   6.018   1.576   5.833
11445TIP3   OH234279   7.262   1.133   1.000
11445TIP3    H134280   7.234   1.075   0.929
11445TIP3    H234281   7.182   1.148   1.051
11446TIP3   OH234282   6.797   0.996   2.630
11446TIP3    H134283   6.745   1.061   2.677
11446TIP3    H234284   6.885   1.003   2.667
11447TIP3   OH234285   7.012   0.582   1.432
11447TIP3    H134286   6.982   0.491   1.440
11447TIP3    H234287   7.089   0.577   1.376
11448TIP3   OH234288   6.998   4.054   5.830
11448TIP3    H134289   7.002   4.137   5.783
11448TIP3    H234290   6.936   4.069   5.902
11449TIP3   OH234291   3.667   2.777   3.629
11449TIP3    H134292   3.633   2.840   3.565
11449TIP3    H234293   3.721   2.831   3.688
11450TIP3   OH234294   3.016   5.819   0.088
11450TIP3    H134295   3.082   5.888   0.099
11450TIP3    H234296   2.939   5.866   0.055
11451TIP3   OH234297   6.318   4.429   2.953
11451TIP3    H134298   6.385   4.495   2.971
11451TIP3    H234299   6.362   4.345   2.967
11452TIP3   OH234300   7.653   7.343   2.585
11452TIP3    H134301   7.604   7.425   2.577
11452TIP3    H234302   7.598   7.278   2.542
11453TIP3   OH234303   0.311   1.902   4.182
11453TIP3    H134304   0.318   1.839   4.253
11453TIP3    H234305   0.339   1.854   4.104
11454TIP3   OH234306   7.624   0.284   3.635
11454TIP3    H134307   7.572   0.349   3.587
11454TIP3    H234308   7.660   0.227   3.567
11455TIP3   OH234309   6.246   0.286   1.826
11455TIP3    H134310   6.283   0.374   1.819
11455TIP3    H234311   6.290   0.236   1.757
11456TIP3   OH234312   5.801   7.790   1.371
11456TIP3    H134313   5.753   7.854   1.320
11456TIP3    H234314   5.868   7.756   1.311
11457TIP3   OH234315   7.013   2.391   6.460
11457TIP3    H134316   7.030   2.299   6.478
11457TIP3    H234317   7.068   2.438   6.523
11458TIP3   OH234318   6.722   6.954   5.274
11458TIP3    H134319   6.633   6.920   5.283
11458TIP3    H234320   6.770   6.884   5.228
11459TIP3   OH234321   3.139   4.849   2.441
11459TIP3    H134322   3.084   4.912   2.394
11459TIP3    H234323   3.204   4.903   2.486
11460TIP3   OH234324   8.082   5.597   1.075
11460TIP3    H134325   8.075   5.537   1.001
11460TIP3    H234326   8.176   5.603   1.093
11461TIP3   OH234327   0.931   3.214   0.155
11461TIP3    H134328   0.902   3.294   0.110
11461TIP3    H234329   0.850   3.171   0.182
11462TIP3   OH234330   7.438   2.323   6.084
11462TIP3    H134331   7.499   2.279   6.143
11462TIP3    H234332   7.469   2.413   6.080
11463TIP3   OH234333   5.821   2.466   2.069
11463TIP3    H134334   5.757   2.536   2.055
11463TIP3    H234335   5.843   2.436   1.981
11464TIP3   OH234336   0.963   4.192   5.445
11464TIP3    H134337   0.910   4.111   5.446
11464TIP3    H234338   1.026   4.181   5.516
11465TIP3   OH234339   1.378   2.485   1.213
11465TIP3    H134340   1.352   2.555   1.153
11465TIP3    H234341   1.467   2.463   1.187
11466TIP3   OH234342   2.010   5.675   0.009
11466TIP3    H134343   1.968   5.589   0.016
11466TIP3    H234344   2.101   5.660   0.036
11467TIP3   OH234345   3.835   2.390   5.614
11467TIP3    H134346   3.924   2.360   5.634
11467TIP3    H234347   3.847   2.474   5.570
11468TIP3   OH234348   3.270   6.038   2.726
11468TIP3    H134349   3.240   5.947   2.729
11468TIP3    H234350   3.272   6.066   2.818
11469TIP3   OH234351   2.674   2.873   2.724
11469TIP3    H134352   2.686   2.949   2.668
11469TIP3    H234353   2.704   2.901   2.811
11470TIP3   OH234354   3.728   2.364   1.571
11470TIP3    H134355   3.635   2.341   1.574
11470TIP3    H234356   3.736   2.427   1.500
11471TIP3   OH234357   4.245   0.997   4.101
11471TIP3    H134358   4.206   1.064   4.045
11471TIP3    H234359   4.171   0.942   4.127
11472TIP3   OH234360   2.722   3.992   3.681
11472TIP3    H134361   2.673   3.924   3.635
11472TIP3    H234362   2.785   4.024   3.616
11473TIP3   OH234363   3.308   6.782   1.085
11473TIP3    H134364   3.249   6.756   1.155
11473TIP3    H234365   3.263   6.854   1.041
11474TIP3   OH234366   7.255   2.228   4.154
11474TIP3    H134367   7.249   2.179   4.236
11474TIP3    H234368   7.309   2.304   4.176
11475TIP3   OH234369   7.370   6.504   0.927
11475TIP3    H134370   7.383   6.462   0.843
11475TIP3    H234371   7.393   6.438   0.992
11476TIP3   OH234372   1.480   6.894   0.536
11476TIP3    H134373   1.422   6.964   0.507
11476TIP3    H234374   1.446   6.815   0.494
11477TIP3   OH234375   7.491   0.430   0.480
11477TIP3    H134376   7.463   0.343   0.506
11477TIP3    H234377   7.409   0.476   0.460
11478TIP3   OH234378   1.484   5.173   1.443
11478TIP3    H134379   1.438   5.230   1.381
11478TIP3    H234380   1.481   5.086   1.402
11479TIP3   OH234381   5.480   6.224   5.033
11479TIP3    H134382   5.434   6.153   5.079
11479TIP3    H234383   5.410   6.269   4.985
11480TIP3   OH234384   2.925   0.579   2.128
11480TIP3    H134385   2.937   0.672   2.108
11480TIP3    H234386   2.905   0.577   2.221
11481TIP3   OH234387   8.338   4.278   3.313
11481TIP3    H134388   8.278   4.307   3.382
11481TIP3    H234389   8.284   4.274   3.234
11482TIP3   OH234390   3.918   7.470   4.782
11482TIP3    H134391   3.964   7.386   4.789
11482TIP3    H234392   3.983   7.529   4.744
11483TIP3   OH234393   7.932   4.996   2.434
11483TIP3    H134394   7.968   5.079   2.406
11483TIP3    H234395   7.936   4.940   2.356
11484TIP3   OH234396   2.040   2.972   4.241
11484TIP3    H134397   2.081   3.027   4.308
11484TIP3    H234398   1.975   2.921   4.289
11485TIP3   OH234399   7.172   5.922   1.984
11485TIP3    H134400   7.234   5.861   2.024
11485TIP3    H234401   7.226   5.990   1.944
11486TIP3   OH234402   1.994   0.081   3.007
11486TIP3    H134403   2.054   0.127   2.950
11486TIP3    H234404   1.959   0.010   2.953
11487TIP3   OH234405   0.619   0.264   6.343
11487TIP3    H134406   0.589   0.354   6.360
11487TIP3    H234407   0.714   0.268   6.351
11488TIP3   OH234408   2.273   5.118   0.967
11488TIP3    H134409   2.288   5.027   0.991
11488TIP3    H234410   2.360   5.158   0.966
11489TIP3   OH234411   0.392   3.154   3.935
11489TIP3    H134412   0.347   3.118   3.858
11489TIP3    H234413   0.463   3.206   3.899
11490TIP3   OH234414   0.290   6.287   3.779
11490TIP3    H134415   0.228   6.337   3.726
11490TIP3    H234416   0.346   6.243   3.715
11491TIP3   OH234417   5.473   2.471   5.131
11491TIP3    H134418   5.422   2.404   5.176
11491TIP3    H234419   5.472   2.546   5.191
11492TIP3   OH234420   4.564   1.907   2.253
11492TIP3    H134421   4.468   1.912   2.253
11492TIP3    H234422   4.591   1.965   2.324
11493TIP3   OH234423   8.295   1.780   3.268
11493TIP3    H134424   8.349   1.708   3.235
11493TIP3    H234425   8.205   1.747   3.264
11494TIP3   OH234426   5.518   7.159   0.758
11494TIP3    H134427   5.442   7.217   0.761
11494TIP3    H234428   5.482   7.072   0.774
11495TIP3   OH234429   0.402   2.213   5.663
11495TIP3    H134430   0.320   2.192   5.618
11495TIP3    H234431   0.457   2.136   5.649
11496TIP3   OH234432   0.534   4.168   1.640
11496TIP3    H134433   0.569   4.239   1.693
11496TIP3    H234434   0.554   4.192   1.550
11497TIP3   OH234435   3.820   3.847   4.413
11497TIP3    H134436   3.913   3.866   4.424
11497TIP3    H234437   3.782   3.930   4.384
11498TIP3   OH234438   4.749   3.177   5.773
11498TIP3    H134439   4.821   3.138   5.722
11498TIP3    H234440   4.787   3.191   5.860
11499TIP3   OH234441   6.713   4.378   6.210
11499TIP3    H134442   6.800   4.390   6.249
11499TIP3    H234443   6.730   4.334   6.127
11500TIP3   OH234444   6.766   2.468   5.987
11500TIP3    H134445   6.772   2.384   6.031
11500TIP3    H234446   6.831   2.523   6.030
11501TIP3   OH234447   4.871   4.288   1.531
11501TIP3    H134448   4.821   4.346   1.473
11501TIP3    H234449   4.901   4.218   1.473
11502TIP3   OH234450   5.172   1.411   3.576
11502TIP3    H134451   5.088   1.398   3.534
11502TIP3    H234452   5.153   1.460   3.656
11503TIP3   OH234453   2.092   4.036   4.734
11503TIP3    H134454   2.041   4.115   4.755
11503TIP3    H234455   2.037   3.988   4.672
11504TIP3   OH234456   3.316   5.526   6.498
11504TIP3    H134457   3.371   5.573   6.436
11504TIP3    H234458   3.272   5.595   6.548
11505TIP3   OH234459   7.901   2.437   6.242
11505TIP3    H134460   7.906   2.395   6.156
11505TIP3    H234461   7.867   2.368   6.299
11506TIP3   OH234462   6.210   0.614   3.824
11506TIP3    H134463   6.141   0.679   3.809
11506TIP3    H234464   6.176   0.557   3.892
11507TIP3   OH234465   1.619   3.372   3.663
11507TIP3    H134466   1.635   3.278   3.674
11507TIP3    H234467   1.561   3.395   3.736
11508TIP3   OH234468   7.401   5.144   3.384
11508TIP3    H134469   7.477   5.145   3.441
11508TIP3    H234470   7.378   5.236   3.372
11509TIP3   OH234471   7.733   5.850   0.355
11509TIP3    H134472   7.725   5.863   0.261
11509TIP3    H234473   7.689   5.767   0.372
11510TIP3   OH234474   2.338   1.022   6.033
11510TIP3    H134475   2.322   0.987   6.121
11510TIP3    H234476   2.362   1.113   6.048
11511TIP3   OH234477   0.299   5.190   3.587
11511TIP3    H134478   0.302   5.276   3.546
11511TIP3    H234479   0.353   5.135   3.530
11512TIP3   OH234480   6.534   6.394   5.492
11512TIP3    H134481   6.538   6.311   5.444
11512TIP3    H234482   6.520   6.460   5.425
11513TIP3   OH234483   4.715   6.556   5.785
11513TIP3    H134484   4.807   6.573   5.808
11513TIP3    H234485   4.719   6.526   5.694
11514TIP3   OH234486   3.654   6.727   4.982
11514TIP3    H134487   3.619   6.638   4.981
11514TIP3    H234488   3.629   6.764   4.898
11515TIP3   OH234489   3.949   5.793   2.486
11515TIP3    H134490   3.905   5.876   2.467
11515TIP3    H234491   3.955   5.749   2.402
11516TIP3   OH234492   3.924   6.886   3.913
11516TIP3    H134493   3.966   6.960   3.869
11516TIP3    H234494   3.992   6.849   3.968
11517TIP3   OH234495   8.210   2.167   5.558
11517TIP3    H134496   8.199   2.136   5.468
11517TIP3    H234497   8.121   2.185   5.588
11518TIP3   OH234498   4.604   1.675   4.919
11518TIP3    H134499   4.565   1.597   4.959
11518TIP3    H234500   4.696   1.652   4.906
11519TIP3   OH234501   5.335   4.908   1.407
11519TIP3    H134502   5.298   4.820   1.417
11519TIP3    H234503   5.428   4.893   1.391
11520TIP3   OH234504   6.829   6.352   5.349
11520TIP3    H134505   6.760   6.417   5.347
11520TIP3    H234506   6.885   6.378   5.422
11521TIP3   OH234507   3.962   0.768   3.134
11521TIP3    H134508   3.944   0.841   3.193
11521TIP3    H234509   3.876   0.728   3.118
11522TIP3   OH234510   6.323   7.708   6.685
11522TIP3    H134511   6.253   7.697   6.621
11522TIP3    H234512   6.371   7.626   6.683
11523TIP3   OH234513   1.480   6.834   2.441
11523TIP3    H134514   1.522   6.751   2.420
11523TIP3    H234515   1.518   6.859   2.525
11524TIP3   OH234516   4.889   1.793   4.210
11524TIP3    H134517   4.885   1.705   4.172
11524TIP3    H234518   4.966   1.834   4.169
11525TIP3   OH234519   7.207   1.590   5.391
11525TIP3    H134520   7.181   1.680   5.409
11525TIP3    H234521   7.303   1.592   5.392
11526TIP3   OH234522   2.445   5.662   3.105
11526TIP3    H134523   2.438   5.757   3.090
11526TIP3    H234524   2.525   5.636   3.058
11527TIP3   OH234525   6.188   6.623   5.447
11527TIP3    H134526   6.118   6.689   5.439
11527TIP3    H234527   6.166   6.557   5.382
11528TIP3   OH234528   7.614   5.678   4.522
11528TIP3    H134529   7.571   5.626   4.590
11528TIP3    H234530   7.641   5.759   4.567
11529TIP3   OH234531   5.636   0.366   2.010
11529TIP3    H134532   5.592   0.432   2.063
11529TIP3    H234533   5.688   0.315   2.072
11530TIP3   OH234534   5.669   5.228   5.501
11530TIP3    H134535   5.639   5.138   5.487
11530TIP3    H234536   5.728   5.245   5.427
11531TIP3   OH234537   7.629   0.729   6.673
11531TIP3    H134538   7.692   0.677   6.624
11531TIP3    H234539   7.550   0.730   6.619
11532TIP3   OH234540   7.193   4.416   1.988
11532TIP3    H134541   7.145   4.426   2.071
11532TIP3    H234542   7.137   4.359   1.935
11533TIP3   OH234543   1.637   6.503   2.146
11533TIP3    H134544   1.664   6.479   2.057
11533TIP3    H234545   1.571   6.571   2.133
11534TIP3   OH234546   8.162   6.142   4.024
11534TIP3    H134547   8.176   6.183   4.109
11534TIP3    H234548   8.189   6.051   4.037
11535TIP3   OH234549   5.422   6.919   3.509
11535TIP3    H134550   5.353   6.890   3.449
11535TIP3    H234551   5.456   6.999   3.470
11536TIP3   OH234552   0.591   0.334   3.289
11536TIP3    H134553   0.545   0.417   3.298
11536TIP3    H234554   0.590   0.315   3.195
11537TIP3   OH234555   7.032   4.902   2.432
11537TIP3    H134556   6.964   4.945   2.381
11537TIP3    H234557   7.109   4.903   2.376
11538TIP3   OH234558   5.952   6.313   1.508
11538TIP3    H134559   6.029   6.258   1.489
11538TIP3    H234560   5.879   6.264   1.471
11539TIP3   OH234561   7.294   2.348   0.293
11539TIP3    H134562   7.381   2.376   0.321
11539TIP3    H234563   7.242   2.428   0.293
11540TIP3   OH234564   4.680   2.131   6.280
11540TIP3    H134565   4.623   2.114   6.355
11540TIP3    H234566   4.733   2.052   6.271
11541TIP3   OH234567   0.772   4.961   5.493
11541TIP3    H134568   0.831   5.018   5.443
11541TIP3    H234569   0.779   4.991   5.583
11542TIP3   OH234570   8.095   7.575   2.291
11542TIP3    H134571   8.165   7.543   2.348
11542TIP3    H234572   8.018   7.525   2.318
11543TIP3   OH234573   2.307   6.897   2.113
11543TIP3    H134574   2.235   6.959   2.104
11543TIP3    H234575   2.351   6.898   2.029
11544TIP3   OH234576   1.754   5.177   3.828
11544TIP3    H134577   1.814   5.240   3.786
11544TIP3    H234578   1.809   5.102   3.850
11545TIP3   OH234579   6.010   0.697   6.147
11545TIP3    H134580   6.049   0.647   6.219
11545TIP3    H234581   5.974   0.775   6.188
11546TIP3   OH234582   4.486   6.136   2.664
11546TIP3    H134583   4.429   6.210   2.643
11546TIP3    H234584   4.519   6.106   2.579
11547TIP3   OH234585   6.367   1.956   2.973
11547TIP3    H134586   6.449   1.998   2.948
11547TIP3    H234587   6.391   1.865   2.991
11548TIP3   OH234588   7.282   7.648   2.417
11548TIP3    H134589   7.298   7.632   2.324
11548TIP3    H234590   7.278   7.561   2.456
11549TIP3   OH234591   4.398   2.613   1.200
11549TIP3    H134592   4.382   2.688   1.143
11549TIP3    H234593   4.406   2.539   1.141
11550TIP3   OH234594   5.046   4.435   3.535
11550TIP3    H134595   5.077   4.410   3.622
11550TIP3    H234596   4.950   4.433   3.542
11551TIP3   OH234597   0.320   3.665   0.301
11551TIP3    H134598   0.306   3.646   0.394
11551TIP3    H234599   0.290   3.755   0.291
11552TIP3   OH234600   0.906   0.165   6.525
11552TIP3    H134601   0.959   0.207   6.593
11552TIP3    H234602   0.840   0.115   6.572
11553TIP3   OH234603   6.427   2.549   6.666
11553TIP3    H134604   6.483   2.624   6.645
11553TIP3    H234605   6.473   2.474   6.629
11554TIP3   OH234606   2.244   5.022   6.702
11554TIP3    H134607   2.176   5.044   6.766
11554TIP3    H234608   2.313   4.980   6.753
11555TIP3   OH234609   8.195   4.743   4.875
11555TIP3    H134610   8.212   4.737   4.781
11555TIP3    H234611   8.278   4.721   4.916
11556TIP3   OH234612   7.257   7.193   5.324
11556TIP3    H134613   7.189   7.127   5.320
11556TIP3    H234614   7.250   7.239   5.240
11557TIP3   OH234615   5.365   2.229   1.514
11557TIP3    H134616   5.369   2.138   1.542
11557TIP3    H234617   5.271   2.246   1.503
11558TIP3   OH234618   2.783   1.255   1.969
11558TIP3    H134619   2.697   1.213   1.975
11558TIP3    H234620   2.764   1.344   1.940
11559TIP3   OH234621   5.455   7.198   6.141
11559TIP3    H134622   5.361   7.182   6.132
11559TIP3    H234623   5.494   7.153   6.065
11560TIP3   OH234624   2.686   1.262   3.536
11560TIP3    H134625   2.706   1.345   3.493
11560TIP3    H234626   2.717   1.195   3.475
11561TIP3   OH234627   3.973   0.547   0.719
11561TIP3    H134628   4.043   0.503   0.768
11561TIP3    H234629   4.017   0.621   0.676
11562TIP3   OH234630   4.131   7.766   4.155
11562TIP3    H134631   4.048   7.793   4.195
11562TIP3    H234632   4.122   7.671   4.143
11563TIP3   OH234633   4.895   2.464   6.184
11563TIP3    H134634   4.930   2.509   6.107
11563TIP3    H234635   4.929   2.375   6.177
11564TIP3   OH234636   3.461   0.885   5.555
11564TIP3    H134637   3.370   0.899   5.529
11564TIP3    H234638   3.476   0.791   5.545
11565TIP3   OH234639   7.433   3.901   0.046
11565TIP3    H134640   7.468   3.876  -0.039
11565TIP3    H234641   7.376   3.975   0.028
11566TIP3   OH234642   8.053   2.816   4.168
11566TIP3    H134643   8.117   2.878   4.203
11566TIP3    H234644   7.982   2.870   4.135
11567TIP3   OH234645   0.448   0.312   4.093
11567TIP3    H134646   0.489   0.226   4.090
11567TIP3    H234647   0.522   0.373   4.092
11568TIP3   OH234648   6.935   3.400   6.144
11568TIP3    H134649   6.954   3.306   6.138
11568TIP3    H234650   6.857   3.412   6.089
11569TIP3   OH234651   8.159   4.032   3.251
11569TIP3    H134652   8.071   4.060   3.227
11569TIP3    H234653   8.189   4.099   3.313
11570TIP3   OH234654   4.350   4.688   2.894
11570TIP3    H134655   4.317   4.598   2.882
11570TIP3    H234656   4.394   4.686   2.979
11571TIP3   OH234657   3.575   6.553   3.252
11571TIP3    H134658   3.639   6.603   3.203
11571TIP3    H234659   3.593   6.574   3.344
11572TIP3   OH234660   7.252   4.736   4.022
11572TIP3    H134661   7.310   4.767   3.953
11572TIP3    H234662   7.296   4.758   4.104
11573TIP3   OH234663   5.639   0.043   0.387
11573TIP3    H134664   5.562   0.016   0.439
11573TIP3    H234665   5.699  -0.031   0.395
11574TIP3   OH234666   6.035   1.686   0.413
11574TIP3    H134667   6.032   1.754   0.346
11574TIP3    H234668   6.101   1.624   0.382
11575TIP3   OH234669   3.029   7.444   2.702
11575TIP3    H134670   2.960   7.412   2.760
11575TIP3    H234671   3.077   7.365   2.676
11576TIP3   OH234672   0.608   6.524   3.777
11576TIP3    H134673   0.578   6.471   3.851
11576TIP3    H234674   0.678   6.473   3.737
11577TIP3   OH234675   1.101   1.524   5.267
11577TIP3    H134676   1.068   1.550   5.181
11577TIP3    H234677   1.196   1.537   5.261
11578TIP3   OH234678   7.277   0.754   5.003
11578TIP3    H134679   7.230   0.827   5.044
11578TIP3    H234680   7.369   0.771   5.021
11579TIP3   OH234681   7.765   7.412   5.703
11579TIP3    H134682   7.674   7.443   5.703
11579TIP3    H234683   7.762   7.330   5.751
11580TIP3   OH234684   5.681   1.912   0.436
11580TIP3    H134685   5.710   1.895   0.526
11580TIP3    H234686   5.585   1.912   0.442
11581TIP3   OH234687   7.345   4.854   5.552
11581TIP3    H134688   7.343   4.892   5.640
11581TIP3    H234689   7.270   4.796   5.550
11582TIP3   OH234690   2.497   6.161   1.143
11582TIP3    H134691   2.417   6.111   1.124
11582TIP3    H234692   2.469   6.225   1.208
11583TIP3   OH234693   7.781   2.230   2.259
11583TIP3    H134694   7.851   2.271   2.208
11583TIP3    H234695   7.703   2.236   2.204
11584TIP3   OH234696   1.385   0.153   2.127
11584TIP3    H134697   1.340   0.069   2.127
11584TIP3    H234698   1.330   0.211   2.180
11585TIP3   OH234699   6.033   2.544   0.166
11585TIP3    H134700   6.091   2.597   0.220
11585TIP3    H234701   5.966   2.605   0.134
11586TIP3   OH234702   7.830   7.653   0.596
11586TIP3    H134703   7.750   7.602   0.605
11586TIP3    H234704   7.898   7.598   0.634
11587TIP3   OH234705   2.958   3.032   4.198
11587TIP3    H134706   2.940   3.013   4.106
11587TIP3    H234707   3.053   3.036   4.203
11588TIP3   OH234708   2.226   2.600   2.642
11588TIP3    H134709   2.213   2.665   2.711
11588TIP3    H234710   2.318   2.610   2.617
11589TIP3   OH234711   8.012   5.679   3.358
11589TIP3    H134712   8.083   5.682   3.293
11589TIP3    H234713   8.033   5.749   3.419
11590TIP3   OH234714   4.677   5.237   3.733
11590TIP3    H134715   4.582   5.245   3.725
11590TIP3    H234716   4.710   5.326   3.724
11591TIP3   OH234717   7.376   2.022   5.436
11591TIP3    H134718   7.361   2.074   5.358
11591TIP3    H234719   7.298   1.968   5.445
11592TIP3   OH234720   2.472   5.328   3.104
11592TIP3    H134721   2.428   5.362   3.183
11592TIP3    H234722   2.545   5.388   3.090
11593TIP3   OH234723   8.126   4.402   6.606
11593TIP3    H134724   8.163   4.319   6.637
11593TIP3    H234725   8.197   4.443   6.558
11594TIP3   OH234726   1.034   1.888   4.530
11594TIP3    H134727   1.069   1.840   4.606
11594TIP3    H234728   1.037   1.824   4.459
11595TIP3   OH234729   1.002   7.245   2.486
11595TIP3    H134730   0.975   7.307   2.553
11595TIP3    H234731   1.007   7.297   2.406
11596TIP3   OH234732   4.497   1.772   2.631
11596TIP3    H134733   4.449   1.740   2.554
11596TIP3    H234734   4.430   1.812   2.686
11597TIP3   OH234735   4.539   5.280   5.257
11597TIP3    H134736   4.619   5.308   5.213
11597TIP3    H234737   4.469   5.301   5.196
11598TIP3   OH234738   6.434   6.376   6.126
11598TIP3    H134739   6.503   6.436   6.156
11598TIP3    H234740   6.461   6.351   6.038
11599TIP3   OH234741   8.254   2.109   2.566
11599TIP3    H134742   8.269   2.024   2.525
11599TIP3    H234743   8.284   2.099   2.656
11600TIP3   OH234744   7.266   4.776   2.098
11600TIP3    H134745   7.309   4.761   2.183
11600TIP3    H234746   7.301   4.706   2.042
11601TIP3   OH234747   7.090   4.913   4.157
11601TIP3    H134748   7.016   4.905   4.096
11601TIP3    H234749   7.150   4.844   4.130
11602TIP3   OH234750   5.297   4.762   2.962
11602TIP3    H134751   5.247   4.692   2.920
11602TIP3    H234752   5.242   4.789   3.036
11603TIP3   OH234753   6.953   6.446   4.634
11603TIP3    H134754   6.933   6.358   4.666
11603TIP3    H234755   7.048   6.448   4.627
11604TIP3   OH234756   5.423   7.027   4.344
11604TIP3    H134757   5.487   6.974   4.392
11604TIP3    H234758   5.395   7.093   4.408
11605TIP3   OH234759   3.143   7.185   0.569
11605TIP3    H134760   3.208   7.115   0.570
11605TIP3    H234761   3.099   7.176   0.484
11606TIP3   OH234762   7.154   7.202   0.343
11606TIP3    H134763   7.182   7.128   0.289
11606TIP3    H234764   7.234   7.233   0.385
11607TIP3   OH234765   7.530   6.400   2.057
11607TIP3    H134766   7.548   6.341   1.983
11607TIP3    H234767   7.434   6.405   2.061
11608TIP3   OH234768   4.650   4.988   1.120
11608TIP3    H134769   4.558   5.012   1.132
11608TIP3    H234770   4.648   4.916   1.058
11609TIP3   OH234771   7.825   6.710   0.812
11609TIP3    H134772   7.734   6.685   0.830
11609TIP3    H234773   7.856   6.644   0.750
11610TIP3   OH234774   1.051   3.604   3.537
11610TIP3    H134775   1.083   3.613   3.447
11610TIP3    H234776   0.962   3.571   3.527
11611TIP3   OH234777   7.052   7.471   1.900
11611TIP3    H134778   7.101   7.391   1.918
11611TIP3    H234779   6.989   7.447   1.833
11612TIP3   OH234780   2.984   1.751   4.176
11612TIP3    H134781   2.977   1.675   4.234
11612TIP3    H234782   2.957   1.719   4.090
11613TIP3   OH234783   6.426   1.294   5.458
11613TIP3    H134784   6.431   1.312   5.552
11613TIP3    H234785   6.476   1.366   5.418
11614TIP3   OH234786   1.889   6.054   5.834
11614TIP3    H134787   1.938   6.128   5.799
11614TIP3    H234788   1.945   6.019   5.904
11615TIP3   OH234789   6.785   6.793   1.479
11615TIP3    H134790   6.778   6.835   1.565
11615TIP3    H234791   6.762   6.702   1.494
11616TIP3   OH234792   7.891   7.031   6.259
11616TIP3    H134793   7.814   7.078   6.227
11616TIP3    H234794   7.856   6.965   6.318
11617TIP3   OH234795   2.869   6.717   4.090
11617TIP3    H134796   2.935   6.695   4.156
11617TIP3    H234797   2.816   6.786   4.130
11618TIP3   OH234798   7.288   0.206   2.644
11618TIP3    H134799   7.346   0.240   2.576
11618TIP3    H234800   7.237   0.282   2.672
11619TIP3   OH234801   0.958   5.972   1.866
11619TIP3    H134802   0.950   5.998   1.958
11619TIP3    H234803   0.883   5.915   1.850
11620TIP3   OH234804   4.431   1.962   0.986
11620TIP3    H134805   4.354   1.948   1.043
11620TIP3    H234806   4.503   1.977   1.048
11621TIP3   OH234807   5.808   5.559   0.755
11621TIP3    H134808   5.771   5.639   0.717
11621TIP3    H234809   5.887   5.543   0.702
11622TIP3   OH234810   2.919   1.674   5.439
11622TIP3    H134811   2.977   1.703   5.369
11622TIP3    H234812   2.878   1.595   5.404
11623TIP3   OH234813   5.184   4.907   6.127
11623TIP3    H134814   5.250   4.971   6.099
11623TIP3    H234815   5.191   4.906   6.223
11624TIP3   OH234816   8.097   7.381   3.476
11624TIP3    H134817   8.121   7.289   3.464
11624TIP3    H234818   8.055   7.405   3.394
11625TIP3   OH234819   7.483   7.422   1.895
11625TIP3    H134820   7.505   7.497   1.839
11625TIP3    H234821   7.549   7.424   1.964
11626TIP3   OH234822   4.244   7.555   2.230
11626TIP3    H134823   4.283   7.577   2.315
11626TIP3    H234824   4.157   7.596   2.233
11627TIP3   OH234825   2.737   3.552   4.276
11627TIP3    H134826   2.805   3.583   4.216
11627TIP3    H234827   2.772   3.570   4.363
11628TIP3   OH234828   8.095   1.011   1.419
11628TIP3    H134829   8.111   0.941   1.483
11628TIP3    H234830   8.013   1.051   1.448
11629TIP3   OH234831   0.352   1.284   5.552
11629TIP3    H134832   0.437   1.321   5.526
11629TIP3    H234833   0.336   1.321   5.639
11630TIP3   OH234834   2.150   4.217   0.138
11630TIP3    H134835   2.102   4.297   0.116
11630TIP3    H234836   2.082   4.156   0.169
11631TIP3   OH234837   0.590   4.779   1.393
11631TIP3    H134838   0.589   4.777   1.489
11631TIP3    H234839   0.630   4.696   1.368
11632TIP3   OH234840   6.626   4.408   2.012
11632TIP3    H134841   6.561   4.337   2.006
11632TIP3    H234842   6.578   4.486   1.985
11633TIP3   OH234843   5.695   7.475   3.255
11633TIP3    H134844   5.735   7.561   3.243
11633TIP3    H234845   5.704   7.433   3.169
11634TIP3   OH234846   2.510   0.862   0.962
11634TIP3    H134847   2.483   0.954   0.958
11634TIP3    H234848   2.600   0.862   0.929
11635TIP3   OH234849   0.153   2.720   6.332
11635TIP3    H134850   0.154   2.634   6.290
11635TIP3    H234851   0.243   2.752   6.322
11636TIP3   OH234852   7.610   4.662   3.038
11636TIP3    H134853   7.619   4.682   3.131
11636TIP3    H234854   7.686   4.607   3.018
11637TIP3   OH234855   2.642   4.961   5.337
11637TIP3    H134856   2.685   4.923   5.414
11637TIP3    H234857   2.711   5.011   5.293
11638TIP3   OH234858   2.208   1.558   4.901
11638TIP3    H134859   2.219   1.649   4.926
11638TIP3    H234860   2.195   1.511   4.983
11639TIP3   OH234861   1.795   6.117   2.936
11639TIP3    H134862   1.823   6.064   2.862
11639TIP3    H234863   1.704   6.140   2.915
11640TIP3   OH234864   3.174   2.519   0.218
11640TIP3    H134865   3.090   2.486   0.249
11640TIP3    H234866   3.167   2.614   0.225
11641TIP3   OH234867   6.752   2.192   5.996
11641TIP3    H134868   6.801   2.170   5.917
11641TIP3    H234869   6.738   2.108   6.039
11642TIP3   OH234870   0.413   5.933   0.944
11642TIP3    H134871   0.329   5.969   0.917
11642TIP3    H234872   0.453   5.902   0.863
11643TIP3   OH234873   6.553   3.320   6.609
11643TIP3    H134874   6.548   3.307   6.515
11643TIP3    H234875   6.571   3.233   6.645
11644TIP3   OH234876   2.992   6.827   1.428
11644TIP3    H134877   3.002   6.835   1.333
11644TIP3    H234878   3.075   6.859   1.464
11645TIP3   OH234879   4.162   3.017   3.355
11645TIP3    H134880   4.196   2.938   3.314
11645TIP3    H234881   4.118   2.987   3.434
11646TIP3   OH234882   6.457   0.041   4.697
11646TIP3    H134883   6.517  -0.012   4.645
11646TIP3    H234884   6.465   0.006   4.786
11647TIP3   OH234885   7.234   5.690   6.476
11647TIP3    H134886   7.242   5.745   6.554
11647TIP3    H234887   7.151   5.716   6.437
11648TIP3   OH234888   6.056   4.720   6.205
11648TIP3    H134889   6.073   4.813   6.221
11648TIP3    H234890   6.066   4.710   6.110
11649TIP3   OH234891   0.197   4.677   5.820
11649TIP3    H134892   0.194   4.770   5.843
11649TIP3    H234893   0.141   4.669   5.743
11650TIP3   OH234894   3.154   2.674   2.804
11650TIP3    H134895   3.212   2.675   2.880
11650TIP3    H234896   3.193   2.737   2.743
11651TIP3   OH234897   7.249   6.717   0.764
11651TIP3    H134898   7.333   6.698   0.724
11651TIP3    H234899   7.236   6.647   0.828
11652TIP3   OH234900   2.837   7.158   0.460
11652TIP3    H134901   2.862   7.137   0.550
11652TIP3    H234902   2.857   7.078   0.411
11653TIP3   OH234903   1.336   4.438   3.876
11653TIP3    H134904   1.428   4.444   3.901
11653TIP3    H234905   1.317   4.344   3.875
11654TIP3   OH234906   3.398   7.132   6.685
11654TIP3    H134907   3.335   7.073   6.727
11654TIP3    H234908   3.348   7.177   6.618
11655TIP3   OH234909   5.723   2.608   1.141
11655TIP3    H134910   5.728   2.530   1.085
11655TIP3    H234911   5.630   2.617   1.161
11656TIP3   OH234912   2.535   0.045   1.742
11656TIP3    H134913   2.501  -0.011   1.812
11656TIP3    H234914   2.537   0.133   1.780
11657TIP3   OH234915   6.696   7.190   1.631
11657TIP3    H134916   6.645   7.163   1.708
11657TIP3    H234917   6.669   7.130   1.562
11658TIP3   OH234918   1.730   1.224   5.984
11658TIP3    H134919   1.700   1.266   6.064
11658TIP3    H234920   1.742   1.297   5.922
11659TIP3   OH234921   8.202   7.773   1.524
11659TIP3    H134922   8.112   7.749   1.504
11659TIP3    H234923   8.195   7.839   1.592
11660TIP3   OH234924   0.638   1.549   4.701
11660TIP3    H134925   0.594   1.615   4.754
11660TIP3    H234926   0.652   1.592   4.616
11661TIP3   OH234927   3.219   0.563   1.193
11661TIP3    H134928   3.274   0.502   1.243
11661TIP3    H234929   3.185   0.511   1.120
11662TIP3   OH234930   3.983   5.924   5.282
11662TIP3    H134931   4.046   5.993   5.301
11662TIP3    H234932   3.960   5.889   5.368
11663TIP3   OH234933   7.997   3.869   1.022
11663TIP3    H134934   8.071   3.852   1.080
11663TIP3    H234935   7.920   3.856   1.078
11664TIP3   OH234936   3.392   4.860   6.599
11664TIP3    H134937   3.481   4.877   6.568
11664TIP3    H234938   3.340   4.855   6.519
11665TIP3   OH234939   5.234   6.061   1.999
11665TIP3    H134940   5.218   6.106   1.917
11665TIP3    H234941   5.292   5.988   1.975
11666TIP3   OH234942   7.026   0.889   3.087
11666TIP3    H134943   7.120   0.902   3.101
11666TIP3    H234944   7.019   0.802   3.047
11667TIP3   OH234945   0.059   7.489   1.052
11667TIP3    H134946   0.142   7.536   1.040
11667TIP3    H234947   0.017   7.491   0.966
11668TIP3   OH234948   7.485   1.957   5.667
11668TIP3    H134949   7.487   1.861   5.667
11668TIP3    H234950   7.442   1.979   5.584
11669TIP3   OH234951   2.758   5.664   4.587
11669TIP3    H134952   2.815   5.695   4.658
11669TIP3    H234953   2.701   5.738   4.569
11670TIP3   OH234954   2.010   6.207   0.496
11670TIP3    H134955   1.962   6.288   0.478
11670TIP3    H234956   1.947   6.137   0.479
11671TIP3   OH234957   3.030   6.587   5.769
11671TIP3    H134958   2.946   6.568   5.728
11671TIP3    H234959   3.095   6.555   5.707
11672TIP3   OH234960   0.581   2.255   2.573
11672TIP3    H134961   0.593   2.199   2.650
11672TIP3    H234962   0.521   2.324   2.603
11673TIP3   OH234963   0.157   5.551   6.758
11673TIP3    H134964   0.174   5.517   6.670
11673TIP3    H234965   0.071   5.592   6.752
11674TIP3   OH234966   0.456   1.518   4.179
11674TIP3    H134967   0.408   1.578   4.236
11674TIP3    H234968   0.398   1.442   4.170
11675TIP3   OH234969   5.955   2.131   3.141
11675TIP3    H134970   6.001   2.132   3.225
11675TIP3    H234971   5.892   2.060   3.149
11676TIP3   OH234972   5.353   3.657   2.285
11676TIP3    H134973   5.278   3.716   2.289
11676TIP3    H234974   5.356   3.629   2.193
11677TIP3   OH234975   6.183   6.849   0.949
11677TIP3    H134976   6.272   6.873   0.921
11677TIP3    H234977   6.184   6.861   1.044
11678TIP3   OH234978   2.980   0.157   4.310
11678TIP3    H134979   2.933   0.186   4.389
11678TIP3    H234980   3.070   0.141   4.341
11679TIP3   OH234981   4.485   6.737   5.854
11679TIP3    H134982   4.453   6.704   5.938
11679TIP3    H234983   4.580   6.725   5.857
11680TIP3   OH234984   5.356   5.517   0.244
11680TIP3    H134985   5.440   5.478   0.271
11680TIP3    H234986   5.312   5.537   0.327
11681TIP3   OH234987   4.801   6.387   2.113
11681TIP3    H134988   4.858   6.459   2.140
11681TIP3    H234989   4.839   6.310   2.155
11682TIP3   OH234990   5.265   6.681   2.707
11682TIP3    H134991   5.301   6.665   2.795
11682TIP3    H234992   5.283   6.773   2.690
11683TIP3   OH234993   1.853   1.955   1.152
11683TIP3    H134994   1.909   1.976   1.227
11683TIP3    H234995   1.765   1.952   1.189
11684TIP3   OH234996   5.676   1.274   6.749
11684TIP3    H134997   5.703   1.366   6.746
11684TIP3    H234998   5.581   1.277   6.750
11685TIP3   OH234999   7.006   2.822   5.918
11685TIP3    H135000   6.992   2.898   5.861
11685TIP3    H235001   7.042   2.755   5.860
11686TIP3   OH235002   6.015   6.440   0.188
11686TIP3    H135003   6.049   6.352   0.206
11686TIP3    H235004   6.082   6.499   0.222
11687TIP3   OH235005   7.370   4.575   5.172
11687TIP3    H135006   7.350   4.658   5.216
11687TIP3    H235007   7.343   4.507   5.234
11688TIP3   OH235008   8.209   6.942   4.492
11688TIP3    H135009   8.255   7.021   4.517
11688TIP3    H235010   8.275   6.873   4.497
11689TIP3   OH235011   1.249   5.495   5.342
11689TIP3    H135012   1.243   5.460   5.253
11689TIP3    H235013   1.158   5.512   5.367
11690TIP3   OH235014   5.259   0.930   1.633
11690TIP3    H135015   5.302   0.888   1.707
11690TIP3    H235016   5.167   0.905   1.641
11691TIP3   OH235017   8.044   7.398   3.944
11691TIP3    H135018   8.005   7.327   3.892
11691TIP3    H235019   8.102   7.443   3.883
11692TIP3   OH235020   7.539   3.491   3.878
11692TIP3    H135021   7.546   3.584   3.898
11692TIP3    H235022   7.553   3.448   3.962
11693TIP3   OH235023   6.818   5.021   2.356
11693TIP3    H135024   6.855   5.098   2.399
11693TIP3    H235025   6.739   5.053   2.314
11694TIP3   OH235026   0.516   6.659   2.177
11694TIP3    H135027   0.424   6.678   2.164
11694TIP3    H235028   0.560   6.743   2.171
11695TIP3   OH235029   0.142   2.379   6.428
11695TIP3    H135030   0.056   2.342   6.408
11695TIP3    H235031   0.201   2.335   6.367
11696TIP3   OH235032   5.019   4.481   1.855
11696TIP3    H135033   5.023   4.440   1.941
11696TIP3    H235034   5.097   4.536   1.850
11697TIP3   OH235035   2.177   0.583   6.750
11697TIP3    H135036   2.198   0.676   6.757
11697TIP3    H235037   2.245   0.548   6.693
11698TIP3   OH235038   7.337   2.866   1.788
11698TIP3    H135039   7.334   2.953   1.829
11698TIP3    H235040   7.300   2.807   1.853
11699TIP3   OH235041   6.189   6.540   4.457
11699TIP3    H135042   6.186   6.480   4.383
11699TIP3    H235043   6.098   6.565   4.472
11700TIP3   OH235044   5.636   5.198   5.997
11700TIP3    H135045   5.645   5.249   5.917
11700TIP3    H235046   5.543   5.206   6.021
11701TIP3   OH235047   4.869   1.370   1.120
11701TIP3    H135048   4.775   1.355   1.109
11701TIP3    H235049   4.895   1.307   1.188
11702TIP3   OH235050   0.503   4.626   3.167
11702TIP3    H135051   0.553   4.698   3.128
11702TIP3    H235052   0.507   4.642   3.261
11703TIP3   OH235053   6.904   1.713   2.987
11703TIP3    H135054   6.881   1.641   3.046
11703TIP3    H235055   6.867   1.791   3.028
11704TIP3   OH235056   6.899   6.886   1.029
11704TIP3    H135057   6.873   6.954   0.967
11704TIP3    H235058   6.909   6.807   0.976
11705TIP3   OH235059   5.595   6.589   4.736
11705TIP3    H135060   5.571   6.569   4.827
11705TIP3    H235061   5.615   6.682   4.737
11706TIP3   OH235062   0.280   6.953   2.379
11706TIP3    H135063   0.363   6.907   2.388
11706TIP3    H235064   0.277   7.013   2.454
11707TIP3   OH235065   0.448   6.233   3.058
11707TIP3    H135066   0.452   6.143   3.025
11707TIP3    H235067   0.528   6.274   3.023
11708TIP3   OH235068   0.125   6.220   4.753
11708TIP3    H135069   0.168   6.175   4.826
11708TIP3    H235070   0.055   6.270   4.794
11709TIP3   OH235071   5.482   2.206   4.564
11709TIP3    H135072   5.474   2.128   4.620
11709TIP3    H235073   5.429   2.186   4.487
11710TIP3   OH235074   7.395   1.362   4.671
11710TIP3    H135075   7.463   1.374   4.605
11710TIP3    H235076   7.377   1.268   4.672
11711TIP3   OH235077   1.972   7.429   5.711
11711TIP3    H135078   1.936   7.378   5.784
11711TIP3    H235079   1.904   7.492   5.690
11712TIP3   OH235080   7.134   6.394   2.360
11712TIP3    H135081   7.113   6.363   2.271
11712TIP3    H235082   7.224   6.367   2.374
11713TIP3   OH235083   1.235   6.839   2.718
11713TIP3    H135084   1.214   6.910   2.658
11713TIP3    H235085   1.330   6.846   2.731
11714TIP3   OH235086   5.253   6.197   5.723
11714TIP3    H135087   5.340   6.232   5.742
11714TIP3    H235088   5.265   6.102   5.721
11715TIP3   OH235089   7.484   4.201   3.698
11715TIP3    H135090   7.503   4.118   3.741
11715TIP3    H235091   7.550   4.261   3.732
11716TIP3   OH235092   5.136   1.889   6.159
11716TIP3    H135093   5.177   1.916   6.241
11716TIP3    H235094   5.176   1.945   6.092
11717TIP3   OH235095   2.586   0.495   4.378
11717TIP3    H135096   2.547   0.506   4.292
11717TIP3    H235097   2.681   0.491   4.361
11718TIP3   OH235098   0.131   0.063   3.006
11718TIP3    H135099   0.155   0.114   2.928
11718TIP3    H235100   0.141  -0.028   2.979
11719TIP3   OH235101   0.249   3.382   2.176
11719TIP3    H135102   0.200   3.463   2.162
11719TIP3    H235103   0.290   3.363   2.092
11720TIP3   OH235104   5.226   3.396   4.634
11720TIP3    H135105   5.279   3.366   4.560
11720TIP3    H235106   5.217   3.319   4.690
11721TIP3   OH235107   4.864   5.456   5.975
11721TIP3    H135108   4.801   5.513   6.020
11721TIP3    H235109   4.861   5.485   5.883
11722TIP3   OH235110   2.536   3.139   6.535
11722TIP3    H135111   2.556   3.182   6.619
11722TIP3    H235112   2.441   3.125   6.538
11723TIP3   OH235113   1.564   0.297   6.709
11723TIP3    H135114   1.486   0.349   6.691
11723TIP3    H235115   1.566   0.289   6.804
11724TIP3   OH235116   7.592   7.342   5.000
11724TIP3    H135117   7.526   7.331   4.931
11724TIP3    H235118   7.599   7.256   5.041
11725TIP3   OH235119   7.022   3.446   1.626
11725TIP3    H135120   6.949   3.394   1.661
11725TIP3    H235121   6.988   3.482   1.544
11726TIP3   OH235122   2.560   5.764   5.358
11726TIP3    H135123   2.504   5.690   5.382
11726TIP3    H235124   2.631   5.724   5.307
11727TIP3   OH235125   8.274   1.599   2.466
11727TIP3    H135126   8.355   1.548   2.459
11727TIP3    H235127   8.257   1.630   2.377
11728TIP3   OH235128   2.516   1.236   0.825
11728TIP3    H135129   2.535   1.149   0.791
11728TIP3    H235130   2.499   1.290   0.748
11729TIP3   OH235131   1.772   1.759   3.792
11729TIP3    H135132   1.855   1.767   3.839
11729TIP3    H235133   1.710   1.811   3.843
11730TIP3   OH235134   1.456   7.220   3.217
11730TIP3    H135135   1.500   7.250   3.137
11730TIP3    H235136   1.486   7.280   3.285
11731TIP3   OH235137   3.083   0.028   0.440
11731TIP3    H135138   2.994   0.034   0.404
11731TIP3    H235139   3.085  -0.055   0.488
11732TIP3   OH235140   2.274   6.021   1.506
11732TIP3    H135141   2.235   5.940   1.472
11732TIP3    H235142   2.246   6.089   1.445
11733TIP3   OH235143   2.093   0.630   6.369
11733TIP3    H135144   2.071   0.611   6.278
11733TIP3    H235145   2.027   0.584   6.420
11734TIP3   OH235146   4.815   1.897   4.973
11734TIP3    H135147   4.821   1.991   4.962
11734TIP3    H235148   4.732   1.872   4.931
11735TIP3   OH235149   8.036   4.246   2.250
11735TIP3    H135150   8.078   4.216   2.170
11735TIP3    H235151   8.104   4.296   2.296
11736TIP3   OH235152   4.174   4.878   2.763
11736TIP3    H135153   4.210   4.963   2.788
11736TIP3    H235154   4.235   4.815   2.801
11737TIP3   OH235155   6.334   2.173   3.553
11737TIP3    H135156   6.352   2.088   3.593
11737TIP3    H235157   6.389   2.235   3.601
11738TIP3   OH235158   4.341   4.722   3.922
11738TIP3    H135159   4.353   4.760   4.009
11738TIP3    H235160   4.249   4.740   3.901
11739TIP3   OH235161   2.803   3.666   2.039
11739TIP3    H135162   2.857   3.650   2.117
11739TIP3    H235163   2.796   3.580   1.997
11740TIP3   OH235164   6.510   7.666   5.027
11740TIP3    H135165   6.567   7.619   4.966
11740TIP3    H235166   6.469   7.598   5.080
11741TIP3   OH235167   4.658   4.852   0.032
11741TIP3    H135168   4.563   4.853   0.027
11741TIP3    H235169   4.678   4.864   0.125
11742TIP3   OH235170   4.804   1.833   4.498
11742TIP3    H135171   4.856   1.818   4.418
11742TIP3    H235172   4.834   1.918   4.530
11743TIP3   OH235173   7.750   0.058   0.229
11743TIP3    H135174   7.778  -0.011   0.289
11743TIP3    H235175   7.829   0.083   0.181
11744TIP3   OH235176   1.637   5.810   2.217
11744TIP3    H135177   1.697   5.884   2.226
11744TIP3    H235178   1.683   5.736   2.257
11745TIP3   OH235179   5.910   7.607   3.794
11745TIP3    H135180   5.891   7.517   3.818
11745TIP3    H235181   5.965   7.601   3.715
11746TIP3   OH235182   5.027   2.373   4.781
11746TIP3    H135183   5.025   2.278   4.771
11746TIP3    H235184   5.107   2.390   4.829
11747TIP3   OH235185   2.724   1.700   4.357
11747TIP3    H135186   2.680   1.620   4.329
11747TIP3    H235187   2.797   1.671   4.411
11748TIP3   OH235188   2.192   1.816   3.141
11748TIP3    H135189   2.160   1.881   3.204
11748TIP3    H235190   2.187   1.859   3.056
11749TIP3   OH235191   2.564   3.908   6.151
11749TIP3    H135192   2.503   3.920   6.224
11749TIP3    H235193   2.517   3.943   6.075
11750TIP3   OH235194   4.831   6.244   4.008
11750TIP3    H135195   4.923   6.257   4.032
11750TIP3    H235196   4.825   6.275   3.918
11751TIP3   OH235197   3.905   1.320   0.140
11751TIP3    H135198   3.906   1.414   0.158
11751TIP3    H235199   3.845   1.310   0.066
11752TIP3   OH235200   0.885   6.633   5.763
11752TIP3    H135201   0.812   6.662   5.708
11752TIP3    H235202   0.927   6.714   5.792
11753TIP3   OH235203   2.179   4.612   6.555
11753TIP3    H135204   2.159   4.522   6.579
11753TIP3    H235205   2.098   4.645   6.517
11754TIP3   OH235206   7.214   2.567   1.013
11754TIP3    H135207   7.271   2.529   1.080
11754TIP3    H235208   7.203   2.658   1.039
11755TIP3   OH235209   8.249   2.850   0.049
11755TIP3    H135210   8.261   2.779  -0.015
11755TIP3    H235211   8.177   2.821   0.104
11756TIP3   OH235212   8.035   0.212   4.307
11756TIP3    H135213   7.997   0.245   4.389
11756TIP3    H235214   8.124   0.247   4.306
11757TIP3   OH235215   2.278   3.946   3.811
11757TIP3    H135216   2.320   3.909   3.888
11757TIP3    H235217   2.203   3.994   3.845
11758TIP3   OH235218   2.210   7.481   6.746
11758TIP3    H135219   2.175   7.570   6.748
11758TIP3    H235220   2.136   7.425   6.770
11759TIP3   OH235221   4.596   7.301   0.032
11759TIP3    H135222   4.587   7.222   0.085
11759TIP3    H235223   4.670   7.348   0.070
11760TIP3   OH235224   4.390   7.236   3.433
11760TIP3    H135225   4.417   7.272   3.349
11760TIP3    H235226   4.295   7.247   3.434
11761TIP3   OH235227   3.645   7.594   0.257
11761TIP3    H135228   3.579   7.530   0.285
11761TIP3    H235229   3.655   7.579   0.163
11762TIP3   OH235230   5.457   1.793   6.088
11762TIP3    H135231   5.462   1.814   6.181
11762TIP3    H235232   5.398   1.859   6.052
11763TIP3   OH235233   4.344   5.748   4.368
11763TIP3    H135234   4.332   5.772   4.276
11763TIP3    H235235   4.397   5.818   4.405
11764TIP3   OH235236   4.863   4.830   3.568
11764TIP3    H135237   4.825   4.871   3.490
11764TIP3    H235238   4.821   4.744   3.573
11765TIP3   OH235239   3.677   4.031   1.285
11765TIP3    H135240   3.737   3.960   1.262
11765TIP3    H235241   3.654   4.071   1.201
11766TIP3   OH235242   7.663   6.963   6.501
11766TIP3    H135243   7.585   7.017   6.511
11766TIP3    H235244   7.678   6.926   6.588
11767TIP3   OH235245   6.799   0.913   1.866
11767TIP3    H135246   6.730   0.847   1.859
11767TIP3    H235247   6.756   0.995   1.841
11768TIP3   OH235248   4.535   3.469   2.570
11768TIP3    H135249   4.440   3.478   2.570
11768TIP3    H235250   4.551   3.375   2.569
11769TIP3   OH235251   1.387   6.433   4.863
11769TIP3    H135252   1.446   6.421   4.938
11769TIP3    H235253   1.416   6.515   4.824
11770TIP3   OH235254   6.382   5.433   2.291
11770TIP3    H135255   6.346   5.345   2.298
11770TIP3    H235256   6.372   5.470   2.379
11771TIP3   OH235257   1.520   6.733   0.148
11771TIP3    H135258   1.496   6.822   0.124
11771TIP3    H235259   1.608   6.721   0.113
11772TIP3   OH235260   5.480   1.223   0.620
11772TIP3    H135261   5.521   1.143   0.654
11772TIP3    H235262   5.552   1.272   0.580
11773TIP3   OH235263   1.206   1.077   4.549
11773TIP3    H135264   1.146   1.135   4.595
11773TIP3    H235265   1.151   1.031   4.485
11774TIP3   OH235266   4.795   7.570   2.500
11774TIP3    H135267   4.851   7.496   2.524
11774TIP3    H235268   4.765   7.549   2.412
11775TIP3   OH235269   7.357   0.123   5.030
11775TIP3    H135270   7.445   0.100   4.999
11775TIP3    H235271   7.323   0.043   5.070
11776TIP3   OH235272   7.449   4.700   0.779
11776TIP3    H135273   7.402   4.783   0.770
11776TIP3    H235274   7.505   4.712   0.855
11777TIP3   OH235275   4.144   0.758   0.546
11777TIP3    H135276   4.084   0.807   0.604
11777TIP3    H235277   4.225   0.808   0.548
11778TIP3   OH235278   2.473   7.095   1.745
11778TIP3    H135279   2.532   7.154   1.792
11778TIP3    H235280   2.489   7.113   1.652
11779TIP3   OH235281   7.369   0.952   6.359
11779TIP3    H135282   7.377   0.987   6.271
11779TIP3    H235283   7.300   1.005   6.400
11780TIP3   OH235284   4.804   0.206   2.116
11780TIP3    H135285   4.720   0.234   2.082
11780TIP3    H235286   4.813   0.252   2.199
11781TIP3   OH235287   0.325   7.160   6.624
11781TIP3    H135288   0.354   7.070   6.641
11781TIP3    H235289   0.230   7.154   6.618
11782TIP3   OH235290   1.324   5.354   2.092
11782TIP3    H135291   1.330   5.267   2.054
11782TIP3    H235292   1.364   5.346   2.178
11783TIP3   OH235293   6.004   6.885   0.715
11783TIP3    H135294   6.049   6.854   0.636
11783TIP3    H235295   6.063   6.860   0.787
11784TIP3   OH235296   7.848   6.252   4.270
11784TIP3    H135297   7.912   6.234   4.201
11784TIP3    H235298   7.817   6.341   4.252
11785TIP3   OH235299   6.815   6.786   0.169
11785TIP3    H135300   6.876   6.730   0.216
11785TIP3    H235301   6.822   6.872   0.212
11786TIP3   OH235302   4.005   3.109   5.221
11786TIP3    H135303   3.936   3.093   5.286
11786TIP3    H235304   3.959   3.107   5.137
11787TIP3   OH235305   5.722   6.894   0.755
11787TIP3    H135306   5.678   6.972   0.723
11787TIP3    H235307   5.815   6.910   0.740
11788TIP3   OH235308   0.155   4.943   0.098
11788TIP3    H135309   0.081   4.946   0.159
11788TIP3    H235310   0.169   5.035   0.074
11789TIP3   OH235311   2.921   4.720   3.394
11789TIP3    H135312   2.993   4.727   3.456
11789TIP3    H235313   2.849   4.767   3.436
11790TIP3   OH235314   7.498   5.007   3.796
11790TIP3    H135315   7.441   5.057   3.854
11790TIP3    H235316   7.475   4.916   3.812
11791TIP3   OH235317   4.671   3.535   5.973
11791TIP3    H135318   4.638   3.511   6.059
11791TIP3    H235319   4.654   3.629   5.966
11792TIP3   OH235320   3.155   4.513   1.973
11792TIP3    H135321   3.166   4.581   2.040
11792TIP3    H235322   3.149   4.562   1.891
11793TIP3   OH235323   5.774   5.336   1.225
11793TIP3    H135324   5.751   5.378   1.142
11793TIP3    H235325   5.708   5.269   1.238
11794TIP3   OH235326   3.677   5.818   0.202
11794TIP3    H135327   3.590   5.852   0.221
11794TIP3    H235328   3.688   5.745   0.263
11795TIP3   OH235329   2.244   7.450   2.877
11795TIP3    H135330   2.232   7.442   2.972
11795TIP3    H235331   2.225   7.362   2.843
11796TIP3   OH235332   0.538   2.281   5.931
11796TIP3    H135333   0.558   2.218   5.862
11796TIP3    H235334   0.600   2.262   6.000
11797TIP3   OH235335   7.124   6.617   3.089
11797TIP3    H135336   7.198   6.637   3.033
11797TIP3    H235337   7.049   6.615   3.030
11798TIP3   OH235338   4.686   4.981   5.940
11798TIP3    H135339   4.778   4.971   5.964
11798TIP3    H235340   4.665   5.072   5.962
11799TIP3   OH235341   3.368   7.741   4.867
11799TIP3    H135342   3.313   7.671   4.904
11799TIP3    H235343   3.388   7.711   4.778
11800TIP3   OH235344   3.780   3.242   2.245
11800TIP3    H135345   3.696   3.245   2.200
11800TIP3    H235346   3.817   3.157   2.222
11801TIP3   OH235347   4.985   5.087   3.105
11801TIP3    H135348   5.011   5.168   3.061
11801TIP3    H235349   4.970   5.024   3.034
11802TIP3   OH235350   4.554   4.783   2.351
11802TIP3    H135351   4.549   4.875   2.377
11802TIP3    H235352   4.514   4.735   2.424
11803TIP3   OH235353   5.689   7.249   5.902
11803TIP3    H135354   5.663   7.339   5.921
11803TIP3    H235355   5.749   7.225   5.972
11804TIP3   OH235356   0.043   4.186   3.776
11804TIP3    H135357   0.064   4.122   3.707
11804TIP3    H235358  -0.038   4.154   3.814
11805TIP3   OH235359   1.283   0.887   6.014
11805TIP3    H135360   1.218   0.825   6.045
11805TIP3    H235361   1.243   0.973   6.030
11806TIP3   OH235362   7.258   1.074   2.577
11806TIP3    H135363   7.306   1.143   2.624
11806TIP3    H235364   7.223   1.019   2.647
11807TIP3   OH235365   5.363   3.184   6.432
11807TIP3    H135366   5.401   3.119   6.492
11807TIP3    H235367   5.425   3.188   6.359
11808TIP3   OH235368   1.177   4.627   3.727
11808TIP3    H135369   1.219   4.560   3.781
11808TIP3    H235370   1.240   4.698   3.723
11809TIP3   OH235371   1.990   4.409   2.908
11809TIP3    H135372   2.034   4.468   2.969
11809TIP3    H235373   2.024   4.433   2.822
11810TIP3   OH235374   1.529   6.518   1.000
11810TIP3    H135375   1.618   6.497   1.029
11810TIP3    H235376   1.540   6.587   0.935
11811TIP3   OH235377   4.381   6.921   6.647
11811TIP3    H135378   4.331   6.992   6.687
11811TIP3    H235379   4.314   6.863   6.609
11812TIP3   OH235380   7.748   1.503   4.411
11812TIP3    H135381   7.828   1.453   4.425
11812TIP3    H235382   7.679   1.450   4.451
11813TIP3   OH235383   8.016   3.185   6.324
11813TIP3    H135384   7.950   3.123   6.292
11813TIP3    H235385   8.073   3.200   6.249
11814TIP3   OH235386   5.100   0.689   6.054
11814TIP3    H135387   5.111   0.766   6.110
11814TIP3    H235388   5.189   0.665   6.029
11815TIP3   OH235389   2.273   5.009   2.830
11815TIP3    H135390   2.233   4.995   2.744
11815TIP3    H235391   2.357   4.963   2.824
11816TIP3   OH235392   2.972   5.470   6.412
11816TIP3    H135393   3.027   5.525   6.356
11816TIP3    H235394   2.992   5.380   6.386
11817TIP3   OH235395   2.250   4.474   3.782
11817TIP3    H135396   2.158   4.448   3.789
11817TIP3    H235397   2.280   4.436   3.699
11818TIP3   OH235398   1.810   1.242   3.249
11818TIP3    H135399   1.793   1.158   3.290
11818TIP3    H235400   1.762   1.306   3.302
11819TIP3   OH235401   5.475   7.354   6.753
11819TIP3    H135402   5.504   7.430   6.702
11819TIP3    H235403   5.411   7.310   6.696
11820TIP3   OH235404   3.892   4.214   5.084
11820TIP3    H135405   3.921   4.282   5.146
11820TIP3    H235406   3.821   4.169   5.130
11821TIP3   OH235407   7.731   0.288   2.449
11821TIP3    H135408   7.751   0.249   2.364
11821TIP3    H235409   7.804   0.262   2.506
11822TIP3   OH235410   3.750   1.337   6.400
11822TIP3    H135411   3.810   1.272   6.437
11822TIP3    H235412   3.782   1.350   6.311
11823TIP3   OH235413   5.008   4.315   5.245
11823TIP3    H135414   5.013   4.314   5.149
11823TIP3    H235415   5.094   4.285   5.274
11824TIP3   OH235416   1.143   7.008   0.991
11824TIP3    H135417   1.104   7.082   0.944
11824TIP3    H235418   1.070   6.967   1.035
11825TIP3   OH235419   5.497   5.423   4.965
11825TIP3    H135420   5.478   5.454   5.054
11825TIP3    H235421   5.495   5.327   4.973
11826TIP3   OH235422   2.216   3.894   6.260
11826TIP3    H135423   2.241   3.979   6.225
11826TIP3    H235424   2.121   3.899   6.271
11827TIP3   OH235425   2.521   0.761   3.662
11827TIP3    H135426   2.451   0.697   3.651
11827TIP3    H235427   2.485   0.843   3.629
11828TIP3   OH235428   6.085   2.047   5.430
11828TIP3    H135429   6.142   2.082   5.498
11828TIP3    H235430   6.078   2.117   5.365
11829TIP3   OH235431   7.685   0.311   4.452
11829TIP3    H135432   7.780   0.310   4.439
11829TIP3    H235433   7.672   0.364   4.531
11830TIP3   OH235434   2.412   5.750   2.814
11830TIP3    H135435   2.448   5.815   2.874
11830TIP3    H235436   2.318   5.752   2.831
11831TIP3   OH235437   5.657   3.328   5.161
11831TIP3    H135438   5.703   3.400   5.117
11831TIP3    H235439   5.684   3.335   5.252
11832TIP3   OH235440   5.402   6.803   5.155
11832TIP3    H135441   5.477   6.751   5.126
11832TIP3    H235442   5.415   6.813   5.249
11833TIP3   OH235443   7.558   5.979   5.182
11833TIP3    H135444   7.605   6.005   5.103
11833TIP3    H235445   7.581   5.887   5.194
11834TIP3   OH235446   7.231   6.892   1.918
11834TIP3    H135447   7.289   6.880   1.994
11834TIP3    H235448   7.162   6.826   1.930
11835TIP3   OH235449   7.743   5.513   5.328
11835TIP3    H135450   7.722   5.537   5.418
11835TIP3    H235451   7.730   5.419   5.324
11836TIP3   OH235452   7.993   4.973   5.890
11836TIP3    H135453   7.918   5.030   5.904
11836TIP3    H235454   7.955   4.891   5.859
11837TIP3   OH235455   7.551   2.157   6.397
11837TIP3    H135456   7.551   2.085   6.459
11837TIP3    H235457   7.475   2.209   6.420
11838TIP3   OH235458   5.753   1.385   3.857
11838TIP3    H135459   5.706   1.437   3.922
11838TIP3    H235460   5.827   1.440   3.832
11839TIP3   OH235461   1.349   6.765   6.008
11839TIP3    H135462   1.366   6.854   6.040
11839TIP3    H235463   1.304   6.721   6.080
11840TIP3   OH235464   1.171   0.133   1.306
11840TIP3    H135465   1.091   0.083   1.317
11840TIP3    H235466   1.144   0.224   1.316
11841TIP3   OH235467   5.416   2.873   2.503
11841TIP3    H135468   5.449   2.832   2.583
11841TIP3    H235469   5.493   2.883   2.448
11842TIP3   OH235470   4.774   4.464   1.362
11842TIP3    H135471   4.688   4.476   1.323
11842TIP3    H235472   4.823   4.542   1.335
11843TIP3   OH235473   6.889   7.138   5.876
11843TIP3    H135474   6.838   7.058   5.877
11843TIP3    H235475   6.825   7.208   5.867
11844TIP3   OH235476   5.681   4.253   2.152
11844TIP3    H135477   5.736   4.233   2.228
11844TIP3    H235478   5.680   4.172   2.101
11845TIP3   OH235479   0.077   5.783   6.182
11845TIP3    H135480   0.013   5.746   6.243
11845TIP3    H235481   0.092   5.713   6.118
11846TIP3   OH235482   0.134   7.300   3.085
11846TIP3    H135483   0.175   7.335   3.164
11846TIP3    H235484   0.151   7.206   3.089
11847TIP3   OH235485   1.903   0.845   0.589
11847TIP3    H135486   1.840   0.778   0.565
11847TIP3    H235487   1.864   0.889   0.665
11848TIP3   OH235488   4.766   1.558   4.610
11848TIP3    H135489   4.728   1.525   4.692
11848TIP3    H235490   4.751   1.652   4.613
11849TIP3   OH235491   0.511   1.213   4.251
11849TIP3    H135492   0.455   1.143   4.287
11849TIP3    H235493   0.456   1.256   4.186
11850TIP3   OH235494   5.084   3.766   2.267
11850TIP3    H135495   5.024   3.801   2.332
11850TIP3    H235496   5.115   3.842   2.218
11851TIP3   OH235497   0.783   0.373   4.788
11851TIP3    H135498   0.806   0.280   4.800
11851TIP3    H235499   0.864   0.420   4.808
11852TIP3   OH235500   4.248   7.027   3.066
11852TIP3    H135501   4.231   7.121   3.077
11852TIP3    H235502   4.217   6.988   3.148
11853TIP3   OH235503   4.604   1.376   4.769
11853TIP3    H135504   4.637   1.286   4.760
11853TIP3    H235505   4.567   1.378   4.857
11854TIP3   OH235506   3.819   2.267   5.291
11854TIP3    H135507   3.905   2.238   5.323
11854TIP3    H235508   3.794   2.200   5.227
11855TIP3   OH235509   5.269   0.998   3.968
11855TIP3    H135510   5.259   1.093   3.970
11855TIP3    H235511   5.290   0.978   3.877
11856TIP3   OH235512   2.350   2.706   2.157
11856TIP3    H135513   2.354   2.800   2.179
11856TIP3    H235514   2.260   2.681   2.177
11857TIP3   OH235515   5.130   7.590   3.849
11857TIP3    H135516   5.121   7.554   3.761
11857TIP3    H235517   5.150   7.683   3.835
11858TIP3   OH235518   4.576   7.204   0.563
11858TIP3    H135519   4.506   7.139   0.571
11858TIP3    H235520   4.642   7.161   0.510
11859TIP3   OH235521   5.154   7.174   4.694
11859TIP3    H135522   5.223   7.152   4.756
11859TIP3    H235523   5.090   7.223   4.746
11860TIP3   OH235524   1.902   5.493   1.981
11860TIP3    H135525   1.942   5.568   2.023
11860TIP3    H235526   1.975   5.444   1.943
11861TIP3   OH235527   2.704   1.203   5.750
11861TIP3    H135528   2.731   1.196   5.659
11861TIP3    H235529   2.650   1.126   5.765
11862TIP3   OH235530   3.543   6.223   0.785
11862TIP3    H135531   3.512   6.237   0.875
11862TIP3    H235532   3.484   6.276   0.731
11863TIP3   OH235533   2.982   4.054   4.500
11863TIP3    H135534   3.035   3.975   4.499
11863TIP3    H235535   2.915   4.039   4.433
11864TIP3   OH235536   2.659   0.812   3.899
11864TIP3    H135537   2.625   0.828   3.811
11864TIP3    H235538   2.751   0.789   3.886
11865TIP3   OH235539   3.660   2.818   0.651
11865TIP3    H135540   3.620   2.812   0.738
11865TIP3    H235541   3.609   2.884   0.605
11866TIP3   OH235542   3.850   5.096   0.259
11866TIP3    H135543   3.804   5.031   0.206
11866TIP3    H235544   3.861   5.171   0.201
11867TIP3   OH235545   1.870   7.057   6.030
11867TIP3    H135546   1.934   6.996   6.066
11867TIP3    H235547   1.810   7.075   6.103
11868TIP3   OH235548   8.069   0.426   0.253
11868TIP3    H135549   8.008   0.354   0.234
11868TIP3    H235550   8.116   0.396   0.331
11869TIP3   OH235551   7.108   7.151   5.608
11869TIP3    H135552   7.194   7.180   5.640
11869TIP3    H235553   7.053   7.148   5.686
11870TIP3   OH235554   3.936   1.386   3.732
11870TIP3    H135555   4.026   1.371   3.703
11870TIP3    H235556   3.943   1.414   3.823
11871TIP3   OH235557   6.919   5.602   2.944
11871TIP3    H135558   6.914   5.520   2.895
11871TIP3    H235559   6.989   5.651   2.901
11872TIP3   OH235560   4.027   2.243   4.631
11872TIP3    H135561   4.059   2.332   4.616
11872TIP3    H235562   3.960   2.230   4.563
11873TIP3   OH235563   0.658   2.384   4.637
11873TIP3    H135564   0.683   2.446   4.569
11873TIP3    H235565   0.690   2.299   4.605
11874TIP3   OH235566   5.256   2.814   5.455
11874TIP3    H135567   5.189   2.877   5.428
11874TIP3    H235568   5.257   2.820   5.551
11875TIP3   OH235569   5.807   6.313   2.880
11875TIP3    H135570   5.826   6.220   2.872
11875TIP3    H235571   5.825   6.334   2.971
11876TIP3   OH235572   6.634   4.051   5.846
11876TIP3    H135573   6.667   4.139   5.828
11876TIP3    H235574   6.594   4.024   5.763
11877TIP3   OH235575   7.440   4.022   2.924
11877TIP3    H135576   7.402   4.003   2.838
11877TIP3    H235577   7.523   4.064   2.905
11878TIP3   OH235578   6.823   4.770   1.098
11878TIP3    H135579   6.916   4.750   1.089
11878TIP3    H235580   6.804   4.828   1.024
11879TIP3   OH235581   6.030   6.052   0.751
11879TIP3    H135582   6.006   6.100   0.672
11879TIP3    H235583   5.949   6.049   0.803
11880TIP3   OH235584   5.432   4.266   6.198
11880TIP3    H135585   5.498   4.309   6.252
11880TIP3    H235586   5.428   4.319   6.118
11881TIP3   OH235587   2.514   3.863   0.255
11881TIP3    H135588   2.575   3.833   0.188
11881TIP3    H235589   2.487   3.950   0.226
11882TIP3   OH235590   6.818   6.549   0.607
11882TIP3    H135591   6.833   6.644   0.606
11882TIP3    H235592   6.804   6.526   0.515
11883TIP3   OH235593   4.613   1.763   1.513
11883TIP3    H135594   4.577   1.847   1.543
11883TIP3    H235595   4.657   1.784   1.431
11884TIP3   OH235596   1.543   4.379   1.128
11884TIP3    H135597   1.484   4.398   1.055
11884TIP3    H235598   1.626   4.354   1.086
11885TIP3   OH235599   3.657   2.190   5.526
11885TIP3    H135600   3.659   2.159   5.617
11885TIP3    H235601   3.712   2.268   5.526
11886TIP3   OH235602   4.637   5.255   5.520
11886TIP3    H135603   4.623   5.164   5.548
11886TIP3    H235604   4.584   5.264   5.440
11887TIP3   OH235605   0.697   0.538   5.517
11887TIP3    H135606   0.624   0.597   5.537
11887TIP3    H235607   0.756   0.547   5.592
11888TIP3   OH235608   2.003   6.427   5.027
11888TIP3    H135609   1.958   6.474   5.097
11888TIP3    H235610   2.075   6.484   5.002
11889TIP3   OH235611   6.913   7.523   3.866
11889TIP3    H135612   6.830   7.559   3.836
11889TIP3    H235613   6.918   7.548   3.959
11890TIP3   OH235614   6.200   2.777   0.633
11890TIP3    H135615   6.196   2.843   0.701
11890TIP3    H235616   6.111   2.742   0.627
11891TIP3   OH235617   5.767   2.799   1.460
11891TIP3    H135618   5.764   2.765   1.370
11891TIP3    H235619   5.857   2.787   1.487
11892TIP3   OH235620   1.640   4.935   4.393
11892TIP3    H135621   1.654   5.029   4.405
11892TIP3    H235622   1.683   4.895   4.469
11893TIP3   OH235623   4.648   6.518   3.590
11893TIP3    H135624   4.555   6.540   3.591
11893TIP3    H235625   4.682   6.552   3.672
11894TIP3   OH235626   1.578   4.273   4.290
11894TIP3    H135627   1.650   4.299   4.347
11894TIP3    H235628   1.534   4.355   4.268
11895TIP3   OH235629   6.359   5.130   4.345
11895TIP3    H135630   6.306   5.060   4.383
11895TIP3    H235631   6.301   5.173   4.282
11896TIP3   OH235632   1.712   3.980   2.885
11896TIP3    H135633   1.627   4.002   2.848
11896TIP3    H235634   1.719   4.034   2.964
11897TIP3   OH235635   4.750   3.214   3.944
11897TIP3    H135636   4.728   3.129   3.905
11897TIP3    H235637   4.738   3.202   4.038
11898TIP3   OH235638   3.814   5.656   2.757
11898TIP3    H135639   3.874   5.729   2.768
11898TIP3    H235640   3.869   5.578   2.767
11899TIP3   OH235641   8.044   3.336   2.209
11899TIP3    H135642   7.956   3.306   2.187
11899TIP3    H235643   8.080   3.369   2.126
11900TIP3   OH235644   4.262   3.605   5.864
11900TIP3    H135645   4.227   3.694   5.876
11900TIP3    H235646   4.331   3.615   5.799
11901TIP3   OH235647   2.705   5.289   5.344
11901TIP3    H135648   2.790   5.301   5.386
11901TIP3    H235649   2.669   5.378   5.338
11902TIP3   OH235650   5.559   0.976   0.324
11902TIP3    H135651   5.574   1.029   0.402
11902TIP3    H235652   5.642   0.929   0.311
11903TIP3   OH235653   6.338   1.856   0.345
11903TIP3    H135654   6.337   1.951   0.354
11903TIP3    H235655   6.266   1.836   0.285
11904TIP3   OH235656   0.969   5.997   6.198
11904TIP3    H135657   0.987   6.088   6.220
11904TIP3    H235658   1.050   5.951   6.221
11905TIP3   OH235659   6.825   0.089   5.293
11905TIP3    H135660   6.761   0.063   5.360
11905TIP3    H235661   6.910   0.063   5.330
11906TIP3   OH235662   3.741   6.858   0.206
11906TIP3    H135663   3.770   6.943   0.173
11906TIP3    H235664   3.798   6.840   0.280
11907TIP3   OH235665   7.968   6.196   1.431
11907TIP3    H135666   8.059   6.174   1.411
11907TIP3    H235667   7.922   6.112   1.430
11908TIP3   OH235668   6.428   6.457   1.239
11908TIP3    H135669   6.332   6.456   1.229
11908TIP3    H235670   6.461   6.489   1.155
11909TIP3   OH235671   6.653   6.525   2.641
11909TIP3    H135672   6.563   6.548   2.663
11909TIP3    H235673   6.696   6.511   2.725
11910TIP3   OH235674   5.966   4.641   1.084
11910TIP3    H135675   6.024   4.689   1.024
11910TIP3    H235676   5.881   4.685   1.076
11911TIP3   OH235677   3.272   1.850   1.720
11911TIP3    H135678   3.179   1.835   1.703
11911TIP3    H235679   3.316   1.813   1.644
11912TIP3   OH235680   2.797   3.492   2.721
11912TIP3    H135681   2.861   3.434   2.680
11912TIP3    H235682   2.738   3.517   2.650
11913TIP3   OH235683   0.577   7.640   5.528
11913TIP3    H135684   0.654   7.672   5.575
11913TIP3    H235685   0.512   7.625   5.596
11914TIP3   OH235686   1.755   6.494   4.690
11914TIP3    H135687   1.788   6.404   4.697
11914TIP3    H235688   1.660   6.486   4.697
11915TIP3   OH235689   6.282   0.946   3.523
11915TIP3    H135690   6.360   0.900   3.491
11915TIP3    H235691   6.290   1.034   3.487
11916TIP3   OH235692   4.944   6.120   5.762
11916TIP3    H135693   5.000   6.083   5.830
11916TIP3    H235694   5.001   6.182   5.716
11917TIP3   OH235695   7.351   2.100   3.082
11917TIP3    H135696   7.409   2.144   3.018
11917TIP3    H235697   7.396   2.019   3.103
11918TIP3   OH235698   7.597   6.702   4.143
11918TIP3    H135699   7.519   6.648   4.125
11918TIP3    H235700   7.566   6.792   4.136
11919TIP3   OH235701   1.294   2.331   2.468
11919TIP3    H135702   1.358   2.279   2.419
11919TIP3    H235703   1.344   2.408   2.499
11920TIP3   OH235704   6.011   3.558   1.411
11920TIP3    H135705   6.075   3.507   1.362
11920TIP3    H235706   5.933   3.559   1.355
11921TIP3   OH235707   2.505   2.689   5.811
11921TIP3    H135708   2.555   2.734   5.879
11921TIP3    H235709   2.568   2.672   5.742
11922TIP3   OH235710   0.677   1.140   6.545
11922TIP3    H135711   0.693   1.218   6.492
11922TIP3    H235712   0.697   1.067   6.486
11923TIP3   OH235713   0.825   3.682   3.163
11923TIP3    H135714   0.905   3.728   3.187
11923TIP3    H235715   0.808   3.709   3.072
11924TIP3   OH235716   6.495   1.530   1.368
11924TIP3    H135717   6.463   1.443   1.393
11924TIP3    H235718   6.456   1.589   1.432
11925TIP3   OH235719   2.693   4.261   3.438
11925TIP3    H135720   2.714   4.327   3.504
11925TIP3    H235721   2.598   4.250   3.443
11926TIP3   OH235722   0.634   0.546   5.096
11926TIP3    H135723   0.672   0.489   5.162
11926TIP3    H235724   0.548   0.569   5.131
11927TIP3   OH235725   7.662   4.538   2.580
11927TIP3    H135726   7.705   4.620   2.556
11927TIP3    H235727   7.618   4.557   2.663
11928TIP3   OH235728   4.669   1.134   5.098
11928TIP3    H135729   4.614   1.068   5.139
11928TIP3    H235730   4.614   1.212   5.092
11929TIP3   OH235731   5.220   1.646   4.579
11929TIP3    H135732   5.134   1.608   4.561
11929TIP3    H235733   5.270   1.574   4.617
11930TIP3   OH235734   7.244   7.023   0.680
11930TIP3    H135735   7.205   7.075   0.750
11930TIP3    H235736   7.202   6.938   0.686
11931TIP3   OH235737   1.282   4.062   1.052
11931TIP3    H135738   1.313   3.981   1.091
11931TIP3    H235739   1.344   4.080   0.982
11932TIP3   OH235740   6.905   2.423   4.507
11932TIP3    H135741   6.892   2.511   4.470
11932TIP3    H235742   6.955   2.376   4.440
11933TIP3   OH235743   6.063   1.712   1.238
11933TIP3    H135744   6.076   1.631   1.287
11933TIP3    H235745   5.996   1.759   1.287
11934TIP3   OH235746   5.728   6.380   6.267
11934TIP3    H135747   5.718   6.331   6.186
11934TIP3    H235748   5.806   6.341   6.308
11935TIP3   OH235749   2.893   1.327   1.011
11935TIP3    H135750   2.958   1.278   1.061
11935TIP3    H235751   2.817   1.269   1.007
11936TIP3   OH235752   0.525   3.183   5.511
11936TIP3    H135753   0.549   3.168   5.602
11936TIP3    H235754   0.534   3.277   5.499
11937TIP3   OH235755   5.045   7.032   4.372
11937TIP3    H135756   5.067   7.122   4.351
11937TIP3    H235757   4.955   7.021   4.340
11938TIP3   OH235758   3.425   1.658   6.052
11938TIP3    H135759   3.464   1.732   6.005
11938TIP3    H235760   3.367   1.617   5.988
11939TIP3   OH235761   2.090   0.240   0.036
11939TIP3    H135762   2.110   0.315  -0.020
11939TIP3    H235763   2.111   0.163  -0.018
11940TIP3   OH235764   2.200   7.044   6.061
11940TIP3    H135765   2.189   7.064   6.154
11940TIP3    H235766   2.240   7.123   6.024
11941TIP3   OH235767   7.971   0.322   3.950
11941TIP3    H135768   7.910   0.327   3.877
11941TIP3    H235769   8.024   0.402   3.944
11942TIP3   OH235770   3.399   3.328   2.178
11942TIP3    H135771   3.459   3.279   2.122
11942TIP3    H235772   3.422   3.304   2.267
11943TIP3   OH235773   3.318   6.570   5.813
11943TIP3    H135774   3.406   6.586   5.846
11943TIP3    H235775   3.282   6.657   5.796
11944TIP3   OH235776   0.153   2.452   2.117
11944TIP3    H135777   0.140   2.394   2.043
11944TIP3    H235778   0.070   2.497   2.128
11945TIP3   OH235779   5.295   1.415   2.529
11945TIP3    H135780   5.385   1.385   2.541
11945TIP3    H235781   5.299   1.509   2.544
11946TIP3   OH235782   0.756   1.954   5.503
11946TIP3    H135783   0.760   2.048   5.485
11946TIP3    H235784   0.710   1.917   5.428
11947TIP3   OH235785   7.401   1.064   0.641
11947TIP3    H135786   7.404   0.969   0.649
11947TIP3    H235787   7.476   1.095   0.692
11948TIP3   OH235788   2.176   2.341   0.391
11948TIP3    H135789   2.116   2.269   0.374
11948TIP3    H235790   2.262   2.299   0.399
11949TIP3   OH235791   0.594   5.115   6.223
11949TIP3    H135792   0.559   5.106   6.134
11949TIP3    H235793   0.680   5.155   6.211
11950TIP3   OH235794   0.619   1.488   3.211
11950TIP3    H135795   0.577   1.406   3.186
11950TIP3    H235796   0.563   1.556   3.173
11951TIP3   OH235797   1.999   3.562   3.321
11951TIP3    H135798   2.031   3.475   3.343
11951TIP3    H235799   2.015   3.570   3.227
11952TIP3   OH235800   1.895   4.042   0.188
11952TIP3    H135801   1.917   3.950   0.182
11952TIP3    H235802   1.818   4.052   0.131
11953TIP3   OH235803   7.788   1.238   1.177
11953TIP3    H135804   7.857   1.178   1.152
11953TIP3    H235805   7.796   1.246   1.272
11954TIP3   OH235806   4.942   4.362   6.157
11954TIP3    H135807   4.952   4.319   6.242
11954TIP3    H235808   4.950   4.292   6.093
11955TIP3   OH235809   2.804   5.284   1.999
11955TIP3    H135810   2.775   5.194   2.014
11955TIP3    H235811   2.851   5.281   1.916
11956TIP3   OH235812   1.028   6.252   2.611
11956TIP3    H135813   0.951   6.247   2.667
11956TIP3    H235814   1.061   6.162   2.608
11957TIP3   OH235815   3.819   0.743   4.982
11957TIP3    H135816   3.738   0.735   5.032
11957TIP3    H235817   3.879   0.791   5.040
11958TIP3   OH235818   1.602   6.276   3.679
11958TIP3    H135819   1.523   6.329   3.690
11958TIP3    H235820   1.671   6.325   3.723
11959TIP3   OH235821   7.632   3.866   3.346
11959TIP3    H135822   7.703   3.806   3.325
11959TIP3    H235823   7.671   3.929   3.407
11960TIP3   OH235824   7.878   3.943   0.455
11960TIP3    H135825   7.901   3.945   0.548
11960TIP3    H235826   7.941   4.001   0.413
11961TIP3   OH235827   5.154   0.060   2.080
11961TIP3    H135828   5.195   0.136   2.039
11961TIP3    H235829   5.206   0.043   2.159
11962TIP3   OH235830   1.598   4.579   6.440
11962TIP3    H135831   1.547   4.621   6.510
11962TIP3    H235832   1.637   4.652   6.392
11963TIP3   OH235833   4.217   5.506   3.645
11963TIP3    H135834   4.193   5.427   3.692
11963TIP3    H235835   4.271   5.556   3.707
11964TIP3   OH235836   1.868   1.878   2.438
11964TIP3    H135837   1.847   1.905   2.349
11964TIP3    H235838   1.790   1.831   2.469
11965TIP3   OH235839   7.496   3.717   4.485
11965TIP3    H135840   7.519   3.801   4.525
11965TIP3    H235841   7.402   3.722   4.471
11966TIP3   OH235842   1.023   2.036   4.932
11966TIP3    H135843   0.961   2.083   4.987
11966TIP3    H235844   1.051   2.102   4.867
11967TIP3   OH235845   7.913   0.516   3.757
11967TIP3    H135846   7.822   0.512   3.730
11967TIP3    H235847   7.963   0.495   3.677
11968TIP3   OH235848   2.856   7.440   0.558
11968TIP3    H135849   2.862   7.368   0.495
11968TIP3    H235850   2.922   7.503   0.530
11969TIP3   OH235851   0.172   7.204   2.525
11969TIP3    H135852   0.244   7.262   2.500
11969TIP3    H235853   0.094   7.258   2.517
11970TIP3   OH235854   6.821   4.171   6.046
11970TIP3    H135855   6.735   4.131   6.030
11970TIP3    H235856   6.858   4.120   6.118
11971TIP3   OH235857   6.294   3.366   5.857
11971TIP3    H135858   6.297   3.400   5.946
11971TIP3    H235859   6.359   3.295   5.856
11972TIP3   OH235860   5.329   5.673   3.877
11972TIP3    H135861   5.305   5.673   3.969
11972TIP3    H235862   5.423   5.651   3.877
11973TIP3   OH235863   7.446   1.874   6.242
11973TIP3    H135864   7.411   1.937   6.179
11973TIP3    H235865   7.540   1.874   6.228
11974TIP3   OH235866  -0.029   0.323   2.941
11974TIP3    H135867  -0.021   0.414   2.912
11974TIP3    H235868   0.053   0.305   2.985
11975TIP3   OH235869   5.185   3.597   1.769
11975TIP3    H135870   5.109   3.600   1.827
11975TIP3    H235871   5.181   3.510   1.729
11976TIP3   OH235872   4.024   3.938   1.623
11976TIP3    H135873   4.053   3.886   1.549
11976TIP3    H235874   4.029   4.029   1.593
11977TIP3   OH235875   6.658   3.241   5.728
11977TIP3    H135876   6.587   3.268   5.786
11977TIP3    H235877   6.719   3.315   5.729
11978TIP3   OH235878   5.840   6.986   3.692
11978TIP3    H135879   5.808   7.076   3.681
11978TIP3    H235880   5.924   6.996   3.736
11979TIP3   OH235881   1.608   7.494   1.132
11979TIP3    H135882   1.542   7.428   1.113
11979TIP3    H235883   1.559   7.571   1.162
11980TIP3   OH235884   0.481   6.143   3.947
11980TIP3    H135885   0.420   6.201   3.902
11980TIP3    H235886   0.486   6.178   4.036
11981TIP3   OH235887   6.270   3.054   2.569
11981TIP3    H135888   6.335   3.125   2.573
11981TIP3    H235889   6.200   3.089   2.515
11982TIP3   OH235890   7.528   7.728   5.656
11982TIP3    H135891   7.464   7.766   5.716
11982TIP3    H235892   7.524   7.784   5.578
11983TIP3   OH235893   6.322   2.065   2.142
11983TIP3    H135894   6.282   2.095   2.223
11983TIP3    H235895   6.329   1.970   2.152
11984TIP3   OH235896   1.085   1.476   4.493
11984TIP3    H135897   1.156   1.509   4.548
11984TIP3    H235898   1.007   1.482   4.547
11985TIP3   OH235899   3.675   1.878   6.394
11985TIP3    H135900   3.593   1.891   6.345
11985TIP3    H235901   3.655   1.806   6.454
11986TIP3   OH235902   6.624   1.128   5.223
11986TIP3    H135903   6.608   1.039   5.255
11986TIP3    H235904   6.537   1.166   5.212
11987TIP3   OH235905   6.232   3.197   6.324
11987TIP3    H135906   6.169   3.214   6.255
11987TIP3    H235907   6.239   3.280   6.372
11988TIP3   OH235908   6.826   4.745   6.488
11988TIP3    H135909   6.895   4.804   6.518
11988TIP3    H235910   6.856   4.714   6.402
11989TIP3   OH235911   3.541   6.218   0.239
11989TIP3    H135912   3.504   6.146   0.290
11989TIP3    H235913   3.540   6.187   0.149
11990TIP3   OH235914   1.421   6.303   2.063
11990TIP3    H135915   1.490   6.345   2.010
11990TIP3    H235916   1.416   6.214   2.029
11991TIP3   OH235917   1.240   0.605   4.480
11991TIP3    H135918   1.247   0.636   4.570
11991TIP3    H235919   1.224   0.511   4.488
11992TIP3   OH235920   0.858   7.374   6.503
11992TIP3    H135921   0.803   7.430   6.558
11992TIP3    H235922   0.893   7.433   6.436
11993TIP3   OH235923   2.408   2.645   0.322
11993TIP3    H135924   2.322   2.659   0.363
11993TIP3    H235925   2.470   2.653   0.394
11994TIP3   OH235926   7.273   5.839   5.830
11994TIP3    H135927   7.219   5.918   5.831
11994TIP3    H235928   7.213   5.769   5.802
11995TIP3   OH235929   2.706   4.270   4.924
11995TIP3    H135930   2.759   4.350   4.922
11995TIP3    H235931   2.721   4.229   4.840
11996TIP3   OH235932   5.138   2.186   5.734
11996TIP3    H135933   5.191   2.163   5.811
11996TIP3    H235934   5.075   2.115   5.726
11997TIP3   OH235935   1.308   7.471   6.239
11997TIP3    H135936   1.215   7.464   6.259
11997TIP3    H235937   1.324   7.565   6.233
11998TIP3   OH235938   2.517   3.932   3.236
11998TIP3    H135939   2.456   3.972   3.174
11998TIP3    H235940   2.514   3.988   3.313
11999TIP3   OH235941   5.554   6.751   2.744
11999TIP3    H135942   5.601   6.809   2.805
11999TIP3    H235943   5.597   6.666   2.754
12000TIP3   OH235944   3.182   1.837   2.655
12000TIP3    H135945   3.264   1.826   2.607
12000TIP3    H235946   3.139   1.911   2.612
12001TIP3   OH235947   2.889   7.031   4.788
12001TIP3    H135948   2.959   7.013   4.725
12001TIP3    H235949   2.903   7.123   4.812
12002TIP3   OH235950   3.663   7.137   0.167
12002TIP3    H135951   3.602   7.175   0.230
12002TIP3    H235952   3.607   7.097   0.100
12003TIP3   OH235953   3.626   7.362   2.022
12003TIP3    H135954   3.647   7.278   1.983
12003TIP3    H235955   3.706   7.414   2.013
12004TIP3   OH235956   2.039   5.417   3.424
12004TIP3    H135957   2.057   5.479   3.494
12004TIP3    H235958   2.055   5.331   3.463
12005TIP3   OH235959   5.346   4.391   5.915
12005TIP3    H135960   5.280   4.434   5.970
12005TIP3    H235961   5.301   4.313   5.880
12006TIP3   OH235962   4.314   7.618   1.816
12006TIP3    H135963   4.361   7.600   1.734
12006TIP3    H235964   4.322   7.537   1.867
12007TIP3   OH235965   3.944   2.993   3.048
12007TIP3    H135966   4.021   3.036   3.011
12007TIP3    H235967   3.934   3.032   3.135
12008TIP3   OH235968   8.050   1.096   4.897
12008TIP3    H135969   8.126   1.092   4.955
12008TIP3    H235970   8.061   1.022   4.837
12009TIP3   OH235971   3.355   6.242   4.398
12009TIP3    H135972   3.394   6.280   4.477
12009TIP3    H235973   3.345   6.316   4.338
12010TIP3   OH235974   5.230   7.681   3.291
12010TIP3    H135975   5.281   7.730   3.355
12010TIP3    H235976   5.221   7.594   3.330
12011TIP3   OH235977   0.286   1.132   6.334
12011TIP3    H135978   0.203   1.085   6.344
12011TIP3    H235979   0.354   1.067   6.352
12012TIP3   OH235980   1.190   0.619   1.284
12012TIP3    H135981   1.191   0.698   1.230
12012TIP3    H235982   1.282   0.594   1.293
12013TIP3   OH235983   7.357   3.948   1.156
12013TIP3    H135984   7.367   3.855   1.174
12013TIP3    H235985   7.281   3.975   1.208
12014TIP3   OH235986   2.863   0.041   1.330
12014TIP3    H135987   2.848   0.085   1.246
12014TIP3    H235988   2.795   0.077   1.388
12015TIP3   OH235989   3.550   0.370   4.082
12015TIP3    H135990   3.541   0.278   4.107
12015TIP3    H235991   3.592   0.368   3.997
12016TIP3   OH235992   7.357   7.016   3.780
12016TIP3    H135993   7.402   6.969   3.709
12016TIP3    H235994   7.412   7.092   3.797
12017TIP3   OH235995   0.658   3.522   0.848
12017TIP3    H135996   0.618   3.529   0.935
12017TIP3    H235997   0.589   3.484   0.794
12018TIP3   OH235998   1.870   5.030   2.770
12018TIP3    H135999   1.803   4.967   2.746
12018TIP3    H236000   1.829   5.116   2.759
12019TIP3   OH236001   5.771   0.039   1.257
12019TIP3    H136002   5.707   0.009   1.321
12019TIP3    H236003   5.766  -0.025   1.186
12020TIP3   OH236004   3.822   1.934   2.693
12020TIP3    H136005   3.754   1.979   2.743
12020TIP3    H236006   3.781   1.912   2.610
12021TIP3   OH236007   3.421   4.611   5.883
12021TIP3    H136008   3.407   4.551   5.956
12021TIP3    H236009   3.334   4.645   5.863
12022TIP3   OH236010   1.462   2.682   1.863
12022TIP3    H136011   1.547   2.670   1.907
12022TIP3    H236012   1.480   2.665   1.771
12023TIP3   OH236013   0.125   0.202   4.525
12023TIP3    H136014   0.133   0.106   4.523
12023TIP3    H236015   0.071   0.223   4.450
12024TIP3   OH236016   4.156   4.701   4.565
12024TIP3    H136017   4.091   4.634   4.585
12024TIP3    H236018   4.120   4.782   4.601
12025TIP3   OH236019   3.528   5.084   3.123
12025TIP3    H136020   3.505   5.012   3.064
12025TIP3    H236021   3.623   5.089   3.118
12026TIP3   OH236022   1.087   1.469   1.222
12026TIP3    H136023   1.045   1.535   1.278
12026TIP3    H236024   1.036   1.389   1.238
12027TIP3   OH236025   0.911   0.510   2.417
12027TIP3    H136026   0.942   0.491   2.506
12027TIP3    H236027   0.869   0.595   2.425
12028TIP3   OH236028   7.581   0.452   1.164
12028TIP3    H136029   7.490   0.424   1.166
12028TIP3    H236030   7.631   0.371   1.155
12029TIP3   OH236031   8.043   3.706   0.345
12029TIP3    H136032   8.041   3.782   0.288
12029TIP3    H236033   8.094   3.734   0.421
12030TIP3   OH236034   7.487   3.541   0.428
12030TIP3    H136035   7.558   3.564   0.489
12030TIP3    H236036   7.495   3.603   0.356
12031TIP3   OH236037   6.281   0.428   4.062
12031TIP3    H136038   6.342   0.492   4.100
12031TIP3    H236039   6.255   0.373   4.137
12032TIP3   OH236040   5.923   4.301   0.181
12032TIP3    H136041   5.907   4.212   0.148
12032TIP3    H236042   5.927   4.291   0.276
12033TIP3   OH236043   1.367   7.020   6.133
12033TIP3    H136044   1.388   7.031   6.226
12033TIP3    H236045   1.383   7.106   6.095
12034TIP3   OH236046   1.286   0.791   3.066
12034TIP3    H136047   1.202   0.762   3.029
12034TIP3    H236048   1.352   0.754   3.007
12035TIP3   OH236049   6.074   1.513   3.290
12035TIP3    H136050   6.015   1.574   3.336
12035TIP3    H236051   6.159   1.527   3.331
12036TIP3   OH236052   8.191   4.976   0.627
12036TIP3    H136053   8.129   4.940   0.563
12036TIP3    H236054   8.142   4.980   0.709
12037TIP3   OH236055   3.805   4.299   4.508
12037TIP3    H136056   3.882   4.311   4.563
12037TIP3    H236057   3.731   4.299   4.569
12038TIP3   OH236058   3.127   6.530   5.324
12038TIP3    H136059   3.082   6.606   5.360
12038TIP3    H236060   3.202   6.567   5.277
12039TIP3   OH236061   5.469   2.446   3.397
12039TIP3    H136062   5.499   2.469   3.485
12039TIP3    H236063   5.549   2.419   3.351
12040TIP3   OH236064   7.493   6.916   1.015
12040TIP3    H136065   7.405   6.892   1.042
12040TIP3    H236066   7.528   6.838   0.973
12041TIP3   OH236067   1.064   4.272   3.532
12041TIP3    H136068   1.079   4.303   3.442
12041TIP3    H236069   1.047   4.178   3.523
12042TIP3   OH236070   5.205   3.744   5.675
12042TIP3    H136071   5.169   3.659   5.699
12042TIP3    H236072   5.210   3.742   5.579
12043TIP3   OH236073   5.788   6.841   4.104
12043TIP3    H136074   5.785   6.788   4.024
12043TIP3    H236075   5.739   6.920   4.082
12044TIP3   OH236076   0.842   0.488   2.159
12044TIP3    H136077   0.866   0.490   2.251
12044TIP3    H236078   0.907   0.545   2.116
12045TIP3   OH236079   3.994   6.527   4.951
12045TIP3    H136080   4.050   6.539   4.875
12045TIP3    H236081   3.911   6.496   4.916
12046TIP3   OH236082   4.654   1.595   3.843
12046TIP3    H136083   4.703   1.525   3.800
12046TIP3    H236084   4.638   1.659   3.775
12047TIP3   OH236085   6.108   2.868   0.150
12047TIP3    H136086   6.036   2.900   0.096
12047TIP3    H236087   6.172   2.940   0.149
12048TIP3   OH236088   6.679   6.312   0.678
12048TIP3    H136089   6.672   6.400   0.641
12048TIP3    H236090   6.590   6.292   0.707
12049TIP3   OH236091   7.270   6.543   5.936
12049TIP3    H136092   7.334   6.482   5.899
12049TIP3    H236093   7.220   6.489   5.998
12050TIP3   OH236094   2.116   7.086   3.299
12050TIP3    H136095   2.157   7.066   3.383
12050TIP3    H236096   2.188   7.107   3.241
12051TIP3   OH236097   3.640   6.002   1.832
12051TIP3    H136098   3.690   5.947   1.773
12051TIP3    H236099   3.662   6.091   1.806
12052TIP3   OH236100   4.548   0.767   2.339
12052TIP3    H136101   4.546   0.673   2.320
12052TIP3    H236102   4.607   0.775   2.414
12053TIP3   OH236103   4.128   4.719   4.288
12053TIP3    H136104   4.122   4.723   4.383
12053TIP3    H236105   4.038   4.706   4.258
12054TIP3   OH236106   1.169   3.053   5.033
12054TIP3    H136107   1.245   3.072   4.978
12054TIP3    H236108   1.171   2.958   5.046
12055TIP3   OH236109   7.321   6.253   3.885
12055TIP3    H136110   7.300   6.240   3.793
12055TIP3    H236111   7.283   6.338   3.907
12056TIP3   OH236112   5.513   6.704   5.751
12056TIP3    H136113   5.603   6.713   5.721
12056TIP3    H236114   5.520   6.690   5.846
12057TIP3   OH236115   7.338   1.290   5.200
12057TIP3    H136116   7.385   1.248   5.272
12057TIP3    H236117   7.304   1.217   5.148
12058TIP3   OH236118   2.454   7.313   6.348
12058TIP3    H136119   2.390   7.358   6.292
12058TIP3    H236120   2.411   7.309   6.434
12059TIP3   OH236121   0.801   2.310   5.758
12059TIP3    H136122   0.745   2.235   5.738
12059TIP3    H236123   0.766   2.381   5.705
12060TIP3   OH236124   2.990   6.533   0.834
12060TIP3    H136125   3.007   6.619   0.794
12060TIP3    H236126   2.907   6.505   0.796
12061TIP3   OH236127   2.106   0.176   6.428
12061TIP3    H136128   2.195   0.168   6.393
12061TIP3    H236129   2.119   0.199   6.520
12062TIP3   OH236130   8.267   6.626   0.489
12062TIP3    H136131   8.213   6.694   0.448
12062TIP3    H236132   8.355   6.664   0.494
12063TIP3   OH236133   5.979   0.468   4.808
12063TIP3    H136134   6.006   0.379   4.789
12063TIP3    H236135   6.060   0.513   4.832
12064TIP3   OH236136   0.420   3.636   4.968
12064TIP3    H136137   0.454   3.579   4.898
12064TIP3    H236138   0.330   3.654   4.943
12065TIP3   OH236139   5.096   7.047   6.565
12065TIP3    H136140   5.046   7.128   6.562
12065TIP3    H236141   5.078   7.010   6.651
12066TIP3   OH236142   6.641   0.440   6.783
12066TIP3    H136143   6.587   0.398   6.715
12066TIP3    H236144   6.691   0.368   6.820
12067TIP3   OH236145   2.061   2.350   4.133
12067TIP3    H136146   2.121   2.381   4.065
12067TIP3    H236147   2.119   2.314   4.200
12068TIP3   OH236148   2.453   4.539   4.890
12068TIP3    H136149   2.398   4.466   4.919
12068TIP3    H236150   2.498   4.568   4.969
12069TIP3   OH236151   1.249   2.730   0.045
12069TIP3    H136152   1.157   2.747   0.027
12069TIP3    H236153   1.285   2.815   0.070
12070TIP3   OH236154   3.497   3.137   5.825
12070TIP3    H136155   3.417   3.106   5.867
12070TIP3    H236156   3.482   3.124   5.731
12071TIP3   OH236157   1.730   7.141   3.334
12071TIP3    H136158   1.774   7.223   3.312
12071TIP3    H236159   1.798   7.074   3.326
12072TIP3   OH236160   6.442   4.175   4.902
12072TIP3    H136161   6.471   4.263   4.879
12072TIP3    H236162   6.413   4.183   4.993
12073TIP3   OH236163   2.096   2.627   2.386
12073TIP3    H136164   2.134   2.615   2.473
12073TIP3    H236165   2.112   2.544   2.341
12074TIP3   OH236166   3.985   6.526   0.309
12074TIP3    H136167   4.052   6.540   0.242
12074TIP3    H236168   3.918   6.473   0.267
12075TIP3   OH236169   3.596   7.296   5.977
12075TIP3    H136170   3.627   7.381   6.006
12075TIP3    H236171   3.501   7.299   5.989
12076TIP3   OH236172   1.717   5.908   4.388
12076TIP3    H136173   1.707   5.893   4.294
12076TIP3    H236174   1.645   5.858   4.427
12077TIP3   OH236175   6.184   3.372   0.931
12077TIP3    H136176   6.242   3.298   0.945
12077TIP3    H236177   6.185   3.386   0.836
12078TIP3   OH236178   3.670   3.089   0.087
12078TIP3    H136179   3.629   3.162   0.042
12078TIP3    H236180   3.707   3.127   0.167
12079TIP3   OH236181   2.533   7.367   5.983
12079TIP3    H136182   2.522   7.372   5.888
12079TIP3    H236183   2.443   7.372   6.017
12080TIP3   OH236184   7.904   0.061   4.111
12080TIP3    H136185   7.890   0.101   4.026
12080TIP3    H236186   7.960   0.123   4.158
12081TIP3   OH236187   6.055   4.999   6.686
12081TIP3    H136188   5.963   4.977   6.700
12081TIP3    H236189   6.100   4.915   6.687
12082TIP3   OH236190   1.771   2.674   3.886
12082TIP3    H136191   1.781   2.622   3.806
12082TIP3    H236192   1.691   2.642   3.926
12083TIP3   OH236193   7.545   4.502   6.283
12083TIP3    H136194   7.528   4.587   6.324
12083TIP3    H236195   7.639   4.488   6.296
12084TIP3   OH236196   2.628   5.298   5.048
12084TIP3    H136197   2.650   5.270   5.137
12084TIP3    H236198   2.693   5.365   5.027
12085TIP3   OH236199   1.904   5.231   0.097
12085TIP3    H136200   1.915   5.165   0.028
12085TIP3    H236201   1.882   5.181   0.175
12086TIP3   OH236202   0.083   6.733   4.370
12086TIP3    H136203   0.136   6.681   4.430
12086TIP3    H236204   0.146   6.791   4.326
12087TIP3   OH236205   5.823   3.127   5.683
12087TIP3    H136206   5.756   3.062   5.663
12087TIP3    H236207   5.774   3.207   5.705
12088TIP3   OH236208   4.789   1.935   0.906
12088TIP3    H136209   4.715   1.986   0.938
12088TIP3    H236210   4.799   1.863   0.969
12089TIP3   OH236211   6.775   7.067   3.275
12089TIP3    H136212   6.762   7.155   3.239
12089TIP3    H236213   6.865   7.045   3.251
12090TIP3   OH236214   5.463   3.501   0.815
12090TIP3    H136215   5.386   3.494   0.871
12090TIP3    H236216   5.435   3.557   0.742
12091TIP3   OH236217   0.493   2.173   5.026
12091TIP3    H136218   0.568   2.231   5.032
12091TIP3    H236219   0.483   2.156   4.932
12092TIP3   OH236220   2.481   3.841   1.255
12092TIP3    H136221   2.475   3.932   1.224
12092TIP3    H236222   2.514   3.849   1.344
12093TIP3   OH236223   0.527   1.308   2.764
12093TIP3    H136224   0.565   1.360   2.694
12093TIP3    H236225   0.465   1.249   2.720
12094TIP3   OH236226   5.081   6.693   2.516
12094TIP3    H136227   5.122   6.755   2.455
12094TIP3    H236228   5.150   6.674   2.580
12095TIP3   OH236229   7.896   6.885   2.685
12095TIP3    H136230   7.983   6.875   2.645
12095TIP3    H236231   7.915   6.915   2.774
12096TIP3   OH236232   0.777   2.538   4.843
12096TIP3    H136233   0.751   2.500   4.759
12096TIP3    H236234   0.869   2.512   4.854
12097TIP3   OH236235   2.967   7.571   0.337
12097TIP3    H136236   2.939   7.566   0.245
12097TIP3    H236237   3.045   7.625   0.335
12098TIP3   OH236238   7.721   4.160   6.510
12098TIP3    H136239   7.725   4.089   6.446
12098TIP3    H236240   7.736   4.118   6.595
12099TIP3   OH236241   7.344   6.374   0.670
12099TIP3    H136242   7.321   6.443   0.609
12099TIP3    H236243   7.437   6.357   0.653
12100TIP3   OH236244   5.958   3.040   0.680
12100TIP3    H136245   5.878   3.074   0.720
12100TIP3    H236246   5.927   2.992   0.603
12101TIP3   OH236247   4.988   6.809   4.729
12101TIP3    H136248   5.081   6.829   4.733
12101TIP3    H236249   4.945   6.882   4.773
12102TIP3   OH236250   2.713   0.511   3.673
12102TIP3    H136251   2.683   0.602   3.666
12102TIP3    H236252   2.808   0.518   3.680
12103TIP3   OH236253   0.373   4.023   3.946
12103TIP3    H136254   0.453   4.068   3.974
12103TIP3    H236255   0.381   4.017   3.850
12104TIP3   OH236256   5.402   7.154   2.136
12104TIP3    H136257   5.307   7.150   2.130
12104TIP3    H236258   5.420   7.237   2.181
12105TIP3   OH236259   5.903   4.488   0.722
12105TIP3    H136260   5.908   4.456   0.633
12105TIP3    H236261   5.987   4.532   0.736
12106TIP3   OH236262   0.972   1.136   3.341
12106TIP3    H136263   0.877   1.138   3.357
12106TIP3    H236264   1.011   1.129   3.428
12107TIP3   OH236265   4.294   1.552   2.877
12107TIP3    H136266   4.227   1.619   2.893
12107TIP3    H236267   4.265   1.476   2.928
12108TIP3   OH236268   4.638   6.676   4.408
12108TIP3    H136269   4.558   6.720   4.436
12108TIP3    H236270   4.613   6.584   4.397
12109TIP3   OH236271   2.721   7.298   4.154
12109TIP3    H136272   2.732   7.204   4.137
12109TIP3    H236273   2.803   7.324   4.196
12110TIP3   OH236274   2.737   6.127   4.402
12110TIP3    H136275   2.826   6.097   4.421
12110TIP3    H236276   2.723   6.102   4.311
12111TIP3   OH236277   2.813   4.239   1.075
12111TIP3    H136278   2.763   4.303   1.023
12111TIP3    H236279   2.872   4.293   1.128
12112TIP3   OH236280   4.644   4.881   3.821
12112TIP3    H136281   4.644   4.867   3.915
12112TIP3    H236282   4.645   4.793   3.783
12113TIP3   OH236283   5.954   4.918   0.873
12113TIP3    H136284   5.885   4.982   0.891
12113TIP3    H236285   5.945   4.900   0.780
12114TIP3   OH236286   2.112   7.740   1.438
12114TIP3    H136287   2.176   7.676   1.469
12114TIP3    H236288   2.100   7.800   1.511
12115TIP3   OH236289   7.526   5.847   2.906
12115TIP3    H136290   7.472   5.836   2.827
12115TIP3    H236291   7.558   5.759   2.924
12116TIP3   OH236292   1.480   5.186   3.189
12116TIP3    H136293   1.479   5.184   3.093
12116TIP3    H236294   1.418   5.255   3.212
12117TIP3   OH236295   4.323   0.217   4.511
12117TIP3    H136296   4.406   0.194   4.469
12117TIP3    H236297   4.258   0.214   4.441
12118TIP3   OH236298   4.595  -0.002   2.994
12118TIP3    H136299   4.595  -0.049   2.910
12118TIP3    H236300   4.511   0.042   2.997
12119TIP3   OH236301   7.701   7.108   1.092
12119TIP3    H136302   7.609   7.084   1.093
12119TIP3    H236303   7.735   7.072   1.010
12120TIP3   OH236304   0.101   6.487   6.373
12120TIP3    H136305   0.020   6.470   6.422
12120TIP3    H236306   0.167   6.500   6.441
12121TIP3   OH236307   5.095   2.993   4.878
12121TIP3    H136308   5.158   3.064   4.879
12121TIP3    H236309   5.131   2.928   4.940
12122TIP3   OH236310   4.190   5.852   3.714
12122TIP3    H136311   4.283   5.835   3.730
12122TIP3    H236312   4.145   5.790   3.772
12123TIP3   OH236313   8.126   2.804   3.692
12123TIP3    H136314   8.176   2.810   3.611
12123TIP3    H236315   8.059   2.738   3.675
12124TIP3   OH236316   7.312   2.917   1.460
12124TIP3    H136317   7.270   2.967   1.530
12124TIP3    H236318   7.239   2.886   1.407
12125TIP3   OH236319   1.723   7.537   5.580
12125TIP3    H136320   1.694   7.446   5.571
12125TIP3    H236321   1.655   7.588   5.537
12126TIP3   OH236322   2.149   7.664   4.703
12126TIP3    H136323   2.104   7.597   4.754
12126TIP3    H236324   2.102   7.745   4.723
12127TIP3   OH236325   7.814   1.862   0.387
12127TIP3    H136326   7.740   1.861   0.447
12127TIP3    H236327   7.814   1.949   0.348
12128TIP3   OH236328   1.619   0.999   3.633
12128TIP3    H136329   1.673   1.049   3.695
12128TIP3    H236330   1.570   0.938   3.688
12129TIP3   OH236331   0.414   0.753   6.306
12129TIP3    H136332   0.357   0.750   6.383
12129TIP3    H236333   0.354   0.748   6.232
12130TIP3   OH236334   4.021   5.567   3.838
12130TIP3    H136335   4.073   5.580   3.758
12130TIP3    H236336   3.933   5.597   3.815
12131TIP3   OH236337   6.048   3.583   1.794
12131TIP3    H136338   6.010   3.516   1.738
12131TIP3    H236339   6.083   3.535   1.869
12132TIP3   OH236340   3.548   2.570   3.392
12132TIP3    H136341   3.640   2.576   3.365
12132TIP3    H236342   3.544   2.620   3.474
12133TIP3   OH236343   1.003   5.295   1.933
12133TIP3    H136344   1.088   5.324   1.966
12133TIP3    H236345   1.021   5.210   1.893
12134TIP3   OH236346   4.156   3.936   5.176
12134TIP3    H136347   4.172   4.030   5.188
12134TIP3    H236348   4.078   3.932   5.121
12135TIP3   OH236349   3.541   4.470   5.687
12135TIP3    H136350   3.585   4.401   5.737
12135TIP3    H236351   3.495   4.522   5.752
12136TIP3   OH236352   7.940   4.187   5.487
12136TIP3    H136353   7.897   4.119   5.538
12136TIP3    H236354   7.966   4.143   5.406
12137TIP3   OH236355   4.687   4.627   0.559
12137TIP3    H136356   4.657   4.708   0.518
12137TIP3    H236357   4.745   4.656   0.629
12138TIP3   OH236358   6.753   6.686   2.428
12138TIP3    H136359   6.703   6.631   2.488
12138TIP3    H236360   6.844   6.657   2.440
12139TIP3   OH236361   1.086   4.085   6.377
12139TIP3    H136362   1.112   4.018   6.440
12139TIP3    H236363   1.124   4.056   6.294
12140TIP3   OH236364   1.052   5.454   2.736
12140TIP3    H136365   1.118   5.518   2.761
12140TIP3    H236366   1.029   5.476   2.646
12141TIP3   OH236367   0.994   3.242   3.796
12141TIP3    H136368   0.999   3.266   3.703
12141TIP3    H236369   1.083   3.254   3.829
12142TIP3   OH236370   2.380   7.774   1.647
12142TIP3    H136371   2.325   7.756   1.723
12142TIP3    H236372   2.356   7.707   1.583
12143TIP3   OH236373   2.543   0.045   5.794
12143TIP3    H136374   2.474   0.109   5.811
12143TIP3    H236375   2.623   0.098   5.785
12144TIP3   OH236376   1.302   3.752   0.088
12144TIP3    H136377   1.296   3.725   0.179
12144TIP3    H236378   1.252   3.686   0.040
12145TIP3   OH236379   4.728   2.665   4.219
12145TIP3    H136380   4.813   2.621   4.228
12145TIP3    H236381   4.737   2.720   4.142
12146TIP3   OH236382   3.702   0.554   1.018
12146TIP3    H136383   3.704   0.522   0.927
12146TIP3    H236384   3.670   0.480   1.069
12147TIP3   OH236385   3.792   3.188   3.873
12147TIP3    H136386   3.771   3.190   3.966
12147TIP3    H236387   3.744   3.112   3.839
12148TIP3   OH236388   6.474   3.161   2.050
12148TIP3    H136389   6.475   3.183   2.144
12148TIP3    H236390   6.490   3.244   2.006
12149TIP3   OH236391   5.018   4.759   0.027
12149TIP3    H136392   4.978   4.828   0.080
12149TIP3    H236393   5.057   4.806  -0.047
12150TIP3   OH236394   8.259   4.668   0.310
12150TIP3    H136395   8.268   4.672   0.405
12150TIP3    H236396   8.311   4.592   0.284
12151TIP3   OH236397   2.219   7.747   5.554
12151TIP3    H136398   2.200   7.661   5.518
12151TIP3    H236399   2.178   7.808   5.492
12152TIP3   OH236400   1.231   6.546   5.637
12152TIP3    H136401   1.275   6.485   5.578
12152TIP3    H236402   1.154   6.499   5.668
12153TIP3   OH236403   0.068   7.797   0.330
12153TIP3    H136404   0.016   7.733   0.282
12153TIP3    H236405   0.035   7.882   0.299
12154TIP3   OH236406   6.563   4.012   0.459
12154TIP3    H136407   6.574   4.028   0.552
12154TIP3    H236408   6.618   3.935   0.441
12155TIP3   OH236409   6.501   6.937   4.389
12155TIP3    H136410   6.510   7.032   4.399
12155TIP3    H236411   6.418   6.926   4.341
12156TIP3   OH236412   0.908   3.639   6.765
12156TIP3    H136413   0.822   3.597   6.763
12156TIP3    H236414   0.889   3.732   6.762
12157TIP3   OH236415   6.305   7.450   6.355
12157TIP3    H136416   6.267   7.430   6.441
12157TIP3    H236417   6.389   7.404   6.355
12158TIP3   OH236418   4.318   1.301   0.319
12158TIP3    H136419   4.271   1.347   0.389
12158TIP3    H236420   4.250   1.250   0.274
12159TIP3   OH236421   2.256   3.803   5.763
12159TIP3    H136422   2.325   3.841   5.708
12159TIP3    H236423   2.189   3.775   5.701
12160TIP3   OH236424   1.809   5.602   2.313
12160TIP3    H136425   1.865   5.579   2.387
12160TIP3    H236426   1.771   5.519   2.285
12161TIP3   OH236427   3.153   4.612   1.148
12161TIP3    H136428   3.161   4.517   1.156
12161TIP3    H236429   3.097   4.626   1.072
12162TIP3   OH236430   0.958   1.436   0.894
12162TIP3    H136431   0.923   1.450   0.982
12162TIP3    H236432   0.891   1.385   0.849
12163TIP3   OH236433   5.114   7.771   1.193
12163TIP3    H136434   5.198   7.746   1.153
12163TIP3    H236435   5.049   7.747   1.127
12164TIP3   OH236436   4.292   1.662   5.851
12164TIP3    H136437   4.352   1.619   5.913
12164TIP3    H236438   4.209   1.617   5.863
12165TIP3   OH236439   7.802   7.183   2.899
12165TIP3    H136440   7.742   7.119   2.862
12165TIP3    H236441   7.855   7.213   2.825
12166TIP3   OH236442   7.384   5.386   6.616
12166TIP3    H136443   7.299   5.420   6.642
12166TIP3    H236444   7.385   5.394   6.521
12167TIP3   OH236445   2.534   0.641   0.669
12167TIP3    H136446   2.587   0.700   0.614
12167TIP3    H236447   2.524   0.562   0.616
12168TIP3   OH236448   1.908   5.624   3.568
12168TIP3    H136449   1.818   5.599   3.547
12168TIP3    H236450   1.923   5.588   3.655
12169TIP3   OH236451   0.909   6.951   0.192
12169TIP3    H136452   0.957   6.911   0.264
12169TIP3    H236453   0.937   7.042   0.191
12170TIP3   OH236454   3.010   7.295   0.036
12170TIP3    H136455   2.926   7.313  -0.007
12170TIP3    H236456   3.016   7.200   0.038
12171TIP3   OH236457   5.112   5.857   2.468
12171TIP3    H136458   5.123   5.893   2.380
12171TIP3    H236459   5.024   5.883   2.494
12172TIP3   OH236460   3.449   2.266   1.890
12172TIP3    H136461   3.430   2.265   1.984
12172TIP3    H236462   3.391   2.333   1.855
12173TIP3   OH236463   2.654   5.595   6.076
12173TIP3    H136464   2.578   5.603   6.019
12173TIP3    H236465   2.633   5.648   6.153
12174TIP3   OH236466   5.882   6.058   1.760
12174TIP3    H136467   5.803   6.006   1.774
12174TIP3    H236468   5.869   6.098   1.674
12175TIP3   OH236469   6.946   3.803   5.716
12175TIP3    H136470   6.970   3.885   5.758
12175TIP3    H236471   7.020   3.782   5.659
12176TIP3   OH236472   4.583   3.429   5.479
12176TIP3    H136473   4.499   3.454   5.440
12176TIP3    H236474   4.586   3.477   5.562
12177TIP3   OH236475   1.804   7.431   4.314
12177TIP3    H136476   1.843   7.379   4.383
12177TIP3    H236477   1.874   7.442   4.250
12178TIP3   OH236478   6.052   6.720   6.142
12178TIP3    H136479   6.017   6.796   6.094
12178TIP3    H236480   6.124   6.755   6.194
12179TIP3   OH236481   0.944   7.529   0.174
12179TIP3    H136482   0.924   7.532   0.267
12179TIP3    H236483   1.014   7.593   0.162
12180TIP3   OH236484   3.693   6.754   4.456
12180TIP3    H136485   3.629   6.791   4.517
12180TIP3    H236486   3.649   6.679   4.417
12181TIP3   OH236487   2.235   7.569   4.453
12181TIP3    H136488   2.202   7.604   4.536
12181TIP3    H236489   2.319   7.529   4.476
12182TIP3   OH236490   1.628   1.921   6.253
12182TIP3    H136491   1.692   1.858   6.286
12182TIP3    H236492   1.659   2.005   6.287
12183TIP3   OH236493   5.908   4.577   6.582
12183TIP3    H136494   5.906   4.507   6.646
12183TIP3    H236495   5.992   4.567   6.537
12184TIP3   OH236496   5.548   3.782   0.116
12184TIP3    H136497   5.634   3.759   0.081
12184TIP3    H236498   5.533   3.719   0.186
12185TIP3   OH236499   7.944   4.513   5.181
12185TIP3    H136500   7.945   4.608   5.173
12185TIP3    H236501   7.938   4.497   5.275
12186TIP3   OH236502   6.298   2.464   4.709
12186TIP3    H136503   6.208   2.435   4.693
12186TIP3    H236504   6.336   2.473   4.621
12187TIP3   OH236505   3.654   4.677   2.118
12187TIP3    H136506   3.675   4.741   2.050
12187TIP3    H236507   3.709   4.703   2.192
12188TIP3   OH236508   5.210   4.946   1.713
12188TIP3    H136509   5.172   4.864   1.744
12188TIP3    H236510   5.140   4.986   1.660
12189TIP3   OH236511   4.992   6.569   2.244
12189TIP3    H136512   4.994   6.618   2.327
12189TIP3    H236513   5.084   6.554   2.223
12190TIP3   OH236514   7.657   7.829   6.712
12190TIP3    H136515   7.723   7.885   6.671
12190TIP3    H236516   7.705   7.750   6.737
12191TIP3   OH236517   2.352   6.765   4.491
12191TIP3    H136518   2.372   6.818   4.414
12191TIP3    H236519   2.434   6.763   4.540
12192TIP3   OH236520   4.170   1.036   3.330
12192TIP3    H136521   4.189   0.942   3.318
12192TIP3    H236522   4.256   1.077   3.336
12193TIP3   OH236523   5.683   3.238   3.757
12193TIP3    H136524   5.623   3.164   3.770
12193TIP3    H236525   5.635   3.314   3.790
12194TIP3   OH236526   1.962   3.371   6.053
12194TIP3    H136527   1.937   3.462   6.042
12194TIP3    H236528   2.058   3.372   6.051
12195TIP3   OH236529   3.206   2.965   1.898
12195TIP3    H136530   3.160   3.035   1.945
12195TIP3    H236531   3.194   2.986   1.806
12196TIP3   OH236532   3.798   3.641   6.582
12196TIP3    H136533   3.846   3.655   6.500
12196TIP3    H236534   3.708   3.626   6.554
12197TIP3   OH236535   4.616   5.290   3.268
12197TIP3    H136536   4.619   5.205   3.225
12197TIP3    H236537   4.528   5.296   3.304
12198TIP3   OH236538   7.752   3.762   6.614
12198TIP3    H136539   7.688   3.732   6.550
12198TIP3    H236540   7.835   3.722   6.586
12199TIP3   OH236541   3.166   5.547   0.950
12199TIP3    H136542   3.105   5.498   0.894
12199TIP3    H236543   3.248   5.498   0.944
12200TIP3   OH236544   1.239   5.606   5.740
12200TIP3    H136545   1.330   5.600   5.769
12200TIP3    H236546   1.221   5.522   5.698
12201TIP3   OH236547   6.746   5.059   2.028
12201TIP3    H136548   6.823   5.002   2.035
12201TIP3    H236549   6.692   5.035   2.103
12202TIP3   OH236550   3.186   6.549   3.786
12202TIP3    H136551   3.189   6.473   3.729
12202TIP3    H236552   3.102   6.541   3.833
12203TIP3   OH236553   4.068   0.218   6.489
12203TIP3    H136554   4.123   0.198   6.565
12203TIP3    H236555   4.126   0.264   6.428
12204TIP3   OH236556   6.186   5.726   1.989
12204TIP3    H136557   6.175   5.638   2.025
12204TIP3    H236558   6.280   5.745   1.999
12205TIP3   OH236559   8.145   4.202   5.679
12205TIP3    H136560   8.070   4.215   5.621
12205TIP3    H236561   8.219   4.236   5.630
12206TIP3   OH236562   6.337   0.846   0.406
12206TIP3    H136563   6.296   0.870   0.323
12206TIP3    H236564   6.383   0.764   0.387
12207TIP3   OH236565   0.764   0.757   1.943
12207TIP3    H136566   0.837   0.714   1.897
12207TIP3    H236567   0.790   0.849   1.949
12208TIP3   OH236568   6.118   7.524  -0.005
12208TIP3    H136569   6.158   7.599   0.039
12208TIP3    H236570   6.066   7.481   0.063
12209TIP3   OH236571   3.821   0.348   6.566
12209TIP3    H136572   3.891   0.294   6.531
12209TIP3    H236573   3.866   0.427   6.598
12210TIP3   OH236574   7.727   4.672   3.275
12210TIP3    H136575   7.790   4.736   3.308
12210TIP3    H236576   7.728   4.602   3.340
12211TIP3   OH236577   5.048   2.515   6.475
12211TIP3    H136578   5.086   2.487   6.558
12211TIP3    H236579   5.099   2.469   6.409
12212TIP3   OH236580   4.277   5.232   0.877
12212TIP3    H136581   4.214   5.211   0.946
12212TIP3    H236582   4.314   5.316   0.902
12213TIP3   OH236583   7.545   0.003   5.434
12213TIP3    H136584   7.499   0.061   5.374
12213TIP3    H236585   7.602   0.061   5.485
12214TIP3   OH236586   1.076   5.399   2.435
12214TIP3    H136587   1.051   5.461   2.367
12214TIP3    H236588   1.033   5.318   2.411
12215TIP3   OH236589   4.751   3.595   2.707
12215TIP3    H136590   4.675   3.546   2.678
12215TIP3    H236591   4.758   3.576   2.801
12216TIP3   OH236592   1.525   2.751   1.366
12216TIP3    H136593   1.490   2.662   1.354
12216TIP3    H236594   1.449   2.808   1.352
12217TIP3   OH236595   7.128   7.631   2.122
12217TIP3    H136596   7.098   7.608   2.035
12217TIP3    H236597   7.136   7.547   2.168
12218TIP3   OH236598   4.312   3.536   4.453
12218TIP3    H136599   4.349   3.555   4.366
12218TIP3    H236600   4.334   3.614   4.505
12219TIP3   OH236601   7.628   2.667   2.910
12219TIP3    H136602   7.536   2.643   2.923
12219TIP3    H236603   7.640   2.667   2.815
12220TIP3   OH236604   7.673   2.979   4.868
12220TIP3    H136605   7.754   2.928   4.856
12220TIP3    H236606   7.615   2.947   4.799
12221TIP3   OH236607   7.080   0.933   2.301
12221TIP3    H136608   7.097   1.027   2.307
12221TIP3    H236609   7.079   0.915   2.207
12222TIP3   OH236610   3.459   3.639   3.314
12222TIP3    H136611   3.380   3.617   3.363
12222TIP3    H236612   3.515   3.684   3.378
12223TIP3   OH236613   2.826   3.681   5.123
12223TIP3    H136614   2.809   3.775   5.134
12223TIP3    H236615   2.914   3.676   5.086
12224TIP3   OH236616   0.697   2.712   3.806
12224TIP3    H136617   0.777   2.715   3.858
12224TIP3    H236618   0.632   2.672   3.864
12225TIP3   OH236619   6.651   2.251   4.478
12225TIP3    H136620   6.733   2.299   4.485
12225TIP3    H236621   6.666   2.169   4.526
12226TIP3   OH236622   7.235   5.097   6.644
12226TIP3    H136623   7.190   5.169   6.599
12226TIP3    H236624   7.276   5.139   6.720
12227TIP3   OH236625   6.923   3.030   2.653
12227TIP3    H136626   6.994   3.035   2.589
12227TIP3    H236627   6.935   3.108   2.708
12228TIP3   OH236628   1.036   1.082   3.010
12228TIP3    H136629   0.951   1.087   2.967
12228TIP3    H236630   1.098   1.059   2.941
12229TIP3   OH236631   3.629   6.566   5.803
12229TIP3    H136632   3.589   6.595   5.721
12229TIP3    H236633   3.672   6.645   5.837
12230TIP3   OH236634   3.857   2.981   2.140
12230TIP3    H136635   3.930   2.983   2.202
12230TIP3    H236636   3.843   2.889   2.122
12231TIP3   OH236637   1.600   6.132   6.345
12231TIP3    H136638   1.605   6.216   6.389
12231TIP3    H236639   1.575   6.153   6.255
12232TIP3   OH236640   6.600   2.268   0.233
12232TIP3    H136641   6.542   2.194   0.214
12232TIP3    H236642   6.668   2.231   0.289
12233TIP3   OH236643   1.507   7.650   3.296
12233TIP3    H136644   1.521   7.731   3.343
12233TIP3    H236645   1.562   7.657   3.218
12234TIP3   OH236646   6.868   6.308   4.946
12234TIP3    H136647   6.903   6.239   5.002
12234TIP3    H236648   6.928   6.381   4.957
12235TIP3   OH236649   6.781   7.090   6.455
12235TIP3    H136650   6.715   7.023   6.473
12235TIP3    H236651   6.812   7.069   6.367
12236TIP3   OH236652   4.921   4.035   3.333
12236TIP3    H136653   4.879   4.086   3.263
12236TIP3    H236654   4.884   3.948   3.325
12237TIP3   OH236655   7.537   0.415   3.242
12237TIP3    H136656   7.589   0.458   3.174
12237TIP3    H236657   7.493   0.344   3.197
12238TIP3   OH236658   6.189   4.920   5.639
12238TIP3    H136659   6.108   4.881   5.609
12238TIP3    H236660   6.164   4.977   5.712
12239TIP3   OH236661   7.528   6.362   4.082
12239TIP3    H136662   7.556   6.279   4.044
12239TIP3    H236663   7.594   6.425   4.052
12240TIP3   OH236664   5.638   2.051   5.707
12240TIP3    H136665   5.685   2.035   5.625
12240TIP3    H236666   5.701   2.030   5.775
12241TIP3   OH236667   5.968   6.086   6.051
12241TIP3    H136668   6.053   6.045   6.035
12241TIP3    H236669   5.988   6.179   6.062
12242TIP3   OH236670   1.372   3.332   0.942
12242TIP3    H136671   1.292   3.376   0.912
12242TIP3    H236672   1.424   3.320   0.862
12243TIP3   OH236673   1.694   3.163   5.717
12243TIP3    H136674   1.698   3.077   5.678
12243TIP3    H236675   1.697   3.147   5.812
12244TIP3   OH236676   6.395   4.992   4.835
12244TIP3    H136677   6.311   4.989   4.881
12244TIP3    H236678   6.399   5.080   4.797
12245TIP3   OH236679   5.768   5.685   1.605
12245TIP3    H136680   5.754   5.750   1.536
12245TIP3    H236681   5.771   5.601   1.558
12246TIP3   OH236682   7.103   4.327   3.854
12246TIP3    H136683   7.078   4.307   3.763
12246TIP3    H236684   7.176   4.268   3.872
12247TIP3   OH236685   4.473   0.410   1.133
12247TIP3    H136686   4.424   0.343   1.086
12247TIP3    H236687   4.562   0.375   1.140
12248TIP3   OH236688   8.131   3.030   5.973
12248TIP3    H136689   8.062   2.967   5.954
12248TIP3    H236690   8.169   3.000   6.055
12249TIP3   OH236691   3.083   6.070   6.515
12249TIP3    H136692   3.008   6.130   6.518
12249TIP3    H236693   3.045   5.984   6.501
12250TIP3   OH236694   4.461   1.051   0.278
12250TIP3    H136695   4.431   1.140   0.294
12250TIP3    H236696   4.539   1.062   0.223
12251TIP3   OH236697   3.864   0.334   0.496
12251TIP3    H136698   3.903   0.408   0.449
12251TIP3    H236699   3.772   0.358   0.507
12252TIP3   OH236700   0.409   6.712   6.475
12252TIP3    H136701   0.377   6.627   6.508
12252TIP3    H236702   0.362   6.725   6.393
12253TIP3   OH236703   0.859   4.288   2.122
12253TIP3    H136704   0.914   4.211   2.136
12253TIP3    H236705   0.771   4.252   2.108
12254TIP3   OH236706   1.886   6.295   4.822
12254TIP3    H136707   1.946   6.223   4.807
12254TIP3    H236708   1.928   6.349   4.888
12255TIP3   OH236709   4.669   6.227   4.810
12255TIP3    H136710   4.684   6.308   4.859
12255TIP3    H236711   4.576   6.230   4.786
12256TIP3   OH236712   0.734   0.711   4.893
12256TIP3    H136713   0.696   0.678   4.811
12256TIP3    H236714   0.694   0.657   4.961
12257TIP3   OH236715   0.848   0.328   5.938
12257TIP3    H136716   0.821   0.237   5.921
12257TIP3    H236717   0.938   0.320   5.972
12258TIP3   OH236718   4.449   5.004   3.680
12258TIP3    H136719   4.536   4.990   3.718
12258TIP3    H236720   4.398   5.045   3.750
12259TIP3   OH236721   4.019   7.801   3.505
12259TIP3    H136722   4.029   7.706   3.501
12259TIP3    H236723   4.002   7.820   3.597
12260TIP3   OH236724   0.806   3.384   6.600
12260TIP3    H136725   0.839   3.298   6.575
12260TIP3    H236726   0.741   3.405   6.532
12261TIP3   OH236727   1.441   0.712   6.348
12261TIP3    H136728   1.417   0.714   6.255
12261TIP3    H236729   1.363   0.680   6.393
12262TIP3   OH236730   3.445   2.187   1.065
12262TIP3    H136731   3.498   2.223   1.136
12262TIP3    H236732   3.361   2.232   1.071
12263TIP3   OH236733   2.637   7.788   0.501
12263TIP3    H136734   2.566   7.807   0.440
12263TIP3    H236735   2.607   7.824   0.584
12264TIP3   OH236736   0.057   0.081   0.071
12264TIP3    H136737   0.145   0.055   0.044
12264TIP3    H236738   0.063   0.089   0.166
12265TIP3   OH236739   5.589   5.342   3.323
12265TIP3    H136740   5.525   5.291   3.372
12265TIP3    H236741   5.661   5.281   3.306
12266TIP3   OH236742   3.310   3.802   3.576
12266TIP3    H136743   3.313   3.722   3.628
12266TIP3    H236744   3.308   3.873   3.640
12267TIP3   OH236745   3.483   4.276   0.788
12267TIP3    H136746   3.392   4.271   0.819
12267TIP3    H236747   3.526   4.337   0.848
12268TIP3   OH236748   1.543   4.889   3.263
12268TIP3    H136749   1.575   4.973   3.231
12268TIP3    H236750   1.578   4.825   3.202
12269TIP3   OH236751   0.479   3.862   5.845
12269TIP3    H136752   0.474   3.940   5.900
12269TIP3    H236753   0.488   3.896   5.756
12270TIP3   OH236754   4.373   1.162   0.962
12270TIP3    H136755   4.297   1.173   1.020
12270TIP3    H236756   4.393   1.250   0.931
12271TIP3   OH236757   0.801   1.907   4.378
12271TIP3    H136758   0.762   1.865   4.301
12271TIP3    H236759   0.884   1.942   4.347
12272TIP3   OH236760   0.616   1.778   2.233
12272TIP3    H136761   0.600   1.703   2.176
12272TIP3    H236762   0.682   1.747   2.296
12273TIP3   OH236763   0.718   4.123   6.695
12273TIP3    H136764   0.629   4.095   6.676
12273TIP3    H236765   0.713   4.218   6.701
12274TIP3   OH236766   6.375   4.276   2.606
12274TIP3    H136767   6.281   4.296   2.596
12274TIP3    H236768   6.407   4.346   2.664
12275TIP3   OH236769   1.516   7.095   5.902
12275TIP3    H136770   1.459   7.165   5.934
12275TIP3    H236771   1.550   7.054   5.981
12276TIP3   OH236772   1.016   5.950   5.446
12276TIP3    H136773   1.070   5.895   5.502
12276TIP3    H236774   0.963   6.002   5.507
12277TIP3   OH236775   3.376   2.960   6.175
12277TIP3    H136776   3.397   2.869   6.196
12277TIP3    H236777   3.327   2.992   6.251
12278TIP3   OH236778   5.674   4.984   1.526
12278TIP3    H136779   5.649   5.036   1.450
12278TIP3    H236780   5.595   4.983   1.581
12279TIP3   OH236781   0.539   4.825   6.116
12279TIP3    H136782   0.444   4.809   6.119
12279TIP3    H236783   0.549   4.896   6.053
12280TIP3   OH236784   3.408   3.117   0.268
12280TIP3    H136785   3.388   3.129   0.175
12280TIP3    H236786   3.497   3.150   0.278
12281TIP3   OH236787   2.035   0.442   1.408
12281TIP3    H136788   1.995   0.355   1.403
12281TIP3    H236789   2.107   0.439   1.344
12282TIP3   OH236790   5.328   3.280   2.418
12282TIP3    H136791   5.376   3.357   2.450
12282TIP3    H236792   5.247   3.316   2.381
12283TIP3   OH236793   5.260   1.171   1.763
12283TIP3    H136794   5.232   1.086   1.730
12283TIP3    H236795   5.236   1.170   1.856
12284TIP3   OH236796   6.943   0.673   5.246
12284TIP3    H136797   6.883   0.600   5.229
12284TIP3    H236798   6.995   0.680   5.166
12285TIP3   OH236799   5.270   6.850   3.242
12285TIP3    H136800   5.347   6.866   3.187
12285TIP3    H236801   5.259   6.755   3.241
12286TIP3   OH236802   7.729   6.348   4.554
12286TIP3    H136803   7.758   6.289   4.484
12286TIP3    H236804   7.686   6.290   4.617
12287TIP3   OH236805   1.240   3.247   2.927
12287TIP3    H136806   1.286   3.316   2.879
12287TIP3    H236807   1.156   3.239   2.882
12288TIP3   OH236808   3.334   1.190   1.268
12288TIP3    H136809   3.294   1.277   1.265
12288TIP3    H236810   3.340   1.164   1.176
12289TIP3   OH236811   2.566   2.445   0.922
12289TIP3    H136812   2.580   2.360   0.964
12289TIP3    H236813   2.653   2.485   0.919
12290TIP3   OH236814   1.135   4.207   2.801
12290TIP3    H136815   1.055   4.170   2.838
12290TIP3    H236816   1.205   4.171   2.855
12291TIP3   OH236817   6.022   5.096   2.145
12291TIP3    H136818   6.114   5.101   2.118
12291TIP3    H236819   6.009   5.004   2.170
12292TIP3   OH236820   1.750   3.946   1.288
12292TIP3    H136821   1.668   3.928   1.242
12292TIP3    H236822   1.723   3.964   1.378
12293TIP3   OH236823   5.270   5.756   1.531
12293TIP3    H136824   5.270   5.672   1.485
12293TIP3    H236825   5.322   5.741   1.609
12294TIP3   OH236826   3.435   1.540   2.232
12294TIP3    H136827   3.417   1.594   2.155
12294TIP3    H236828   3.362   1.477   2.234
12295TIP3   OH236829   2.024   1.014   6.472
12295TIP3    H136830   2.101   0.977   6.516
12295TIP3    H236831   2.047   1.105   6.455
12296TIP3   OH236832   2.756   5.951   4.148
12296TIP3    H136833   2.664   5.926   4.148
12296TIP3    H236834   2.789   5.920   4.063
12297TIP3   OH236835   4.616   3.254   4.877
12297TIP3    H136836   4.550   3.202   4.832
12297TIP3    H236837   4.687   3.192   4.896
12298TIP3   OH236838   4.786   1.438   5.162
12298TIP3    H136839   4.703   1.451   5.117
12298TIP3    H236840   4.776   1.485   5.245
12299TIP3   OH236841   2.556   7.211   1.503
12299TIP3    H136842   2.558   7.306   1.487
12299TIP3    H236843   2.598   7.173   1.426
12300TIP3   OH236844   5.034   7.718   4.799
12300TIP3    H136845   5.060   7.748   4.712
12300TIP3    H236846   4.938   7.726   4.800
12301TIP3   OH236847   4.040   1.576   5.602
12301TIP3    H136848   4.125   1.600   5.568
12301TIP3    H236849   4.054   1.564   5.696
12302TIP3   OH236850   2.000   4.397   0.562
12302TIP3    H136851   1.985   4.313   0.518
12302TIP3    H236852   1.962   4.462   0.503
12303TIP3   OH236853   4.176   6.587   4.753
12303TIP3    H136854   4.253   6.617   4.801
12303TIP3    H236855   4.133   6.667   4.724
12304TIP3   OH236856   0.930   4.408   1.211
12304TIP3    H136857   0.957   4.332   1.160
12304TIP3    H236858   0.910   4.475   1.145
12305TIP3   OH236859   1.431   0.670   2.844
12305TIP3    H136860   1.492   0.649   2.915
12305TIP3    H236861   1.408   0.585   2.806
12306TIP3   OH236862   2.149   2.743   2.874
12306TIP3    H136863   2.219   2.806   2.891
12306TIP3    H236864   2.135   2.700   2.959
12307TIP3   OH236865   2.772   5.022   1.909
12307TIP3    H136866   2.776   4.950   1.973
12307TIP3    H236867   2.839   4.999   1.844
12308TIP3   OH236868   0.740   6.455   6.416
12308TIP3    H136869   0.676   6.394   6.455
12308TIP3    H236870   0.803   6.471   6.486
12309TIP3   OH236871   7.783   4.717   5.711
12309TIP3    H136872   7.807   4.763   5.630
12309TIP3    H236873   7.733   4.781   5.761
12310TIP3   OH236874   5.916   6.861   1.083
12310TIP3    H136875   5.967   6.809   1.145
12310TIP3    H236876   5.900   6.802   1.010
12311TIP3   OH236877   5.674   1.323   0.934
12311TIP3    H136878   5.631   1.274   1.004
12311TIP3    H236879   5.612   1.394   0.913
12312TIP3   OH236880   2.512   5.225   0.965
12312TIP3    H136881   2.529   5.302   1.019
12312TIP3    H236882   2.582   5.226   0.900
12313TIP3   OH236883   2.421   0.172   2.812
12313TIP3    H136884   2.471   0.233   2.758
12313TIP3    H236885   2.476   0.094   2.817
12314TIP3   OH236886   3.416   6.681   3.737
12314TIP3    H136887   3.356   6.610   3.758
12314TIP3    H236888   3.378   6.759   3.779
12315TIP3   OH236889   3.745   0.083   2.131
12315TIP3    H136890   3.748   0.082   2.035
12315TIP3    H236891   3.679   0.149   2.152
12316TIP3   OH236892   1.783   0.477   1.735
12316TIP3    H136893   1.714   0.447   1.795
12316TIP3    H236894   1.750   0.455   1.648
12317TIP3   OH236895   4.133   0.980   1.835
12317TIP3    H136896   4.141   0.944   1.746
12317TIP3    H236897   4.060   1.041   1.830
12318TIP3   OH236898   0.997   6.180   1.183
12318TIP3    H136899   0.933   6.109   1.190
12318TIP3    H236900   0.950   6.257   1.216
12319TIP3   OH236901   6.567   3.778   6.457
12319TIP3    H136902   6.511   3.714   6.499
12319TIP3    H236903   6.509   3.852   6.437
12320TIP3   OH236904   5.501   7.385   2.257
12320TIP3    H136905   5.476   7.473   2.285
12320TIP3    H236906   5.556   7.352   2.328
12321TIP3   OH236907   2.171   0.279   2.903
12321TIP3    H136908   2.230   0.236   2.840
12321TIP3    H236909   2.229   0.311   2.972
12322TIP3   OH236910   5.348   7.134  -0.007
12322TIP3    H136911   5.435   7.173   0.002
12322TIP3    H236912   5.353   7.054   0.046
12323TIP3   OH236913   7.958   5.069   5.336
12323TIP3    H136914   8.049   5.060   5.309
12323TIP3    H236915   7.909   5.077   5.254
12324TIP3   OH236916   2.442   0.666   3.204
12324TIP3    H136917   2.521   0.709   3.173
12324TIP3    H236918   2.378   0.736   3.213
12325TIP3   OH236919   3.532   0.172   2.333
12325TIP3    H136920   3.475   0.156   2.258
12325TIP3    H236921   3.495   0.118   2.403
12326TIP3   OH236922   3.694   1.272   2.336
12326TIP3    H136923   3.746   1.316   2.267
12326TIP3    H236924   3.644   1.205   2.289
12327TIP3   OH236925   0.906   2.639   3.990
12327TIP3    H136926   0.915   2.611   4.081
12327TIP3    H236927   0.913   2.558   3.939
12328TIP3   OH236928   2.276   3.144   5.525
12328TIP3    H136929   2.205   3.190   5.569
12328TIP3    H236930   2.310   3.084   5.592
12329TIP3   OH236931   5.004   1.733   6.674
12329TIP3    H136932   4.998   1.641   6.647
12329TIP3    H236933   4.916   1.753   6.706
12330TIP3   OH236934   2.337   7.626   2.457
12330TIP3    H136935   2.245   7.650   2.472
12330TIP3    H236936   2.386   7.705   2.482
12331TIP3   OH236937   4.768   0.343   1.463
12331TIP3    H136938   4.701   0.354   1.395
12331TIP3    H236939   4.829   0.415   1.448
12332TIP3   OH236940   4.298   2.181   1.905
12332TIP3    H136941   4.214   2.167   1.948
12332TIP3    H236942   4.276   2.196   1.814
12333TIP3   OH236943   4.904   7.313   4.860
12333TIP3    H136944   4.889   7.299   4.953
12333TIP3    H236945   4.880   7.405   4.845
12334TIP3   OH236946   3.748   7.442   6.520
12334TIP3    H136947   3.785   7.383   6.454
12334TIP3    H236948   3.675   7.484   6.476
12335TIP3   OH236949   4.219   1.982   1.688
12335TIP3    H136950   4.223   1.905   1.746
12335TIP3    H236951   4.148   2.035   1.724
12336TIP3   OH236952   5.207   0.566   6.413
12336TIP3    H136953   5.161   0.488   6.381
12336TIP3    H236954   5.163   0.639   6.369
12337TIP3   OH236955   1.633   7.225   0.860
12337TIP3    H136956   1.692   7.300   0.851
12337TIP3    H236957   1.559   7.259   0.910
12338TIP3   OH236958   6.005   7.577   1.685
12338TIP3    H136959   5.948   7.502   1.668
12338TIP3    H236960   5.954   7.652   1.655
12339TIP3   OH236961   3.662   7.286   4.036
12339TIP3    H136962   3.677   7.303   3.943
12339TIP3    H236963   3.702   7.360   4.081
12340TIP3   OH236964   2.021   5.969   2.802
12340TIP3    H136965   2.065   6.039   2.852
12340TIP3    H236966   2.046   5.889   2.848
12341TIP3   OH236967   2.325   6.810   6.282
12341TIP3    H136968   2.357   6.721   6.296
12341TIP3    H236969   2.260   6.802   6.213
12342TIP3   OH236970   5.804   1.670   6.239
12342TIP3    H136971   5.765   1.749   6.277
12342TIP3    H236972   5.731   1.624   6.198
12343TIP3   OH236973   6.563   4.891   0.516
12343TIP3    H136974   6.582   4.958   0.581
12343TIP3    H236975   6.519   4.939   0.445
12344TIP3   OH236976   4.068   6.360   5.660
12344TIP3    H136977   4.053   6.444   5.617
12344TIP3    H236978   3.983   6.316   5.658
12345TIP3   OH236979   3.505   6.500   0.397
12345TIP3    H136980   3.500   6.406   0.380
12345TIP3    H236981   3.462   6.511   0.481
12346TIP3   OH236982   8.296   5.552   0.806
12346TIP3    H136983   8.221   5.498   0.782
12346TIP3    H236984   8.317   5.601   0.726
12347TIP3   OH236985   4.988   1.270   3.828
12347TIP3    H136986   4.941   1.200   3.874
12347TIP3    H236987   5.073   1.273   3.871
12348TIP3   OH236988   4.341   5.712   2.077
12348TIP3    H136989   4.256   5.756   2.069
12348TIP3    H236990   4.397   5.755   2.014
12349TIP3   OH236991   7.234   3.608   5.714
12349TIP3    H136992   7.222   3.583   5.623
12349TIP3    H236993   7.222   3.703   5.714
12350TIP3   OH236994   3.188   0.927   5.506
12350TIP3    H136995   3.115   0.987   5.490
12350TIP3    H236996   3.196   0.877   5.425
12351TIP3   OH236997   4.741   2.445   1.792
12351TIP3    H136998   4.787   2.409   1.868
12351TIP3    H236999   4.692   2.520   1.827
12352TIP3   OH237000   4.085   6.465   1.768
12352TIP3    H137001   4.065   6.514   1.688
12352TIP3    H237002   4.053   6.377   1.751
12353TIP3   OH237003   2.301   2.925   0.284
12353TIP3    H137004   2.364   2.857   0.308
12353TIP3    H237005   2.227   2.877   0.248
12354TIP3   OH237006   7.321   3.106   3.576
12354TIP3    H137007   7.385   3.110   3.648
12354TIP3    H237008   7.242   3.147   3.612
12355TIP3   OH237009   3.012   6.658   6.697
12355TIP3    H137010   3.018   6.711   6.618
12355TIP3    H237011   2.935   6.603   6.684
12356TIP3   OH237012   1.450   1.911   4.085
12356TIP3    H137013   1.434   1.822   4.053
12356TIP3    H237014   1.543   1.914   4.103
12357TIP3   OH237015   7.969   6.878   4.007
12357TIP3    H137016   7.972   6.893   4.102
12357TIP3    H237017   7.886   6.916   3.979
12358TIP3   OH237018   4.323   6.542   0.373
12358TIP3    H137019   4.411   6.555   0.409
12358TIP3    H237020   4.328   6.576   0.284
12359TIP3   OH237021   8.200   6.578   4.187
12359TIP3    H137022   8.239   6.560   4.272
12359TIP3    H237023   8.272   6.613   4.135
12360TIP3   OH237024   5.321   0.065   6.230
12360TIP3    H137025   5.402   0.014   6.234
12360TIP3    H237026   5.257   0.005   6.191
12361TIP3   OH237027   0.913   2.643   4.630
12361TIP3    H137028   0.854   2.702   4.678
12361TIP3    H237029   0.972   2.702   4.583
12362TIP3   OH237030   4.190   0.434   0.238
12362TIP3    H137031   4.122   0.477   0.290
12362TIP3    H237032   4.157   0.436   0.148
12363TIP3   OH237033   4.483   3.793   2.374
12363TIP3    H137034   4.577   3.808   2.367
12363TIP3    H237035   4.469   3.704   2.341
12364TIP3   OH237036   4.472   7.474   0.566
12364TIP3    H137037   4.389   7.435   0.596
12364TIP3    H237038   4.530   7.398   0.553
12365TIP3   OH237039   8.036   3.350   1.323
12365TIP3    H137040   8.054   3.433   1.279
12365TIP3    H237041   8.077   3.284   1.267
12366TIP3   OH237042   7.390   5.251   3.691
12366TIP3    H137043   7.409   5.325   3.634
12366TIP3    H237044   7.378   5.291   3.778
12367TIP3   OH237045   5.020   7.396   3.129
12367TIP3    H137046   4.967   7.351   3.062
12367TIP3    H237047   4.956   7.434   3.189
12368TIP3   OH237048   3.819   6.477   2.842
12368TIP3    H137049   3.898   6.530   2.851
12368TIP3    H237050   3.822   6.416   2.915
12369TIP3   OH237051   2.955   5.683   3.801
12369TIP3    H137052   3.029   5.722   3.848
12369TIP3    H237053   2.894   5.656   3.870
12370TIP3   OH237054   0.747   1.370   0.722
12370TIP3    H137055   0.669   1.320   0.698
12370TIP3    H237056   0.718   1.461   0.721
12371TIP3   OH237057   4.434   1.417   6.577
12371TIP3    H137058   4.361   1.476   6.598
12371TIP3    H237059   4.436   1.355   6.649
12372TIP3   OH237060   4.684   5.758   5.764
12372TIP3    H137061   4.612   5.731   5.821
12372TIP3    H237062   4.668   5.852   5.750
12373TIP3   OH237063   3.616   5.143   2.819
12373TIP3    H137064   3.602   5.136   2.724
12373TIP3    H237065   3.694   5.198   2.827
12374TIP3   OH237066   0.671   2.171   6.785
12374TIP3    H137067   0.679   2.078   6.808
12374TIP3    H237068   0.592   2.177   6.731
12375TIP3   OH237069   5.350   1.424   4.648
12375TIP3    H137070   5.392   1.358   4.703
12375TIP3    H237071   5.257   1.404   4.653
12376TIP3   OH237072   4.120   6.758   1.224
12376TIP3    H137073   4.149   6.820   1.158
12376TIP3    H237074   4.158   6.790   1.306
12377TIP3   OH237075   5.102   1.109   3.589
12377TIP3    H137076   5.140   1.193   3.560
12377TIP3    H237077   5.033   1.135   3.651
12378TIP3   OH237078   3.663   5.242   2.543
12378TIP3    H137079   3.659   5.315   2.481
12378TIP3    H237080   3.729   5.269   2.607
12379TIP3   OH237081   1.889   6.296   4.507
12379TIP3    H137082   1.969   6.253   4.537
12379TIP3    H237083   1.908   6.390   4.514
12380TIP3   OH237084   4.070   7.460   4.475
12380TIP3    H137085   4.115   7.432   4.555
12380TIP3    H237086   3.984   7.417   4.480
12381TIP3   OH237087   2.282   3.101   2.834
12381TIP3    H137088   2.347   3.031   2.850
12381TIP3    H237089   2.228   3.101   2.912
12382TIP3   OH237090   3.428   4.011   4.736
12382TIP3    H137091   3.415   4.106   4.739
12382TIP3    H237092   3.397   3.980   4.821
12383TIP3   OH237093   3.814   0.013   3.453
12383TIP3    H137094   3.827   0.007   3.358
12383TIP3    H237095   3.865  -0.060   3.488
12384TIP3   OH237096   6.845   4.382   6.470
12384TIP3    H137097   6.897   4.350   6.396
12384TIP3    H237098   6.892   4.460   6.500
12385TIP3   OH237099   7.006   3.147   6.275
12385TIP3    H137100   7.087   3.173   6.232
12385TIP3    H237101   7.004   3.051   6.266
12386TIP3   OH237102   5.593   5.176   3.919
12386TIP3    H137103   5.679   5.185   3.878
12386TIP3    H237104   5.532   5.218   3.857
12387TIP3   OH237105   0.372   1.417   1.245
12387TIP3    H137106   0.448   1.399   1.190
12387TIP3    H237107   0.313   1.468   1.189
12388TIP3   OH237108   5.710   5.810   4.355
12388TIP3    H137109   5.793   5.851   4.332
12388TIP3    H237110   5.664   5.875   4.408
12389TIP3   OH237111   5.627   4.506   3.036
12389TIP3    H137112   5.695   4.440   3.017
12389TIP3    H237113   5.597   4.535   2.950
12390TIP3   OH237114   7.570   0.465   5.359
12390TIP3    H137115   7.503   0.403   5.330
12390TIP3    H237116   7.627   0.476   5.283
12391TIP3   OH237117   5.437   1.483   3.880
12391TIP3    H137118   5.389   1.539   3.940
12391TIP3    H237119   5.518   1.462   3.927
12392TIP3   OH237120   8.195   1.101   6.041
12392TIP3    H137121   8.280   1.135   6.013
12392TIP3    H237122   8.140   1.104   5.963
12393TIP3   OH237123   7.270   4.347   4.399
12393TIP3    H137124   7.186   4.333   4.442
12393TIP3    H237125   7.265   4.435   4.363
12394TIP3   OH237126   2.455   7.251   1.093
12394TIP3    H137127   2.364   7.277   1.106
12394TIP3    H237128   2.482   7.297   1.013
12395TIP3   OH237129   7.641   5.972   4.642
12395TIP3    H137130   7.721   6.009   4.606
12395TIP3    H237131   7.573   5.994   4.578
12396TIP3   OH237132   6.366   1.931   4.947
12396TIP3    H137133   6.460   1.948   4.950
12396TIP3    H237134   6.330   2.002   4.894
12397TIP3   OH237135   2.482   0.750   0.249
12397TIP3    H137136   2.552   0.718   0.307
12397TIP3    H237137   2.508   0.840   0.229
12398TIP3   OH237138   3.364   2.022   0.705
12398TIP3    H137139   3.275   2.048   0.726
12398TIP3    H237140   3.389   1.959   0.773
12399TIP3   OH237141   4.664   2.129   1.734
12399TIP3    H137142   4.614   2.177   1.800
12399TIP3    H237143   4.599   2.099   1.671
12400TIP3   OH237144   4.243   1.479   1.613
12400TIP3    H137145   4.332   1.478   1.580
12400TIP3    H237146   4.244   1.545   1.683
12401TIP3   OH237147   1.881   1.230   3.747
12401TIP3    H137148   1.926   1.152   3.779
12401TIP3    H237149   1.860   1.280   3.826
12402TIP3   OH237150   2.998   5.629   6.664
12402TIP3    H137151   2.997   5.587   6.578
12402TIP3    H237152   3.048   5.710   6.651
12403TIP3   OH237153   0.789   4.589   1.384
12403TIP3    H137154   0.878   4.604   1.349
12403TIP3    H237155   0.798   4.512   1.439
12404TIP3   OH237156   6.597   5.596   2.270
12404TIP3    H137157   6.514   5.549   2.279
12404TIP3    H237158   6.627   5.575   2.181
12405TIP3   OH237159   4.109   3.731   4.696
12405TIP3    H137160   4.040   3.680   4.740
12405TIP3    H237161   4.073   3.820   4.691
12406TIP3   OH237162   2.915   0.685   5.223
12406TIP3    H137163   2.841   0.700   5.282
12406TIP3    H237164   2.939   0.593   5.238
12407TIP3   OH237165   4.658   7.601   3.841
12407TIP3    H137166   4.728   7.657   3.874
12407TIP3    H237167   4.592   7.602   3.910
12408TIP3   OH237168   2.253   2.695   1.732
12408TIP3    H137169   2.189   2.765   1.748
12408TIP3    H237170   2.305   2.726   1.658
12409TIP3   OH237171   4.472   5.689   0.267
12409TIP3    H137172   4.389   5.671   0.224
12409TIP3    H237173   4.531   5.620   0.235
12410TIP3   OH237174   1.109   5.346   3.593
12410TIP3    H137175   1.075   5.268   3.637
12410TIP3    H237176   1.165   5.313   3.523
12411TIP3   OH237177   2.318   5.573   2.640
12411TIP3    H137178   2.298   5.505   2.705
12411TIP3    H237179   2.408   5.600   2.660
12412TIP3   OH237180   1.698   1.126   5.648
12412TIP3    H137181   1.604   1.111   5.635
12412TIP3    H237182   1.706   1.147   5.741
12413TIP3   OH237183   7.211   7.563   3.293
12413TIP3    H137184   7.246   7.652   3.305
12413TIP3    H237185   7.231   7.519   3.375
12414TIP3   OH237186   5.618   2.922   3.164
12414TIP3    H137187   5.696   2.903   3.112
12414TIP3    H237188   5.573   2.837   3.170
12415TIP3   OH237189   3.250   6.658   5.077
12415TIP3    H137190   3.272   6.750   5.089
12415TIP3    H237191   3.186   6.658   5.006
12416TIP3   OH237192   7.172   3.167   2.837
12416TIP3    H137193   7.236   3.178   2.767
12416TIP3    H237194   7.183   3.245   2.891
12417TIP3   OH237195   0.049   7.079   6.071
12417TIP3    H137196   0.063   7.173   6.081
12417TIP3    H237197   0.131   7.039   6.099
12418TIP3   OH237198   7.342   1.484   2.154
12418TIP3    H137199   7.320   1.478   2.061
12418TIP3    H237200   7.437   1.470   2.157
12419TIP3   OH237201   2.735   2.648   5.139
12419TIP3    H137202   2.641   2.664   5.133
12419TIP3    H237203   2.772   2.690   5.062
12420TIP3   OH237204   5.742   5.450   1.489
12420TIP3    H137205   5.762   5.436   1.396
12420TIP3    H237206   5.666   5.394   1.506
12421TIP3   OH237207   0.496   2.506   2.693
12421TIP3    H137208   0.527   2.551   2.771
12421TIP3    H237209   0.481   2.576   2.629
12422TIP3   OH237210   8.070   0.543   6.180
12422TIP3    H137211   7.997   0.598   6.204
12422TIP3    H237212   8.136   0.603   6.145
12423TIP3   OH237213   0.813   2.529   1.075
12423TIP3    H137214   0.863   2.522   0.994
12423TIP3    H237215   0.869   2.489   1.142
12424TIP3   OH237216   0.950   7.548   4.050
12424TIP3    H137217   0.966   7.642   4.060
12424TIP3    H237218   0.898   7.540   3.970
12425TIP3   OH237219   5.402   2.681   3.252
12425TIP3    H137220   5.313   2.697   3.284
12425TIP3    H237221   5.435   2.610   3.308
12426TIP3   OH237222   2.762   6.106   5.145
12426TIP3    H137223   2.686   6.070   5.099
12426TIP3    H237224   2.832   6.043   5.128
12427TIP3   OH237225   3.918   5.847   6.338
12427TIP3    H137226   3.889   5.929   6.376
12427TIP3    H237227   3.837   5.801   6.314
12428TIP3   OH237228   6.830   3.605   1.814
12428TIP3    H137229   6.900   3.572   1.757
12428TIP3    H237230   6.749   3.575   1.773
12429TIP3   OH237231   2.230   5.548   2.241
12429TIP3    H137232   2.311   5.580   2.281
12429TIP3    H237233   2.194   5.624   2.196
12430TIP3   OH237234   1.090   1.579   2.676
12430TIP3    H137235   1.117   1.622   2.757
12430TIP3    H237236   1.050   1.648   2.624
12431TIP3   OH237237   7.328   2.813   5.339
12431TIP3    H137238   7.250   2.785   5.387
12431TIP3    H237239   7.320   2.908   5.333
12432TIP3   OH237240   3.237   4.576   1.713
12432TIP3    H137241   3.319   4.592   1.760
12432TIP3    H237242   3.259   4.509   1.648
12433TIP3   OH237243   1.944   6.380   2.726
12433TIP3    H137244   1.945   6.346   2.815
12433TIP3    H237245   2.036   6.388   2.702
12434TIP3   OH237246   7.319   2.810   0.813
12434TIP3    H137247   7.242   2.765   0.777
12434TIP3    H237248   7.297   2.823   0.905
12435TIP3   OH237249   7.597   4.329   1.800
12435TIP3    H137250   7.619   4.242   1.833
12435TIP3    H237251   7.616   4.388   1.872
12436TIP3   OH237252   6.564   5.596   1.565
12436TIP3    H137253   6.510   5.657   1.616
12436TIP3    H237254   6.557   5.513   1.613
12437TIP3   OH237255   4.616   6.822   6.712
12437TIP3    H137256   4.528   6.850   6.687
12437TIP3    H237257   4.620   6.730   6.686
12438TIP3   OH237258   6.863   6.124   2.334
12438TIP3    H137259   6.892   6.190   2.396
12438TIP3    H237260   6.780   6.091   2.370
12439TIP3   OH237261   6.760   1.760   2.511
12439TIP3    H137262   6.809   1.792   2.435
12439TIP3    H237263   6.828   1.725   2.570
12440TIP3   OH237264   8.041   0.513   4.518
12440TIP3    H137265   8.077   0.578   4.458
12440TIP3    H237266   7.947   0.529   4.518
12441TIP3   OH237267   1.204   2.217   5.541
12441TIP3    H137268   1.153   2.295   5.565
12441TIP3    H237269   1.167   2.190   5.457
12442TIP3   OH237270   7.209   3.863   0.290
12442TIP3    H137271   7.198   3.773   0.258
12442TIP3    H237272   7.263   3.906   0.224
12443TIP3   OH237273   0.270   1.894   5.652
12443TIP3    H137274   0.211   1.835   5.698
12443TIP3    H237275   0.321   1.837   5.595
12444TIP3   OH237276   0.228   5.126   1.518
12444TIP3    H137277   0.229   5.064   1.591
12444TIP3    H237278   0.303   5.183   1.534
12445TIP3   OH237279   6.857   2.130   3.021
12445TIP3    H137280   6.945   2.121   2.987
12445TIP3    H237281   6.868   2.132   3.116
12446TIP3   OH237282   5.770   2.482   1.772
12446TIP3    H137283   5.723   2.399   1.770
12446TIP3    H237284   5.730   2.533   1.701
12447TIP3   OH237285   0.510   6.958   1.929
12447TIP3    H137286   0.561   6.877   1.936
12447TIP3    H237287   0.445   6.940   1.860
12448TIP3   OH237288   6.988   2.219   6.202
12448TIP3    H137289   7.051   2.292   6.200
12448TIP3    H237290   6.906   2.260   6.230
12449TIP3   OH237291   5.257   4.199   3.592
12449TIP3    H137292   5.344   4.238   3.594
12449TIP3    H237293   5.233   4.198   3.500
12450TIP3   OH237294   8.251   3.129   0.025
12450TIP3    H137295   8.257   3.035   0.043
12450TIP3    H237296   8.321   3.146  -0.039
12451TIP3   OH237297   6.209   5.622   6.058
12451TIP3    H137298   6.221   5.712   6.029
12451TIP3    H237299   6.243   5.569   5.986
12452TIP3   OH237300   6.883   1.595   0.706
12452TIP3    H137301   6.799   1.550   0.710
12452TIP3    H237302   6.884   1.638   0.620
12453TIP3   OH237303   5.615   1.050   4.013
12453TIP3    H137304   5.617   1.092   4.099
12453TIP3    H237305   5.604   1.123   3.951
12454TIP3   OH237306   5.767   5.509   6.676
12454TIP3    H137307   5.854   5.504   6.638
12454TIP3    H237308   5.727   5.424   6.658
12455TIP3   OH237309   1.182   5.203   4.082
12455TIP3    H137310   1.225   5.222   3.998
12455TIP3    H237311   1.098   5.250   4.077
12456TIP3   OH237312   7.876   6.085   6.359
12456TIP3    H137313   7.922   6.080   6.275
12456TIP3    H237314   7.786   6.108   6.336
12457TIP3   OH237315   1.794   4.489   4.754
12457TIP3    H137316   1.733   4.465   4.685
12457TIP3    H237317   1.769   4.578   4.779
12458TIP3   OH237318   1.341   0.353   3.705
12458TIP3    H137319   1.359   0.372   3.614
12458TIP3    H237320   1.419   0.306   3.736
12459TIP3   OH237321   2.402   2.802   1.527
12459TIP3    H137322   2.354   2.770   1.450
12459TIP3    H237323   2.481   2.749   1.530
12460TIP3   OH237324   1.460   3.319   6.154
12460TIP3    H137325   1.449   3.290   6.244
12460TIP3    H237326   1.555   3.314   6.138
12461TIP3   OH237327   6.675   5.302   0.907
12461TIP3    H137328   6.656   5.360   0.833
12461TIP3    H237329   6.599   5.244   0.912
12462TIP3   OH237330   5.626   2.264   0.292
12462TIP3    H137331   5.600   2.355   0.302
12462TIP3    H237332   5.671   2.243   0.374
12463TIP3   OH237333   1.699   4.874   2.598
12463TIP3    H137334   1.622   4.930   2.610
12463TIP3    H237335   1.670   4.805   2.539
12464TIP3   OH237336   6.602   6.038   1.601
12464TIP3    H137337   6.607   6.101   1.530
12464TIP3    H237338   6.643   5.959   1.566
12465TIP3   OH237339   1.052   6.449   4.323
12465TIP3    H137340   1.145   6.472   4.326
12465TIP3    H237341   1.044   6.373   4.380
12466TIP3   OH237342   2.261   4.868   6.483
12466TIP3    H137343   2.242   4.919   6.561
12466TIP3    H237344   2.248   4.777   6.510
12467TIP3   OH237345   0.635   2.666   0.926
12467TIP3    H137346   0.677   2.642   1.008
12467TIP3    H237347   0.600   2.754   0.942
12468TIP3   OH237348   7.593   5.351   2.943
12468TIP3    H137349   7.640   5.316   3.018
12468TIP3    H237350   7.501   5.351   2.969
12469TIP3   OH237351   5.970   5.864   5.318
12469TIP3    H137352   5.928   5.889   5.400
12469TIP3    H237353   6.035   5.799   5.344
12470TIP3   OH237354   1.372   4.664   6.590
12470TIP3    H137355   1.279   4.645   6.587
12470TIP3    H237356   1.391   4.676   6.683
12471TIP3   OH237357   6.278   3.470   6.112
12471TIP3    H137358   6.362   3.511   6.130
12471TIP3    H237359   6.232   3.472   6.195
12472TIP3   OH237360   1.238   2.158   2.029
12472TIP3    H137361   1.160   2.103   2.024
12472TIP3    H237362   1.308   2.097   2.056
12473TIP3   OH237363   3.689   3.144   4.174
12473TIP3    H137364   3.761   3.151   4.237
12473TIP3    H237365   3.612   3.172   4.224
12474TIP3   OH237366   1.207   1.415   3.797
12474TIP3    H137367   1.247   1.336   3.833
12474TIP3    H237368   1.253   1.431   3.714
12475TIP3   OH237369   5.989   1.377   1.092
12475TIP3    H137370   5.937   1.347   1.018
12475TIP3    H237371   6.056   1.434   1.054
12476TIP3   OH237372   0.286   4.103   1.774
12476TIP3    H137373   0.351   4.106   1.704
12476TIP3    H237374   0.299   4.186   1.821
12477TIP3   OH237375   4.275   2.951   4.190
12477TIP3    H137376   4.195   2.914   4.227
12477TIP3    H237377   4.346   2.912   4.241
12478TIP3   OH237378   4.725   2.677   1.385
12478TIP3    H137379   4.705   2.644   1.473
12478TIP3    H237380   4.739   2.771   1.398
12479TIP3   OH237381   1.659   5.092   1.963
12479TIP3    H137382   1.717   5.037   1.910
12479TIP3    H237383   1.626   5.033   2.031
12480TIP3   OH237384   4.178   5.245   1.152
12480TIP3    H137385   4.118   5.268   1.222
12480TIP3    H237386   4.219   5.163   1.181
12481TIP3   OH237387   2.272   7.116   3.090
12481TIP3    H137388   2.228   7.031   3.093
12481TIP3    H237389   2.329   7.111   3.014
12482TIP3   OH237390   4.197   7.131   6.061
12482TIP3    H137391   4.223   7.071   6.131
12482TIP3    H237392   4.101   7.131   6.063
12483TIP3   OH237393   1.574   2.008   3.791
12483TIP3    H137394   1.516   1.931   3.788
12483TIP3    H237395   1.520   2.077   3.829
12484TIP3   OH237396   6.105   6.499   4.153
12484TIP3    H137397   6.017   6.466   4.173
12484TIP3    H237398   6.090   6.584   4.111
12485TIP3   OH237399   3.662   1.208   4.668
12485TIP3    H137400   3.646   1.162   4.586
12485TIP3    H237401   3.757   1.205   4.679
12486TIP3   OH237402   8.140   1.585   1.032
12486TIP3    H137403   8.141   1.549   1.121
12486TIP3    H237404   8.047   1.595   1.012
12487TIP3   OH237405   1.078   3.468   2.702
12487TIP3    H137406   1.154   3.499   2.654
12487TIP3    H237407   1.045   3.394   2.652
12488TIP3   OH237408   5.088   7.235   0.420
12488TIP3    H137409   5.131   7.267   0.341
12488TIP3    H237410   5.149   7.170   0.456
12489TIP3   OH237411   8.035   1.093   0.105
12489TIP3    H137412   8.025   1.178   0.063
12489TIP3    H237413   7.970   1.093   0.176
12490TIP3   OH237414   6.967   2.095   1.664
12490TIP3    H137415   6.910   2.055   1.598
12490TIP3    H237416   6.941   2.053   1.746
12491TIP3   OH237417   7.106   0.387   1.991
12491TIP3    H137418   7.137   0.310   1.944
12491TIP3    H237419   7.033   0.355   2.045
12492TIP3   OH237420   8.050   7.174   1.370
12492TIP3    H137421   8.117   7.242   1.380
12492TIP3    H237422   7.967   7.221   1.368
12493TIP3   OH237423   2.904   7.624   0.068
12493TIP3    H137424   2.932   7.577  -0.011
12493TIP3    H237425   2.891   7.714   0.039
12494TIP3   OH237426   4.694   3.014   1.195
12494TIP3    H137427   4.698   2.999   1.100
12494TIP3    H237428   4.648   2.938   1.229
12495TIP3   OH237429   4.307   2.139   3.700
12495TIP3    H137430   4.351   2.200   3.640
12495TIP3    H237431   4.217   2.135   3.668
12496TIP3   OH237432   2.941   3.713   3.097
12496TIP3    H137433   2.886   3.672   3.163
12496TIP3    H237434   2.915   3.805   3.098
12497TIP3   OH237435   2.611   0.254   3.610
12497TIP3    H137436   2.648   0.330   3.656
12497TIP3    H237437   2.642   0.179   3.661
12498TIP3   OH237438   1.658   0.604   6.484
12498TIP3    H137439   1.611   0.656   6.419
12498TIP3    H237440   1.727   0.662   6.516
12499TIP3   OH237441   3.624   4.031   5.647
12499TIP3    H137442   3.579   3.988   5.719
12499TIP3    H237443   3.553   4.068   5.594
12500TIP3   OH237444   3.922   7.118   6.085
12500TIP3    H137445   3.907   7.104   5.992
12500TIP3    H237446   3.837   7.100   6.126
12501TIP3   OH237447   6.848   7.297   2.659
12501TIP3    H137448   6.905   7.266   2.589
12501TIP3    H237449   6.897   7.369   2.700
12502TIP3   OH237450   6.810   6.045   3.879
12502TIP3    H137451   6.739   6.099   3.912
12502TIP3    H237452   6.877   6.107   3.851
12503TIP3   OH237453   3.870   3.998   0.953
12503TIP3    H137454   3.950   4.046   0.975
12503TIP3    H237455   3.897   3.906   0.951
12504TIP3   OH237456   5.906   4.810   4.156
12504TIP3    H137457   5.838   4.801   4.089
12504TIP3    H237458   5.891   4.737   4.215
12505TIP3   OH237459   6.198   4.477   6.340
12505TIP3    H137460   6.183   4.556   6.287
12505TIP3    H237461   6.203   4.510   6.430
12506TIP3   OH237462   0.825   4.556   0.239
12506TIP3    H137463   0.780   4.548   0.155
12506TIP3    H237464   0.825   4.650   0.258
12507TIP3   OH237465   0.805   1.608   0.296
12507TIP3    H137466   0.838   1.681   0.244
12507TIP3    H237467   0.858   1.533   0.268
12508TIP3   OH237468   0.404   0.478   5.779
12508TIP3    H137469   0.406   0.498   5.872
12508TIP3    H237470   0.314   0.497   5.752
12509TIP3   OH237471   6.375   0.552   5.082
12509TIP3    H137472   6.359   0.577   5.173
12509TIP3    H237473   6.469   0.530   5.080
12510TIP3   OH237474   5.479   3.325   4.494
12510TIP3    H137475   5.514   3.404   4.454
12510TIP3    H237476   5.528   3.254   4.454
12511TIP3   OH237477   7.339   6.721   3.843
12511TIP3    H137478   7.250   6.731   3.877
12511TIP3    H237479   7.373   6.810   3.836
12512TIP3   OH237480   2.898   0.203   0.123
12512TIP3    H137481   2.962   0.171   0.060
12512TIP3    H237482   2.813   0.180   0.085
12513TIP3   OH237483   2.761   0.009   6.628
12513TIP3    H137484   2.734  -0.014   6.717
12513TIP3    H237485   2.832  -0.052   6.608
12514TIP3   OH237486   6.131   6.802   0.018
12514TIP3    H137487   6.177   6.728  -0.021
12514TIP3    H237488   6.161   6.878  -0.032
12515TIP3   OH237489   1.604   0.083   1.548
12515TIP3    H137490   1.528   0.064   1.603
12515TIP3    H237491   1.632  -0.003   1.516
12516TIP3   OH237492   6.165   1.186   1.555
12516TIP3    H137493   6.167   1.165   1.649
12516TIP3    H237494   6.072   1.188   1.533
12517TIP3   OH237495   8.126   4.333   1.007
12517TIP3    H137496   8.043   4.303   0.970
12517TIP3    H237497   8.180   4.254   1.012
12518TIP3   OH237498   3.876   4.522   4.329
12518TIP3    H137499   3.897   4.436   4.365
12518TIP3    H237500   3.866   4.507   4.235
12519TIP3   OH237501   4.601   7.620   5.279
12519TIP3    H137502   4.596   7.629   5.374
12519TIP3    H237503   4.598   7.526   5.264
12520TIP3   OH237504   6.657   1.840   3.113
12520TIP3    H137505   6.668   1.908   3.047
12520TIP3    H237506   6.593   1.780   3.076
12521TIP3   OH237507   3.963   7.412   1.685
12521TIP3    H137508   4.000   7.494   1.653
12521TIP3    H237509   3.973   7.417   1.780
12522TIP3   OH237510   1.973   4.449   3.438
12522TIP3    H137511   1.919   4.480   3.511
12522TIP3    H237512   2.047   4.510   3.435
12523TIP3   OH237513   2.990   1.811   1.438
12523TIP3    H137514   3.041   1.779   1.364
12523TIP3    H237515   3.014   1.754   1.511
12524TIP3   OH237516   2.702   7.356   5.700
12524TIP3    H137517   2.735   7.435   5.743
12524TIP3    H237518   2.764   7.338   5.630
12525TIP3   OH237519   5.101   6.432   4.656
12525TIP3    H137520   5.081   6.483   4.735
12525TIP3    H237521   5.197   6.423   4.657
12526TIP3   OH237522   0.609   2.953   6.556
12526TIP3    H137523   0.688   2.899   6.564
12526TIP3    H237524   0.628   3.013   6.483
12527TIP3   OH237525   5.098   4.642   3.816
12527TIP3    H137526   5.005   4.630   3.835
12527TIP3    H237527   5.132   4.552   3.806
12528TIP3   OH237528   7.385   0.668   0.006
12528TIP3    H137529   7.321   0.737   0.026
12528TIP3    H237530   7.444   0.668   0.081
12529TIP3   OH237531   1.467   3.884   3.890
12529TIP3    H137532   1.541   3.874   3.830
12529TIP3    H237533   1.472   3.808   3.948
12530TIP3   OH237534   7.709   5.108   1.804
12530TIP3    H137535   7.710   5.082   1.712
12530TIP3    H237536   7.631   5.065   1.840
12531TIP3   OH237537   3.622   6.107   2.301
12531TIP3    H137538   3.565   6.177   2.270
12531TIP3    H237539   3.611   6.107   2.396
12532TIP3   OH237540   6.553   4.778   4.223
12532TIP3    H137541   6.608   4.760   4.300
12532TIP3    H237542   6.464   4.785   4.257
12533TIP3   OH237543   5.340   3.048   0.428
12533TIP3    H137544   5.330   2.996   0.508
12533TIP3    H237545   5.303   2.992   0.359
12534TIP3   OH237546   2.596   7.437   5.218
12534TIP3    H137547   2.521   7.429   5.277
12534TIP3    H237548   2.627   7.348   5.207
12535TIP3   OH237549   7.632   5.135   3.578
12535TIP3    H137550   7.570   5.114   3.649
12535TIP3    H237551   7.649   5.228   3.587
12536TIP3   OH237552   6.610   0.474   2.236
12536TIP3    H137553   6.653   0.502   2.317
12536TIP3    H237554   6.517   0.486   2.252
12537TIP3   OH237555   2.433   5.843   1.155
12537TIP3    H137556   2.479   5.761   1.138
12537TIP3    H237557   2.463   5.870   1.241
12538TIP3   OH237558   8.195   4.799   2.734
12538TIP3    H137559   8.228   4.741   2.665
12538TIP3    H237560   8.220   4.887   2.705
12539TIP3   OH237561   2.860   2.090   4.896
12539TIP3    H137562   2.867   2.180   4.926
12539TIP3    H237563   2.816   2.096   4.812
12540TIP3   OH237564   3.012   4.275   4.293
12540TIP3    H137565   3.050   4.361   4.277
12540TIP3    H237566   2.924   4.280   4.257
12541TIP3   OH237567   6.344   2.261   1.952
12541TIP3    H137568   6.286   2.328   1.988
12541TIP3    H237569   6.361   2.201   2.025
12542TIP3   OH237570   2.612   2.155   0.182
12542TIP3    H137571   2.673   2.126   0.114
12542TIP3    H237572   2.601   2.248   0.166
12543TIP3   OH237573   0.538   3.759   5.360
12543TIP3    H137574   0.453   3.760   5.315
12543TIP3    H237575   0.543   3.673   5.400
12544TIP3   OH237576   1.092   5.455   1.189
12544TIP3    H137577   1.170   5.509   1.187
12544TIP3    H237578   1.111   5.382   1.131
12545TIP3   OH237579   2.294   2.046   6.295
12545TIP3    H137580   2.364   2.009   6.242
12545TIP3    H237581   2.216   2.042   6.239
12546TIP3   OH237582   1.634   7.518   4.940
12546TIP3    H137583   1.721   7.480   4.947
12546TIP3    H237584   1.644   7.608   4.971
12547TIP3   OH237585   0.795   1.218   1.447
12547TIP3    H137586   0.791   1.298   1.499
12547TIP3    H237587   0.808   1.148   1.511
12548TIP3   OH237588   5.249   2.470   4.126
12548TIP3    H137589   5.242   2.468   4.221
12548TIP3    H237590   5.172   2.519   4.097
12549TIP3   OH237591   4.062   5.233   0.062
12549TIP3    H137592   3.972   5.207   0.042
12549TIP3    H237593   4.053   5.318   0.106
12550TIP3   OH237594   4.034   4.785   0.771
12550TIP3    H137595   4.062   4.694   0.769
12550TIP3    H237596   3.961   4.790   0.710
12551TIP3   OH237597   7.954   7.773   6.043
12551TIP3    H137598   7.870   7.750   6.004
12551TIP3    H237599   8.005   7.810   5.971
12552TIP3   OH237600   5.545   5.528   6.480
12552TIP3    H137601   5.625   5.477   6.494
12552TIP3    H237602   5.482   5.491   6.542
12553TIP3   OH237603   3.909   5.987   0.484
12553TIP3    H137604   3.974   6.041   0.438
12553TIP3    H237605   3.865   6.048   0.544
12554TIP3   OH237606   0.708   4.757   2.785
12554TIP3    H137607   0.658   4.678   2.806
12554TIP3    H237608   0.646   4.829   2.799
12555TIP3   OH237609   3.448   1.194   5.476
12555TIP3    H137610   3.527   1.215   5.428
12555TIP3    H237611   3.478   1.169   5.563
12556TIP3   OH237612   0.355   4.987   6.720
12556TIP3    H137613   0.429   4.934   6.691
12556TIP3    H237614   0.395   5.063   6.762
12557TIP3   OH237615   7.399   5.526   0.983
12557TIP3    H137616   7.466   5.458   0.988
12557TIP3    H237617   7.448   5.608   0.979
12558TIP3   OH237618   2.721   1.555   5.139
12558TIP3    H137619   2.738   1.613   5.065
12558TIP3    H237620   2.658   1.603   5.194
12559TIP3   OH237621   5.674   2.786   6.292
12559TIP3    H137622   5.769   2.792   6.298
12559TIP3    H237623   5.651   2.710   6.347
12560TIP3   OH237624   1.800   3.536   2.494
12560TIP3    H137625   1.756   3.588   2.561
12560TIP3    H237626   1.791   3.587   2.413
12561TIP3   OH237627   1.390   4.713   4.095
12561TIP3    H137628   1.462   4.746   4.041
12561TIP3    H237629   1.328   4.785   4.099
12562TIP3   OH237630   1.706   1.509   5.314
12562TIP3    H137631   1.783   1.455   5.331
12562TIP3    H237632   1.634   1.461   5.354
12563TIP3   OH237633   4.467   1.518   3.388
12563TIP3    H137634   4.452   1.602   3.345
12563TIP3    H237635   4.551   1.528   3.433
12564TIP3   OH237636   1.619   4.054   0.987
12564TIP3    H137637   1.570   4.006   0.920
12564TIP3    H237638   1.577   4.028   1.069
12565TIP3   OH237639   1.743   1.913   0.523
12565TIP3    H137640   1.690   1.993   0.525
12565TIP3    H237641   1.703   1.859   0.456
12566TIP3   OH237642   7.230   2.727   3.976
12566TIP3    H137643   7.204   2.756   4.063
12566TIP3    H237644   7.159   2.670   3.947
12567TIP3   OH237645   1.551   2.944   3.201
12567TIP3    H137646   1.473   2.998   3.186
12567TIP3    H237647   1.597   2.944   3.118
12568TIP3   OH237648   3.545   3.553   0.302
12568TIP3    H137649   3.638   3.547   0.283
12568TIP3    H237650   3.521   3.643   0.278
12569TIP3   OH237651   2.998   2.914   5.266
12569TIP3    H137652   2.929   2.976   5.243
12569TIP3    H237653   3.033   2.885   5.182
12570TIP3   OH237654   4.941   6.979   1.356
12570TIP3    H137655   4.887   6.971   1.435
12570TIP3    H237656   4.888   7.030   1.295
12571TIP3   OH237657   4.612   7.058   3.497
12571TIP3    H137658   4.601   6.964   3.489
12571TIP3    H237659   4.523   7.093   3.491
12572TIP3   OH237660   0.573   3.487   5.545
12572TIP3    H137661   0.662   3.486   5.509
12572TIP3    H237662   0.578   3.546   5.620
12573TIP3   OH237663   2.448   1.847   4.228
12573TIP3    H137664   2.473   1.808   4.144
12573TIP3    H237665   2.529   1.888   4.259
12574TIP3   OH237666   6.293   1.689   5.991
12574TIP3    H137667   6.308   1.615   6.049
12574TIP3    H237668   6.216   1.665   5.940
12575TIP3   OH237669   4.455   0.034   0.937
12575TIP3    H137670   4.411   0.105   0.984
12575TIP3    H237671   4.534   0.017   0.988
12576TIP3   OH237672   5.297   4.360   2.060
12576TIP3    H137673   5.267   4.449   2.081
12576TIP3    H237674   5.289   4.312   2.142
12577TIP3   OH237675   4.125   6.292   1.490
12577TIP3    H137676   4.075   6.222   1.532
12577TIP3    H237677   4.148   6.258   1.404
12578TIP3   OH237678   5.304   3.307   2.789
12578TIP3    H137679   5.305   3.216   2.819
12578TIP3    H237680   5.394   3.324   2.760
12579TIP3   OH237681   7.624   6.143   3.585
12579TIP3    H137682   7.638   6.223   3.635
12579TIP3    H237683   7.710   6.101   3.581
12580TIP3   OH237684   6.379   5.718   3.740
12580TIP3    H137685   6.409   5.630   3.717
12580TIP3    H237686   6.367   5.715   3.835
12581TIP3   OH237687   5.181   1.755   0.101
12581TIP3    H137688   5.120   1.816   0.059
12581TIP3    H237689   5.191   1.787   0.190
12582TIP3   OH237690   3.919   0.303   5.769
12582TIP3    H137691   3.963   0.325   5.687
12582TIP3    H237692   3.826   0.305   5.748
12583TIP3   OH237693   2.991   2.989   2.388
12583TIP3    H137694   3.074   2.963   2.350
12583TIP3    H237695   2.981   2.934   2.465
12584TIP3   OH237696   3.537   0.266   1.570
12584TIP3    H137697   3.614   0.230   1.615
12584TIP3    H237698   3.462   0.235   1.621
12585TIP3   OH237699   4.196   1.476   6.119
12585TIP3    H137700   4.265   1.532   6.084
12585TIP3    H237701   4.228   1.451   6.206
12586TIP3   OH237702   6.899   0.558   3.417
12586TIP3    H137703   6.941   0.567   3.502
12586TIP3    H237704   6.820   0.506   3.435
12587TIP3   OH237705   0.248   3.203   4.787
12587TIP3    H137706   0.198   3.125   4.764
12587TIP3    H237707   0.231   3.265   4.716
12588TIP3   OH237708   5.192   6.569   3.321
12588TIP3    H137709   5.149   6.569   3.406
12588TIP3    H237710   5.267   6.510   3.332
12589TIP3   OH237711   0.189   5.740   3.755
12589TIP3    H137712   0.277   5.750   3.789
12589TIP3    H237713   0.189   5.790   3.673
12590TIP3   OH237714   8.192   2.677   4.738
12590TIP3    H137715   8.181   2.661   4.645
12590TIP3    H237716   8.213   2.592   4.775
12591TIP3   OH237717   1.053   2.976   0.662
12591TIP3    H137718   1.121   2.945   0.602
12591TIP3    H237719   1.062   2.920   0.740
12592TIP3   OH237720   6.619   4.335   5.838
12592TIP3    H137721   6.528   4.305   5.830
12592TIP3    H237722   6.612   4.427   5.865
12593TIP3   OH237723   5.722   6.378   4.597
12593TIP3    H137724   5.710   6.302   4.654
12593TIP3    H237725   5.668   6.446   4.636
12594TIP3   OH237726   8.059   4.380   6.308
12594TIP3    H137727   8.062   4.395   6.403
12594TIP3    H237728   7.965   4.376   6.287
12595TIP3   OH237729   7.401   0.668   6.183
12595TIP3    H137730   7.405   0.578   6.214
12595TIP3    H237731   7.315   0.700   6.211
12596TIP3   OH237732   2.659   2.285   3.979
12596TIP3    H137733   2.744   2.309   4.018
12596TIP3    H237734   2.617   2.230   4.045
12597TIP3   OH237735   3.497   1.820   0.100
12597TIP3    H137736   3.436   1.839   0.172
12597TIP3    H237737   3.570   1.775   0.143
12598TIP3   OH237738   8.052   0.885   4.556
12598TIP3    H137739   8.126   0.906   4.613
12598TIP3    H237740   7.980   0.939   4.589
12599TIP3   OH237741   5.625   5.638   5.187
12599TIP3    H137742   5.672   5.603   5.263
12599TIP3    H237743   5.535   5.649   5.218
12600TIP3   OH237744   6.035   2.769   1.552
12600TIP3    H137745   6.056   2.685   1.592
12600TIP3    H237746   6.084   2.769   1.469
12601TIP3   OH237747   1.985   2.743   5.741
12601TIP3    H137748   1.929   2.821   5.739
12601TIP3    H237749   2.074   2.777   5.739
12602TIP3   OH237750   0.927   2.956   1.012
12602TIP3    H137751   0.980   2.878   1.032
12602TIP3    H237752   0.987   3.029   1.019
12603TIP3   OH237753   3.328   2.609   3.808
12603TIP3    H137754   3.381   2.618   3.887
12603TIP3    H237755   3.320   2.698   3.774
12604TIP3   OH237756   5.568   3.947   2.760
12604TIP3    H137757   5.486   3.958   2.712
12604TIP3    H237758   5.542   3.908   2.843
12605TIP3   OH237759   3.663   3.507   5.024
12605TIP3    H137760   3.695   3.595   5.042
12605TIP3    H237761   3.656   3.466   5.111
12606TIP3   OH237762   5.111   3.551   4.825
12606TIP3    H137763   5.128   3.506   4.742
12606TIP3    H237764   5.148   3.494   4.892
12607TIP3   OH237765   1.808   7.701   0.094
12607TIP3    H137766   1.786   7.774   0.038
12607TIP3    H237767   1.861   7.739   0.164
12608TIP3   OH237768   0.461   7.238   2.865
12608TIP3    H137769   0.413   7.307   2.910
12608TIP3    H237770   0.405   7.161   2.871
12609TIP3   OH237771   5.133   1.303   2.705
12609TIP3    H137772   5.214   1.259   2.732
12609TIP3    H237773   5.161   1.371   2.645
12610TIP3   OH237774   8.128   6.912   5.374
12610TIP3    H137775   8.203   6.870   5.415
12610TIP3    H237776   8.054   6.891   5.431
12611TIP3   OH237777   0.630   0.895   5.727
12611TIP3    H137778   0.678   0.917   5.647
12611TIP3    H237779   0.603   0.979   5.763
12612TIP3   OH237780   1.752   4.879   6.742
12612TIP3    H137781   1.800   4.912   6.818
12612TIP3    H237782   1.786   4.930   6.668
12613TIP3   OH237783   7.625   1.237   1.565
12613TIP3    H137784   7.592   1.238   1.475
12613TIP3    H237785   7.556   1.280   1.616
12614TIP3   OH237786   0.205   7.488   0.167
12614TIP3    H137787   0.144   7.532   0.225
12614TIP3    H237788   0.290   7.525   0.188
12615TIP3   OH237789   0.082   3.296   1.822
12615TIP3    H137790   0.050   3.382   1.793
12615TIP3    H237791   0.130   3.314   1.903
12616TIP3   OH237792   7.952   5.878   0.836
12616TIP3    H137793   7.945   5.876   0.740
12616TIP3    H237794   7.975   5.788   0.860
12617TIP3   OH237795   0.674   3.325   1.093
12617TIP3    H137796   0.602   3.378   1.060
12617TIP3    H237797   0.645   3.235   1.079
12618TIP3   OH237798   5.083   2.026   5.341
12618TIP3    H137799   5.058   2.090   5.407
12618TIP3    H237800   5.013   2.031   5.275
12619TIP3   OH237801   6.261   7.333   4.510
12619TIP3    H137802   6.325   7.365   4.446
12619TIP3    H237803   6.306   7.342   4.594
12620TIP3   OH237804   3.576   4.202   1.466
12620TIP3    H137805   3.632   4.143   1.415
12620TIP3    H237806   3.635   4.243   1.528
12621TIP3   OH237807   2.901   2.300   1.182
12621TIP3    H137808   2.875   2.275   1.271
12621TIP3    H237809   2.970   2.366   1.195
12622TIP3   OH237810   5.868   4.721   2.392
12622TIP3    H137811   5.807   4.794   2.404
12622TIP3    H237812   5.897   4.699   2.480
12623TIP3   OH237813   8.204   0.358   5.540
12623TIP3    H137814   8.163   0.392   5.620
12623TIP3    H237815   8.162   0.407   5.469
12624TIP3   OH237816   2.390   7.068   0.404
12624TIP3    H137817   2.441   7.140   0.442
12624TIP3    H237818   2.313   7.110   0.367
12625TIP3   OH237819   2.385   4.053   5.678
12625TIP3    H137820   2.389   4.024   5.587
12625TIP3    H237821   2.298   4.093   5.686
12626TIP3   OH237822   4.137   6.431   5.968
12626TIP3    H137823   4.088   6.430   6.050
12626TIP3    H237824   4.073   6.411   5.900
12627TIP3   OH237825   5.487   4.057   1.171
12627TIP3    H137826   5.560   4.094   1.221
12627TIP3    H237827   5.475   3.969   1.206
12628TIP3   OH237828   1.465   6.295   2.574
12628TIP3    H137829   1.425   6.296   2.487
12628TIP3    H237830   1.550   6.337   2.562
12629TIP3   OH237831   7.076   7.054   4.948
12629TIP3    H137832   7.034   7.124   4.998
12629TIP3    H237833   7.139   7.099   4.891
12630TIP3   OH237834   3.349   6.451   1.723
12630TIP3    H137835   3.419   6.475   1.783
12630TIP3    H237836   3.285   6.522   1.730
12631TIP3   OH237837   0.043   3.992   3.598
12631TIP3    H137838   0.073   3.917   3.649
12631TIP3    H237839  -0.035   3.961   3.552
12632TIP3   OH237840   2.969   6.486   3.938
12632TIP3    H137841   2.969   6.414   4.002
12632TIP3    H237842   2.913   6.553   3.977
12633TIP3   OH237843   2.261   6.158   0.545
12633TIP3    H137844   2.304   6.206   0.475
12633TIP3    H237845   2.167   6.169   0.528
12634TIP3   OH237846   6.125   4.786   0.635
12634TIP3    H137847   6.032   4.785   0.615
12634TIP3    H237848   6.146   4.878   0.649
12635TIP3   OH237849   3.484   0.155   0.708
12635TIP3    H137850   3.577   0.133   0.701
12635TIP3    H237851   3.453   0.159   0.618
12636TIP3   OH237852   5.166   2.418   3.582
12636TIP3    H137853   5.252   2.408   3.623
12636TIP3    H237854   5.106   2.372   3.640
12637TIP3   OH237855   2.673   1.707   5.581
12637TIP3    H137856   2.632   1.661   5.654
12637TIP3    H237857   2.766   1.688   5.589
12638TIP3   OH237858   7.585   0.664   0.249
12638TIP3    H137859   7.673   0.629   0.239
12638TIP3    H237860   7.549   0.617   0.324
12639TIP3   OH237861   8.098   6.195   1.715
12639TIP3    H137862   8.064   6.239   1.637
12639TIP3    H237863   8.110   6.104   1.689
12640TIP3   OH237864   4.984   2.759   5.263
12640TIP3    H137865   5.008   2.680   5.312
12640TIP3    H237866   4.889   2.767   5.275
12641TIP3   OH237867   7.812   3.399   5.992
12641TIP3    H137868   7.794   3.308   5.969
12641TIP3    H237869   7.726   3.437   6.008
12642TIP3   OH237870   6.553   4.682   6.420
12642TIP3    H137871   6.642   4.710   6.441
12642TIP3    H237872   6.535   4.611   6.482
12643TIP3   OH237873   6.912   3.457   0.117
12643TIP3    H137874   6.849   3.416   0.177
12643TIP3    H237875   6.963   3.384   0.082
12644TIP3   OH237876   6.582   1.777   0.124
12644TIP3    H137877   6.669   1.784   0.085
12644TIP3    H237878   6.589   1.826   0.206
12645TIP3   OH237879   6.749   1.227   1.970
12645TIP3    H137880   6.707   1.212   1.886
12645TIP3    H237881   6.698   1.176   2.033
12646TIP3   OH237882   0.354   2.822   1.829
12646TIP3    H137883   0.305   2.781   1.756
12646TIP3    H237884   0.342   2.761   1.902
12647TIP3   OH237885   1.416   1.230   0.613
12647TIP3    H137886   1.338   1.241   0.667
12647TIP3    H237887   1.473   1.302   0.638
12648TIP3   OH237888   3.379   3.601   1.217
12648TIP3    H137889   3.306   3.591   1.156
12648TIP3    H237890   3.396   3.695   1.220
12649TIP3   OH237891   2.540   6.619   6.464
12649TIP3    H137892   2.483   6.640   6.538
12649TIP3    H237893   2.480   6.609   6.390
12650TIP3   OH237894   7.044   0.522   2.247
12650TIP3    H137895   7.026   0.433   2.278
12650TIP3    H237896   7.109   0.509   2.177
12651TIP3   OH237897   1.971   3.758   3.626
12651TIP3    H137898   1.953   3.707   3.705
12651TIP3    H237899   2.052   3.720   3.591
12652TIP3   OH237900   1.518   0.886   0.161
12652TIP3    H137901   1.497   0.971   0.122
12652TIP3    H237902   1.491   0.894   0.253
12653TIP3   OH237903   0.459   7.163   4.874
12653TIP3    H137904   0.368   7.163   4.905
12653TIP3    H237905   0.501   7.094   4.926
12654TIP3   OH237906   8.231   2.605   6.644
12654TIP3    H137907   8.284   2.677   6.678
12654TIP3    H237908   8.288   2.528   6.650
12655TIP3   OH237909   1.536   1.038   0.768
12655TIP3    H137910   1.522   1.106   0.702
12655TIP3    H237911   1.519   1.083   0.851
12656TIP3   OH237912   0.351   7.388   5.112
12656TIP3    H137913   0.390   7.474   5.127
12656TIP3    H237914   0.379   7.336   5.187
12657TIP3   OH237915   6.120   6.745   1.217
12657TIP3    H137916   6.166   6.682   1.162
12657TIP3    H237917   6.187   6.809   1.241
12658TIP3   OH237918   3.138   6.975   0.370
12658TIP3    H137919   3.122   7.031   0.294
12658TIP3    H237920   3.070   6.907   0.364
12659TIP3   OH237921   2.656   0.144   0.024
12659TIP3    H137922   2.571   0.147  -0.020
12659TIP3    H237923   2.636   0.160   0.116
12660TIP3   OH237924   5.777   1.507   0.642
12660TIP3    H137925   5.794   1.513   0.548
12660TIP3    H237926   5.685   1.532   0.652
12661TIP3   OH237927   7.696   4.819   2.060
12661TIP3    H137928   7.639   4.894   2.042
12661TIP3    H237929   7.655   4.775   2.135
12662TIP3   OH237930   8.041   4.171   0.609
12662TIP3    H137931   8.008   4.259   0.591
12662TIP3    H237932   8.127   4.169   0.568
12663TIP3   OH237933   7.550   0.727   3.113
12663TIP3    H137934   7.517   0.764   3.031
12663TIP3    H237935   7.645   0.737   3.107
12664TIP3   OH237936   1.177   3.210   4.122
12664TIP3    H137937   1.086   3.236   4.115
12664TIP3    H237938   1.221   3.253   4.049
12665TIP3   OH237939   2.900   0.167   5.965
12665TIP3    H137940   2.957   0.235   5.999
12665TIP3    H237941   2.846   0.141   6.039
12666TIP3   OH237942   6.715   2.656   3.508
12666TIP3    H137943   6.637   2.683   3.557
12666TIP3    H237944   6.763   2.737   3.492
12667TIP3   OH237945   1.060   5.571   4.160
12667TIP3    H137946   1.003   5.500   4.130
12667TIP3    H237947   1.035   5.584   4.252
12668TIP3   OH237948   3.792   6.059   5.765
12668TIP3    H137949   3.761   6.121   5.831
12668TIP3    H237950   3.887   6.057   5.777
12669TIP3   OH237951   5.496   0.524   4.294
12669TIP3    H137952   5.493   0.615   4.322
12669TIP3    H237953   5.477   0.474   4.373
12670TIP3   OH237954   6.387   6.754   3.399
12670TIP3    H137955   6.313   6.714   3.352
12670TIP3    H237956   6.393   6.842   3.364
12671TIP3   OH237957   7.440   3.253   2.143
12671TIP3    H137958   7.355   3.293   2.125
12671TIP3    H237959   7.486   3.318   2.197
12672TIP3   OH237960   1.185   4.542   1.257
12672TIP3    H137961   1.103   4.493   1.250
12672TIP3    H237962   1.253   4.477   1.237
12673TIP3   OH237963   6.456   7.530   2.207
12673TIP3    H137964   6.525   7.567   2.153
12673TIP3    H237965   6.399   7.483   2.145
12674TIP3   OH237966   5.058   7.301   0.764
12674TIP3    H137967   5.007   7.368   0.719
12674TIP3    H237968   5.034   7.311   0.856
12675TIP3   OH237969   4.251   2.341   1.665
12675TIP3    H137970   4.266   2.433   1.642
12675TIP3    H237971   4.156   2.330   1.662
12676TIP3   OH237972   2.363   1.810   5.772
12676TIP3    H137973   2.332   1.722   5.751
12676TIP3    H237974   2.286   1.865   5.763
12677TIP3   OH237975   1.480   5.702   4.628
12677TIP3    H137976   1.426   5.663   4.558
12677TIP3    H237977   1.551   5.639   4.641
12678TIP3   OH237978   1.706   6.542   3.798
12678TIP3    H137979   1.625   6.568   3.841
12678TIP3    H237980   1.689   6.553   3.704
12679TIP3   OH237981   0.142   3.693   2.556
12679TIP3    H137982   0.052   3.723   2.542
12679TIP3    H237983   0.156   3.705   2.650
12680TIP3   OH237984   5.964   1.394   6.193
12680TIP3    H137985   5.899   1.452   6.233
12680TIP3    H237986   5.916   1.313   6.175
12681TIP3   OH237987   2.425   3.348   2.826
12681TIP3    H137988   2.376   3.275   2.788
12681TIP3    H237989   2.517   3.321   2.820
12682TIP3   OH237990   6.207   1.714   1.926
12682TIP3    H137991   6.274   1.660   1.883
12682TIP3    H237992   6.250   1.749   2.004
12683TIP3   OH237993   0.896   4.691   3.017
12683TIP3    H137994   0.952   4.620   2.986
12683TIP3    H237995   0.830   4.702   2.949
12684TIP3   OH237996   2.776   4.354   2.494
12684TIP3    H137997   2.864   4.340   2.528
12684TIP3    H237998   2.778   4.319   2.405
12685TIP3   OH237999   5.709   7.597   5.765
12685TIP3    H138000   5.719   7.647   5.846
12685TIP3    H238001   5.787   7.541   5.763
12686TIP3   OH238002   0.971   2.845   5.483
12686TIP3    H138003   0.965   2.830   5.577
12686TIP3    H238004   0.921   2.926   5.468
12687TIP3   OH238005   3.134   0.259   5.023
12687TIP3    H138006   3.141   0.353   5.009
12687TIP3    H238007   3.042   0.245   5.048
12688TIP3   OH238008   6.290   2.117   3.188
12688TIP3    H138009   6.316   2.067   3.111
12688TIP3    H238010   6.239   2.190   3.153
12689TIP3   OH238011   1.452   7.048   4.288
12689TIP3    H138012   1.451   7.143   4.296
12689TIP3    H238013   1.452   7.031   4.194
12690TIP3   OH238014   5.457   4.632   0.157
12690TIP3    H138015   5.409   4.586   0.088
12690TIP3    H238016   5.421   4.720   0.157
12691TIP3   OH238017   1.435   4.485   3.406
12691TIP3    H138018   1.357   4.468   3.354
12691TIP3    H238019   1.415   4.449   3.492
12692TIP3   OH238020   7.331   3.917   3.833
12692TIP3    H138021   7.241   3.909   3.803
12692TIP3    H238022   7.335   4.002   3.877
12693TIP3   OH238023   0.446   4.279   4.859
12693TIP3    H138024   0.535   4.267   4.892
12693TIP3    H238025   0.456   4.297   4.766
12694TIP3   OH238026   0.666   0.130   6.748
12694TIP3    H138027   0.711   0.209   6.777
12694TIP3    H238028   0.734   0.062   6.751
12695TIP3   OH238029   5.361   3.353   5.608
12695TIP3    H138030   5.412   3.288   5.561
12695TIP3    H238031   5.426   3.412   5.646
12696TIP3   OH238032   3.498   4.010   2.879
12696TIP3    H138033   3.454   4.005   2.963
12696TIP3    H238034   3.590   4.025   2.901
12697TIP3   OH238035   7.348   1.215   5.620
12697TIP3    H138036   7.336   1.130   5.662
12697TIP3    H238037   7.415   1.258   5.673
12698TIP3   OH238038   4.290   2.829   6.017
12698TIP3    H138039   4.294   2.747   6.066
12698TIP3    H238040   4.317   2.896   6.080
12699TIP3   OH238041   1.404   1.963   2.964
12699TIP3    H138042   1.476   2.009   3.008
12699TIP3    H238043   1.432   1.958   2.872
12700TIP3   OH238044   6.606   3.983   3.388
12700TIP3    H138045   6.664   4.035   3.332
12700TIP3    H238046   6.577   3.911   3.333
12701TIP3   OH238047   0.690   6.840   4.596
12701TIP3    H138048   0.763   6.793   4.554
12701TIP3    H238049   0.633   6.866   4.524
12702TIP3   OH238050   1.706   6.986   3.683
12702TIP3    H138051   1.777   6.923   3.665
12702TIP3    H238052   1.748   7.072   3.677
12703TIP3   OH238053   3.025   6.886   6.488
12703TIP3    H138054   2.950   6.862   6.434
12703TIP3    H238055   2.988   6.934   6.562
12704TIP3   OH238056   4.877   1.116   4.014
12704TIP3    H138057   4.921   1.116   4.099
12704TIP3    H238058   4.792   1.076   4.031
12705TIP3   OH238059   7.575   1.838   2.487
12705TIP3    H138060   7.534   1.752   2.481
12705TIP3    H238061   7.524   1.894   2.429
12706TIP3   OH238062   0.845   5.047   6.763
12706TIP3    H138063   0.925   5.027   6.714
12706TIP3    H238064   0.820   4.964   6.804
12707TIP3   OH238065   3.420   7.468   3.799
12707TIP3    H138066   3.339   7.419   3.811
12707TIP3    H238067   3.488   7.400   3.797
12708TIP3   OH238068   6.945   1.104   6.256
12708TIP3    H138069   6.982   1.147   6.333
12708TIP3    H238070   7.021   1.074   6.206
12709TIP3   OH238071   5.180   0.024   5.199
12709TIP3    H138072   5.142   0.092   5.254
12709TIP3    H238073   5.224   0.072   5.128
12710TIP3   OH238074   4.468   4.187   1.369
12710TIP3    H138075   4.542   4.131   1.346
12710TIP3    H238076   4.415   4.135   1.429
12711TIP3   OH238077   3.495   6.280   4.642
12711TIP3    H138078   3.523   6.371   4.630
12711TIP3    H238079   3.542   6.251   4.720
12712TIP3   OH238080   7.500   0.033   2.398
12712TIP3    H138081   7.479   0.121   2.428
12712TIP3    H238082   7.537  -0.011   2.475
12713TIP3   OH238083   5.625   0.632   6.666
12713TIP3    H138084   5.583   0.549   6.643
12713TIP3    H238085   5.660   0.665   6.584
12714TIP3   OH238086   1.027   1.847   1.123
12714TIP3    H138087   0.936   1.877   1.115
12714TIP3    H238088   1.040   1.792   1.045
12715TIP3   OH238089   5.272   3.479   0.356
12715TIP3    H138090   5.287   3.484   0.450
12715TIP3    H238091   5.184   3.514   0.344
12716TIP3   OH238092   2.091   2.490   1.770
12716TIP3    H138093   2.134   2.413   1.734
12716TIP3    H238094   2.156   2.560   1.762
12717TIP3   OH238095   6.631   1.979   5.756
12717TIP3    H138096   6.693   2.012   5.821
12717TIP3    H238097   6.629   2.047   5.689
12718TIP3   OH238098   4.243   2.830   4.525
12718TIP3    H138099   4.189   2.795   4.596
12718TIP3    H238100   4.326   2.784   4.534
12719TIP3   OH238101   0.928   4.476   2.351
12719TIP3    H138102   0.932   4.410   2.420
12719TIP3    H238103   0.918   4.425   2.270
12720TIP3   OH238104   1.530   3.390   1.431
12720TIP3    H138105   1.487   3.313   1.394
12720TIP3    H238106   1.459   3.450   1.455
12721TIP3   OH238107   4.091   5.869   2.025
12721TIP3    H138108   4.071   5.910   1.941
12721TIP3    H238109   4.008   5.831   2.054
12722TIP3   OH238110   2.710   7.185   3.098
12722TIP3    H138111   2.750   7.129   3.031
12722TIP3    H238112   2.620   7.199   3.067
12723TIP3   OH238113   6.691   0.504   0.826
12723TIP3    H138114   6.602   0.474   0.846
12723TIP3    H238115   6.693   0.594   0.860
12724TIP3   OH238116   1.195   3.551   0.896
12724TIP3    H138117   1.125   3.488   0.882
12724TIP3    H238118   1.213   3.546   0.990
12725TIP3   OH238119   3.379   2.869   5.193
12725TIP3    H138120   3.325   2.913   5.127
12725TIP3    H238121   3.397   2.783   5.157
12726TIP3   OH238122   4.318   5.428   6.681
12726TIP3    H138123   4.399   5.400   6.724
12726TIP3    H238124   4.275   5.486   6.745
12727TIP3   OH238125   1.082   4.947   3.804
12727TIP3    H138126   1.147   4.918   3.869
12727TIP3    H238127   1.026   4.871   3.791
12728TIP3   OH238128   1.321   4.281   1.218
12728TIP3    H138129   1.314   4.220   1.144
12728TIP3    H238130   1.412   4.310   1.217
12729TIP3   OH238131   1.240   3.126   3.407
12729TIP3    H138132   1.258   3.072   3.484
12729TIP3    H238133   1.215   3.063   3.339
12730TIP3   OH238134   6.273   4.027   3.484
12730TIP3    H138135   6.201   4.014   3.546
12730TIP3    H238136   6.324   3.947   3.489
12731TIP3   OH238137   4.214   3.639   0.258
12731TIP3    H138138   4.302   3.674   0.268
12731TIP3    H238139   4.173   3.695   0.193
12732TIP3   OH238140   7.697   2.169   6.143
12732TIP3    H138141   7.673   2.161   6.236
12732TIP3    H238142   7.792   2.168   6.143
12733TIP3   OH238143   5.409   0.190   5.436
12733TIP3    H138144   5.503   0.194   5.422
12733TIP3    H238145   5.388   0.097   5.440
12734TIP3   OH238146   7.577   3.510   6.085
12734TIP3    H138147   7.508   3.570   6.057
12734TIP3    H238148   7.534   3.451   6.147
12735TIP3   OH238149   7.829   0.809  -0.005
12735TIP3    H138150   7.779   0.763  -0.072
12735TIP3    H238151   7.811   0.760   0.076
12736TIP3   OH238152   3.073   7.318   5.251
12736TIP3    H138153   3.137   7.387   5.236
12736TIP3    H238154   3.052   7.285   5.163
12737TIP3   OH238155   1.577   4.699   1.523
12737TIP3    H138156   1.549   4.688   1.432
12737TIP3    H238157   1.502   4.669   1.575
12738TIP3   OH238158   7.806   7.292   6.485
12738TIP3    H138159   7.898   7.265   6.480
12738TIP3    H238160   7.784   7.286   6.578
12739TIP3   OH238161   5.469   3.922   5.756
12739TIP3    H138162   5.408   3.866   5.708
12739TIP3    H238163   5.553   3.878   5.750
12740TIP3   OH238164   4.703   5.363   0.758
12740TIP3    H138165   4.731   5.317   0.837
12740TIP3    H238166   4.623   5.409   0.783
12741TIP3   OH238167   0.597   1.073   0.080
12741TIP3    H138168   0.603   1.004   0.014
12741TIP3    H238169   0.634   1.150   0.037
12742TIP3   OH238170   5.709   4.376   3.323
12742TIP3    H138171   5.778   4.366   3.390
12742TIP3    H238172   5.693   4.287   3.292
12743TIP3   OH238173   8.312   0.305   0.967
12743TIP3    H138174   8.312   0.391   0.925
12743TIP3    H238175   8.258   0.316   1.045
12744TIP3   OH238176   0.953   1.097   5.712
12744TIP3    H138177   0.937   1.101   5.806
12744TIP3    H238178   1.045   1.123   5.701
12745TIP3   OH238179   3.147   4.416   0.373
12745TIP3    H138180   3.063   4.459   0.357
12745TIP3    H238181   3.175   4.385   0.287
12746TIP3   OH238182   0.495   2.641   6.587
12746TIP3    H138183   0.511   2.729   6.552
12746TIP3    H238184   0.553   2.635   6.663
12747TIP3   OH238185   3.904   4.569   1.753
12747TIP3    H138186   3.874   4.657   1.777
12747TIP3    H238187   3.872   4.512   1.823
12748TIP3   OH238188   5.840   6.197   6.604
12748TIP3    H138189   5.771   6.143   6.566
12748TIP3    H238190   5.921   6.166   6.562
12749TIP3   OH238191   5.037   0.976   1.184
12749TIP3    H138192   5.111   1.038   1.186
12749TIP3    H238193   4.985   1.003   1.109
12750TIP3   OH238194   6.737   5.946   4.243
12750TIP3    H138195   6.721   5.900   4.326
12750TIP3    H238196   6.797   6.017   4.267
12751TIP3   OH238197   0.702   5.306   6.676
12751TIP3    H138198   0.764   5.239   6.707
12751TIP3    H238199   0.726   5.321   6.585
12752TIP3   OH238200   5.467   5.980   5.754
12752TIP3    H138201   5.494   5.937   5.835
12752TIP3    H238202   5.509   6.066   5.757
12753TIP3   OH238203   1.786   7.647   0.429
12753TIP3    H138204   1.818   7.597   0.504
12753TIP3    H238205   1.865   7.684   0.390
12754TIP3   OH238206   4.602   7.346   3.009
12754TIP3    H138207   4.667   7.277   2.999
12754TIP3    H238208   4.637   7.420   2.960
12755TIP3   OH238209   6.761   1.299   0.083
12755TIP3    H138210   6.723   1.352   0.153
12755TIP3    H238211   6.855   1.317   0.088
12756TIP3   OH238212   4.534   3.535   4.906
12756TIP3    H138213   4.441   3.523   4.885
12756TIP3    H238214   4.566   3.447   4.923
12757TIP3   OH238215   7.741   5.185   2.170
12757TIP3    H138216   7.768   5.146   2.087
12757TIP3    H238217   7.755   5.116   2.235
12758TIP3   OH238218   4.302   6.335   6.604
12758TIP3    H138219   4.316   6.241   6.597
12758TIP3    H238220   4.292   6.364   6.513
12759TIP3   OH238221   7.035   5.686   5.907
12759TIP3    H138222   6.960   5.745   5.920
12759TIP3    H238223   7.047   5.644   5.992
12760TIP3   OH238224   2.910   3.821   0.183
12760TIP3    H138225   2.937   3.865   0.263
12760TIP3    H238226   2.975   3.848   0.118
12761TIP3   OH238227   6.234   5.541   4.375
12761TIP3    H138228   6.259   5.627   4.409
12761TIP3    H238229   6.138   5.542   4.378
12762TIP3   OH238230   5.701   4.780   5.734
12762TIP3    H138231   5.665   4.843   5.672
12762TIP3    H238232   5.635   4.774   5.803
12763TIP3   OH238233   1.355   7.513   3.727
12763TIP3    H138234   1.438   7.547   3.762
12763TIP3    H238235   1.290   7.536   3.793
12764TIP3   OH238236   2.260   1.447   0.620
12764TIP3    H138237   2.226   1.473   0.534
12764TIP3    H238238   2.352   1.471   0.617
12765TIP3   OH238239   5.319   1.726   4.824
12765TIP3    H138240   5.295   1.713   4.733
12765TIP3    H238241   5.237   1.746   4.869
12766TIP3   OH238242   7.597   1.214   0.749
12766TIP3    H138243   7.528   1.275   0.775
12766TIP3    H238244   7.620   1.169   0.830
12767TIP3   OH238245   0.180   6.959   4.851
12767TIP3    H138246   0.255   6.900   4.850
12767TIP3    H238247   0.137   6.941   4.935
12768TIP3   OH238248   0.870   2.860   1.980
12768TIP3    H138249   0.798   2.799   1.997
12768TIP3    H238250   0.869   2.919   2.055
12769TIP3   OH238251   6.108   6.922   3.792
12769TIP3    H138252   6.123   7.001   3.740
12769TIP3    H238253   6.121   6.850   3.730
12770TIP3   OH238254   1.315   4.750   3.380
12770TIP3    H138255   1.383   4.809   3.347
12770TIP3    H238256   1.361   4.667   3.393
12771TIP3   OH238257   8.015   4.868   1.094
12771TIP3    H138258   8.049   4.911   1.172
12771TIP3    H238259   8.071   4.791   1.083
12772TIP3   OH238260   7.800   5.047   1.510
12772TIP3    H138261   7.720   4.994   1.519
12772TIP3    H238262   7.871   4.986   1.527
12773TIP3   OH238263   6.555   2.817   1.725
12773TIP3    H138264   6.505   2.766   1.661
12773TIP3    H238265   6.639   2.771   1.732
12774TIP3   OH238266   8.191   0.465   6.442
12774TIP3    H138267   8.175   0.373   6.423
12774TIP3    H238268   8.147   0.512   6.371
12775TIP3   OH238269   3.694   5.356   4.308
12775TIP3    H138270   3.634   5.418   4.348
12775TIP3    H238271   3.764   5.410   4.271
12776TIP3   OH238272   5.605   4.109   0.924
12776TIP3    H138273   5.539   4.097   0.992
12776TIP3    H238274   5.682   4.064   0.957
12777TIP3   OH238275   1.741   6.826   0.632
12777TIP3    H138276   1.652   6.860   0.623
12777TIP3    H238277   1.761   6.790   0.546
12778TIP3   OH238278   2.386   2.803   0.796
12778TIP3    H138279   2.405   2.739   0.728
12778TIP3    H238280   2.382   2.751   0.877
12779TIP3   OH238281   4.195   6.829   5.439
12779TIP3    H138282   4.175   6.737   5.455
12779TIP3    H238283   4.257   6.853   5.508
12780TIP3   OH238284   0.424   5.302   0.692
12780TIP3    H138285   0.365   5.377   0.701
12780TIP3    H238286   0.512   5.341   0.695
12781TIP3   OH238287   7.598   4.455   1.412
12781TIP3    H138288   7.620   4.371   1.452
12781TIP3    H238289   7.621   4.520   1.478
12782TIP3   OH238290   1.941   3.010   4.603
12782TIP3    H138291   1.887   3.087   4.582
12782TIP3    H238292   1.903   2.939   4.551
12783TIP3   OH238293   7.635   1.642   4.700
12783TIP3    H138294   7.612   1.599   4.782
12783TIP3    H238295   7.554   1.639   4.648
12784TIP3   OH238296   4.634   7.174   1.700
12784TIP3    H138297   4.600   7.168   1.611
12784TIP3    H238298   4.598   7.098   1.745
12785TIP3   OH238299   1.505   4.003   4.277
12785TIP3    H138300   1.522   4.095   4.296
12785TIP3    H238301   1.432   4.004   4.216
12786TIP3   OH238302   1.209   2.851   0.435
12786TIP3    H138303   1.300   2.880   0.438
12786TIP3    H238304   1.211   2.767   0.391
12787TIP3   OH238305   6.665   3.248   1.498
12787TIP3    H138306   6.670   3.227   1.591
12787TIP3    H238307   6.632   3.168   1.456
12788TIP3   OH238308   7.418   5.041   5.772
12788TIP3    H138309   7.424   5.064   5.679
12788TIP3    H238310   7.416   5.125   5.817
12789TIP3   OH238311   7.505   4.653   2.240
12789TIP3    H138312   7.514   4.719   2.308
12789TIP3    H238313   7.496   4.570   2.287
12790TIP3   OH238314   0.806   1.033   6.121
12790TIP3    H138315   0.810   1.110   6.064
12790TIP3    H238316   0.830   0.960   6.065
12791TIP3   OH238317   6.225   1.380   5.182
12791TIP3    H138318   6.243   1.471   5.207
12791TIP3    H238319   6.209   1.383   5.088
12792TIP3   OH238320   1.612   4.176   3.772
12792TIP3    H138321   1.629   4.249   3.831
12792TIP3    H238322   1.676   4.110   3.797
12793TIP3   OH238323   5.512   6.274   3.881
12793TIP3    H138324   5.526   6.332   3.957
12793TIP3    H238325   5.443   6.214   3.909
12794TIP3   OH238326   0.563   4.474   0.437
12794TIP3    H138327   0.602   4.395   0.399
12794TIP3    H238328   0.489   4.493   0.380
12795TIP3   OH238329   1.062   4.436   5.635
12795TIP3    H138330   1.094   4.456   5.547
12795TIP3    H238331   1.097   4.348   5.653
12796TIP3   OH238332   6.893   1.694   1.499
12796TIP3    H138333   6.946   1.640   1.558
12796TIP3    H238334   6.897   1.782   1.537
12797TIP3   OH238335   7.510   1.223   1.323
12797TIP3    H138336   7.425   1.180   1.330
12797TIP3    H238337   7.499   1.286   1.251
12798TIP3   OH238338   6.011   6.073   4.633
12798TIP3    H138339   5.931   6.063   4.582
12798TIP3    H238340   6.042   6.161   4.612
12799TIP3   OH238341   5.209   6.031   3.485
12799TIP3    H138342   5.232   6.012   3.575
12799TIP3    H238343   5.290   6.060   3.444
12800TIP3   OH238344   8.244   2.704   3.914
12800TIP3    H138345   8.210   2.729   3.828
12800TIP3    H238346   8.310   2.637   3.896
12801TIP3   OH238347   7.086   0.773   6.185
12801TIP3    H138348   7.112   0.846   6.129
12801TIP3    H238349   6.995   0.790   6.206
12802TIP3   OH238350   0.616   5.706   6.150
12802TIP3    H138351   0.609   5.713   6.055
12802TIP3    H238352   0.527   5.688   6.180
12803TIP3   OH238353   2.066   3.860   5.973
12803TIP3    H138354   2.081   3.950   6.004
12803TIP3    H238355   2.125   3.850   5.899
12804TIP3   OH238356   8.212   7.070   0.513
12804TIP3    H138357   8.297   7.076   0.558
12804TIP3    H238358   8.155   7.027   0.577
12805TIP3   OH238359   7.852   5.278   0.723
12805TIP3    H138360   7.771   5.249   0.765
12805TIP3    H238361   7.881   5.203   0.672
12806TIP3   OH238362   4.840   6.830   6.449
12806TIP3    H138363   4.856   6.736   6.435
12806TIP3    H238364   4.914   6.860   6.501
12807TIP3   OH238365   6.067   0.915   6.559
12807TIP3    H138366   6.162   0.920   6.549
12807TIP3    H238367   6.034   0.993   6.514
12808TIP3   OH238368   1.512   4.445   2.855
12808TIP3    H138369   1.605   4.465   2.870
12808TIP3    H238370   1.510   4.402   2.769
12809TIP3   OH238371   3.331   6.941   5.742
12809TIP3    H138372   3.329   6.936   5.838
12809TIP3    H238373   3.245   6.911   5.714
12810TIP3   OH238374   7.222   3.952   3.117
12810TIP3    H138375   7.285   3.883   3.094
12810TIP3    H238376   7.266   4.034   3.092
12811TIP3   OH238377   3.724   2.920   1.300
12811TIP3    H138378   3.778   2.844   1.281
12811TIP3    H238379   3.710   2.916   1.394
12812TIP3   OH238380   0.315   2.662   5.375
12812TIP3    H138381   0.387   2.691   5.431
12812TIP3    H238382   0.352   2.663   5.287
12813TIP3   OH238383   0.441   5.230   1.152
12813TIP3    H138384   0.354   5.202   1.183
12813TIP3    H238385   0.439   5.325   1.157
12814TIP3   OH238386   5.810   5.683   6.255
12814TIP3    H138387   5.838   5.772   6.233
12814TIP3    H238388   5.729   5.695   6.304
12815TIP3   OH238389   7.134   3.143   1.898
12815TIP3    H138390   7.229   3.153   1.890
12815TIP3    H238391   7.119   3.126   1.991
12816TIP3   OH238392   4.878   3.899   6.147
12816TIP3    H138393   4.843   3.981   6.182
12816TIP3    H238394   4.800   3.847   6.126
12817TIP3   OH238395   0.316   0.378   5.078
12817TIP3    H138396   0.256   0.355   5.149
12817TIP3    H238397   0.403   0.356   5.112
12818TIP3   OH238398   1.967   0.298   4.946
12818TIP3    H138399   1.902   0.317   5.015
12818TIP3    H238400   1.992   0.207   4.961
12819TIP3   OH238401   1.355   0.208   0.558
12819TIP3    H138402   1.366   0.277   0.493
12819TIP3    H238403   1.261   0.199   0.569
12820TIP3   OH238404   1.364   4.442   0.933
12820TIP3    H138405   1.367   4.537   0.946
12820TIP3    H238406   1.295   4.428   0.868
12821TIP3   OH238407   5.480   2.165   5.527
12821TIP3    H138408   5.551   2.133   5.582
12821TIP3    H238409   5.435   2.086   5.497
12822TIP3   OH238410   3.447   4.086   4.369
12822TIP3    H138411   3.482   4.026   4.435
12822TIP3    H238412   3.361   4.111   4.401
12823TIP3   OH238413   1.435   7.486   5.911
12823TIP3    H138414   1.344   7.499   5.936
12823TIP3    H238415   1.465   7.414   5.967
12824TIP3   OH238416   0.828   5.599   2.372
12824TIP3    H138417   0.736   5.590   2.346
12824TIP3    H238418   0.877   5.591   2.290
12825TIP3   OH238419   2.963   2.742   3.420
12825TIP3    H138420   2.996   2.738   3.510
12825TIP3    H238421   2.874   2.776   3.429
12826TIP3   OH238422   7.969   0.251   4.608
12826TIP3    H138423   7.943   0.258   4.700
12826TIP3    H238424   8.017   0.333   4.590
12827TIP3   OH238425   7.086   6.006   3.750
12827TIP3    H138426   7.150   6.076   3.739
12827TIP3    H238427   7.054   5.988   3.662
12828TIP3   OH238428   1.134   2.044   3.006
12828TIP3    H138429   1.137   2.079   3.095
12828TIP3    H238430   1.225   2.033   2.981
12829TIP3   OH238431   2.330   4.540   0.481
12829TIP3    H138432   2.264   4.546   0.412
12829TIP3    H238433   2.322   4.452   0.516
12830TIP3   OH238434   6.037   4.592   3.054
12830TIP3    H138435   5.946   4.567   3.038
12830TIP3    H238436   6.084   4.557   2.978
12831TIP3   OH238437   5.495   7.656   1.362
12831TIP3    H138438   5.588   7.642   1.342
12831TIP3    H238439   5.478   7.601   1.438
12832TIP3   OH238440   5.367   1.197   4.814
12832TIP3    H138441   5.303   1.139   4.856
12832TIP3    H238442   5.450   1.148   4.818
12833TIP3   OH238443   7.401   5.037   1.654
12833TIP3    H138444   7.408   5.107   1.589
12833TIP3    H238445   7.380   4.959   1.602
12834TIP3   OH238446   3.945   0.998   5.450
12834TIP3    H138447   4.026   0.952   5.471
12834TIP3    H238448   3.936   1.064   5.518
12835TIP3   OH238449   1.762   1.079   2.672
12835TIP3    H138450   1.842   1.061   2.722
12835TIP3    H238451   1.704   1.005   2.691
12836TIP3   OH238452   3.002   3.507   2.448
12836TIP3    H138453   3.055   3.514   2.527
12836TIP3    H238454   3.056   3.458   2.387
12837TIP3   OH238455   4.632   1.648   2.183
12837TIP3    H138456   4.562   1.615   2.128
12837TIP3    H238457   4.608   1.739   2.201
12838TIP3   OH238458   2.631   7.602   6.445
12838TIP3    H138459   2.715   7.630   6.482
12838TIP3    H238460   2.618   7.514   6.478
12839TIP3   OH238461   2.006   5.313   5.963
12839TIP3    H138462   2.045   5.381   5.907
12839TIP3    H238463   1.922   5.293   5.921
12840TIP3   OH238464   1.725   3.886   5.261
12840TIP3    H138465   1.697   3.805   5.304
12840TIP3    H238466   1.643   3.928   5.235
12841TIP3   OH238467   5.117   7.853   5.590
12841TIP3    H138468   5.203   7.875   5.625
12841TIP3    H238469   5.134   7.781   5.528
12842TIP3   OH238470   4.696   7.337   5.742
12842TIP3    H138471   4.697   7.402   5.672
12842TIP3    H238472   4.704   7.253   5.697
12843TIP3   OH238473   3.080   6.145   1.657
12843TIP3    H138474   3.132   6.086   1.713
12843TIP3    H238475   3.013   6.088   1.619
12844TIP3   OH238476   4.746   3.579   2.977
12844TIP3    H138477   4.837   3.586   3.005
12844TIP3    H238478   4.701   3.544   3.054
12845TIP3   OH238479   6.530   6.514   5.806
12845TIP3    H138480   6.444   6.512   5.765
12845TIP3    H238481   6.573   6.590   5.766
12846TIP3   OH238482   6.593   5.803   2.806
12846TIP3    H138483   6.502   5.834   2.808
12846TIP3    H238484   6.625   5.816   2.895
12847TIP3   OH238485   0.068   2.741   1.553
12847TIP3    H138486   0.021   2.748   1.636
12847TIP3    H238487   0.136   2.675   1.569
12848TIP3   OH238488   3.786   5.136   3.656
12848TIP3    H138489   3.781   5.092   3.572
12848TIP3    H238490   3.877   5.163   3.665
12849TIP3   OH238491   1.600   4.016   5.761
12849TIP3    H138492   1.641   4.101   5.748
12849TIP3    H238493   1.555   3.998   5.679
12850TIP3   OH238494   2.353   2.757   3.197
12850TIP3    H138495   2.447   2.774   3.208
12850TIP3    H238496   2.312   2.802   3.271
12851TIP3   OH238497   8.048   3.901   2.312
12851TIP3    H138498   7.967   3.851   2.306
12851TIP3    H238499   8.041   3.966   2.242
12852TIP3   OH238500   6.928   4.271   6.745
12852TIP3    H138501   6.963   4.332   6.679
12852TIP3    H238502   6.854   4.229   6.701
12853TIP3   OH238503   6.833   6.439   3.747
12853TIP3    H138504   6.808   6.505   3.812
12853TIP3    H238505   6.868   6.366   3.799
12854TIP3   OH238506   1.863   3.971   0.678
12854TIP3    H138507   1.951   3.939   0.661
12854TIP3    H238508   1.846   3.946   0.769
12855TIP3   OH238509   6.333   0.552   6.153
12855TIP3    H138510   6.273   0.479   6.134
12855TIP3    H238511   6.416   0.509   6.175
12856TIP3   OH238512   1.013   3.252   3.500
12856TIP3    H138513   1.000   3.297   3.416
12856TIP3    H238514   1.089   3.196   3.485
12857TIP3   OH238515   0.667   2.965   1.555
12857TIP3    H138516   0.665   2.886   1.502
12857TIP3    H238517   0.641   2.936   1.643
12858TIP3   OH238518   1.706   7.050   6.251
12858TIP3    H138519   1.710   6.961   6.216
12858TIP3    H238520   1.614   7.061   6.278
12859TIP3   OH238521   8.168   1.120   6.327
12859TIP3    H138522   8.180   1.044   6.384
12859TIP3    H238523   8.174   1.085   6.239
12860TIP3   OH238524   3.287   5.216   6.683
12860TIP3    H138525   3.223   5.145   6.688
12860TIP3    H238526   3.238   5.294   6.711
12861TIP3   OH238527   7.835   6.087   0.051
12861TIP3    H138528   7.841   6.120   0.141
12861TIP3    H238529   7.741   6.090   0.032
12862TIP3   OH238530   0.048   7.354   2.177
12862TIP3    H138531  -0.040   7.316   2.178
12862TIP3    H238532   0.106   7.280   2.190
12863TIP3   OH238533   7.996   3.688   3.791
12863TIP3    H138534   7.916   3.686   3.739
12863TIP3    H238535   7.976   3.744   3.865
12864TIP3   OH238536   6.446   6.436   3.880
12864TIP3    H138537   6.425   6.405   3.968
12864TIP3    H238538   6.530   6.481   3.889
12865TIP3   OH238539   6.088   0.663   3.476
12865TIP3    H138540   6.031   0.587   3.483
12865TIP3    H238541   6.084   0.704   3.562
12866TIP3   OH238542   4.976   3.567   3.133
12866TIP3    H138543   4.999   3.484   3.175
12866TIP3    H238544   5.023   3.566   3.050
12867TIP3   OH238545   5.108   2.831   3.293
12867TIP3    H138546   5.104   2.742   3.327
12867TIP3    H238547   5.118   2.821   3.198
12868TIP3   OH238548   0.245   3.802   3.757
12868TIP3    H138549   0.312   3.741   3.787
12868TIP3    H238550   0.165   3.773   3.801
12869TIP3   OH238551   8.029   7.749   4.547
12869TIP3    H138552   8.125   7.743   4.545
12869TIP3    H238553   8.005   7.716   4.634
12870TIP3   OH238554   1.123   2.830   6.029
12870TIP3    H138555   1.114   2.751   6.082
12870TIP3    H238556   1.092   2.901   6.085
12871TIP3   OH238557   0.145   1.296   2.147
12871TIP3    H138558   0.073   1.281   2.209
12871TIP3    H238559   0.109   1.358   2.084
12872TIP3   OH238560   6.834   4.263   5.702
12872TIP3    H138561   6.755   4.291   5.749
12872TIP3    H238562   6.883   4.344   5.688
12873TIP3   OH238563   8.248   4.143   4.311
12873TIP3    H138564   8.265   4.129   4.404
12873TIP3    H238565   8.336   4.145   4.272
12874TIP3   OH238566   5.111   6.183   0.183
12874TIP3    H138567   5.056   6.108   0.158
12874TIP3    H238568   5.157   6.153   0.262
12875TIP3   OH238569   3.734   4.392   1.574
12875TIP3    H138570   3.822   4.410   1.607
12875TIP3    H238571   3.676   4.445   1.629
12876TIP3   OH238572   5.687   7.729   5.100
12876TIP3    H138573   5.666   7.733   5.006
12876TIP3    H238574   5.724   7.643   5.113
12877TIP3   OH238575   3.657   1.927   1.125
12877TIP3    H138576   3.669   1.989   1.197
12877TIP3    H238577   3.568   1.945   1.093
12878TIP3   OH238578   0.413   7.378   1.570
12878TIP3    H138579   0.487   7.419   1.615
12878TIP3    H238580   0.412   7.418   1.483
12879TIP3   OH238581   2.131   5.874   1.167
12879TIP3    H138582   2.072   5.807   1.135
12879TIP3    H238583   2.216   5.852   1.129
12880TIP3   OH238584   5.030   5.831   5.573
12880TIP3    H138585   5.043   5.905   5.513
12880TIP3    H238586   5.084   5.852   5.649
12881TIP3   OH238587   2.301   4.786   3.114
12881TIP3    H138588   2.217   4.827   3.135
12881TIP3    H238589   2.350   4.853   3.068
12882TIP3   OH238590   0.234   3.893   1.936
12882TIP3    H138591   0.209   3.957   1.869
12882TIP3    H238592   0.201   3.809   1.901
12883TIP3   OH238593   1.737   3.597   0.871
12883TIP3    H138594   1.801   3.609   0.941
12883TIP3    H238595   1.682   3.675   0.874
12884TIP3   OH238596   5.290   7.347   1.099
12884TIP3    H138597   5.369   7.330   1.150
12884TIP3    H238598   5.240   7.265   1.103
12885TIP3   OH238599   6.697   5.857   4.504
12885TIP3    H138600   6.703   5.876   4.597
12885TIP3    H238601   6.749   5.777   4.492
12886TIP3   OH238602   4.056   7.426   2.628
12886TIP3    H138603   4.020   7.515   2.624
12886TIP3    H238604   4.082   7.406   2.538
12887TIP3   OH238605   4.930   4.039   1.454
12887TIP3    H138606   4.922   3.988   1.374
12887TIP3    H238607   5.017   4.017   1.488
12888TIP3   OH238608   1.506   6.880   5.291
12888TIP3    H138609   1.423   6.833   5.292
12888TIP3    H238610   1.482   6.972   5.277
12889TIP3   OH238611   3.855   4.658   3.137
12889TIP3    H138612   3.860   4.718   3.063
12889TIP3    H238613   3.929   4.683   3.193
12890TIP3   OH238614   4.866   7.571   4.340
12890TIP3    H138615   4.907   7.656   4.351
12890TIP3    H238616   4.877   7.551   4.247
12891TIP3   OH238617   5.134   7.526   0.966
12891TIP3    H138618   5.053   7.516   1.016
12891TIP3    H238619   5.201   7.486   1.021
12892TIP3   OH238620   3.256   5.776   6.643
12892TIP3    H138621   3.213   5.851   6.684
12892TIP3    H238622   3.332   5.759   6.700
12893TIP3   OH238623   4.075   3.971   6.713
12893TIP3    H138624   4.053   3.902   6.776
12893TIP3    H238625   4.171   3.969   6.708
12894TIP3   OH238626   6.069   4.886   1.774
12894TIP3    H138627   6.140   4.822   1.783
12894TIP3    H238628   6.115   4.970   1.763
12895TIP3   OH238629   2.192   4.641   5.579
12895TIP3    H138630   2.286   4.644   5.599
12895TIP3    H238631   2.185   4.684   5.493
12896TIP3   OH238632   0.707   2.520   4.410
12896TIP3    H138633   0.781   2.568   4.373
12896TIP3    H238634   0.667   2.477   4.335
12897TIP3   OH238635   7.519   0.163   4.310
12897TIP3    H138636   7.565   0.238   4.346
12897TIP3    H238637   7.434   0.162   4.354
12898TIP3   OH238638   4.002   6.096   1.121
12898TIP3    H138639   4.002   6.168   1.058
12898TIP3    H238640   3.915   6.098   1.161
12899TIP3   OH238641   5.188   1.492   0.167
12899TIP3    H138642   5.207   1.583   0.144
12899TIP3    H238643   5.245   1.473   0.242
12900TIP3   OH238644   3.749   4.041   5.277
12900TIP3    H138645   3.785   3.961   5.316
12900TIP3    H238646   3.669   4.057   5.327
12901TIP3   OH238647   7.941   6.885   2.252
12901TIP3    H138648   7.958   6.793   2.275
12901TIP3    H238649   7.878   6.914   2.318
12902TIP3   OH238650   7.372   1.863   4.180
12902TIP3    H138651   7.288   1.825   4.207
12902TIP3    H238652   7.437   1.817   4.234
12903TIP3   OH238653   4.752   5.905   3.886
12903TIP3    H138654   4.721   5.965   3.955
12903TIP3    H238655   4.792   5.832   3.934
12904TIP3   OH238656   7.799   1.310   6.088
12904TIP3    H138657   7.894   1.314   6.087
12904TIP3    H238658   7.773   1.340   6.001
12905TIP3   OH238659   3.293   6.598   3.035
12905TIP3    H138660   3.277   6.530   2.969
12905TIP3    H238661   3.330   6.671   2.985
12906TIP3   OH238662   7.952   4.624   3.868
12906TIP3    H138663   7.980   4.573   3.792
12906TIP3    H238664   8.023   4.686   3.883
12907TIP3   OH238665   4.763   6.816   3.377
12907TIP3    H138666   4.811   6.756   3.433
12907TIP3    H238667   4.789   6.792   3.288
12908TIP3   OH238668   5.713   3.393   5.703
12908TIP3    H138669   5.647   3.452   5.739
12908TIP3    H238670   5.796   3.438   5.718
12909TIP3   OH238671   3.188   3.207   2.419
12909TIP3    H138672   3.180   3.140   2.487
12909TIP3    H238673   3.275   3.244   2.433
12910TIP3   OH238674   7.914   7.783   4.124
12910TIP3    H138675   7.966   7.709   4.156
12910TIP3    H238676   7.979   7.849   4.100
12911TIP3   OH238677   6.476   5.012   0.282
12911TIP3    H138678   6.490   5.059   0.200
12911TIP3    H238679   6.395   4.962   0.267
12912TIP3   OH238680   3.055   0.678   6.245
12912TIP3    H138681   3.060   0.677   6.340
12912TIP3    H238682   3.102   0.599   6.218
12913TIP3   OH238683   7.470   1.969   0.342
12913TIP3    H138684   7.503   2.005   0.425
12913TIP3    H238685   7.405   1.904   0.368
12914TIP3   OH238686   1.316   1.291   4.170
12914TIP3    H138687   1.370   1.288   4.249
12914TIP3    H238688   1.245   1.352   4.192
12915TIP3   OH238689   7.815   1.130   0.274
12915TIP3    H138690   7.724   1.149   0.253
12915TIP3    H238691   7.813   1.093   0.362
12916TIP3   OH238692   7.988   1.822   2.635
12916TIP3    H138693   7.941   1.767   2.699
12916TIP3    H238694   8.057   1.765   2.601
12917TIP3   OH238695   7.712   7.798   3.662
12917TIP3    H138696   7.688   7.719   3.711
12917TIP3    H238697   7.775   7.843   3.718
12918TIP3   OH238698   3.212   4.014   6.381
12918TIP3    H138699   3.131   4.038   6.424
12918TIP3    H238700   3.263   4.095   6.377
12919TIP3   OH238701   6.171   6.050   2.542
12919TIP3    H138702   6.235   6.105   2.587
12919TIP3    H238703   6.186   6.066   2.449
12920TIP3   OH238704   7.811   5.450   4.751
12920TIP3    H138705   7.721   5.479   4.768
12920TIP3    H238706   7.844   5.512   4.686
12921TIP3   OH238707   7.781   3.142   5.917
12921TIP3    H138708   7.763   3.166   5.826
12921TIP3    H238709   7.864   3.096   5.914
12922TIP3   OH238710   8.009   6.101   5.527
12922TIP3    H138711   7.991   6.194   5.534
12922TIP3    H238712   7.939   6.066   5.472
12923TIP3   OH238713   6.275   5.558   3.366
12923TIP3    H138714   6.215   5.595   3.431
12923TIP3    H238715   6.268   5.464   3.378
12924TIP3   OH238716   5.703   3.603   1.784
12924TIP3    H138717   5.776   3.557   1.743
12924TIP3    H238718   5.687   3.678   1.727
12925TIP3   OH238719   0.259   7.645   1.332
12925TIP3    H138720   0.203   7.579   1.293
12925TIP3    H238721   0.208   7.726   1.328
12926TIP3   OH238722   1.084   6.964   5.672
12926TIP3    H138723   1.146   6.917   5.729
12926TIP3    H238724   1.039   6.894   5.624
12927TIP3   OH238725   2.827   4.808   6.057
12927TIP3    H138726   2.794   4.849   6.137
12927TIP3    H238727   2.914   4.847   6.045
12928TIP3   OH238728   5.341   7.204   6.556
12928TIP3    H138729   5.398   7.221   6.481
12928TIP3    H238730   5.269   7.151   6.521
12929TIP3   OH238731   5.436   0.942   5.898
12929TIP3    H138732   5.488   0.999   5.841
12929TIP3    H238733   5.353   0.989   5.910
12930TIP3   OH238734   5.235   5.057   5.418
12930TIP3    H138735   5.249   4.964   5.436
12930TIP3    H238736   5.317   5.099   5.443
12931TIP3   OH238737   0.777   5.845   6.336
12931TIP3    H138738   0.751   5.791   6.262
12931TIP3    H238739   0.869   5.868   6.319
12932TIP3   OH238740   5.418   2.109   2.381
12932TIP3    H138741   5.439   2.031   2.329
12932TIP3    H238742   5.411   2.180   2.317
12933TIP3   OH238743   0.154   3.361   3.159
12933TIP3    H138744   0.071   3.322   3.185
12933TIP3    H238745   0.215   3.287   3.154
12934TIP3   OH238746   3.461   3.434   6.124
12934TIP3    H138747   3.526   3.504   6.117
12934TIP3    H238748   3.512   3.353   6.120
12935TIP3   OH238749   4.734   0.269   2.767
12935TIP3    H138750   4.679   0.216   2.711
12935TIP3    H238751   4.778   0.329   2.707
12936TIP3   OH238752   3.586   0.667   2.203
12936TIP3    H138753   3.665   0.619   2.227
12936TIP3    H238754   3.597   0.753   2.242
12937TIP3   OH238755   7.699   0.959   1.884
12937TIP3    H138756   7.742   1.041   1.859
12937TIP3    H238757   7.635   0.944   1.814
12938TIP3   OH238758   1.725   0.593   3.907
12938TIP3    H138759   1.803   0.626   3.951
12938TIP3    H238760   1.732   0.497   3.914
12939TIP3   OH238761   7.864   5.231   4.577
12939TIP3    H138762   7.818   5.287   4.515
12939TIP3    H238763   7.884   5.288   4.651
12940TIP3   OH238764   5.433   1.111   2.015
12940TIP3    H138765   5.523   1.102   2.048
12940TIP3    H238766   5.444   1.136   1.923
12941TIP3   OH238767   4.743   4.322   4.883
12941TIP3    H138768   4.662   4.373   4.882
12941TIP3    H238769   4.811   4.384   4.855
12942TIP3   OH238770   0.133   0.481   5.651
12942TIP3    H138771   0.092   0.495   5.737
12942TIP3    H238772   0.063   0.446   5.597
12943TIP3   OH238773   7.932   0.836   1.265
12943TIP3    H138774   7.924   0.931   1.255
12943TIP3    H238775   8.021   0.816   1.238
12944TIP3   OH238776   4.708   2.396   4.624
12944TIP3    H138777   4.692   2.462   4.557
12944TIP3    H238778   4.757   2.328   4.579
12945TIP3   OH238779   2.912   5.801   6.128
12945TIP3    H138780   2.821   5.777   6.107
12945TIP3    H238781   2.964   5.764   6.057
12946TIP3   OH238782   5.683   1.810   5.902
12946TIP3    H138783   5.639   1.771   5.978
12946TIP3    H238784   5.737   1.739   5.867
12947TIP3   OH238785   4.719   7.432   4.560
12947TIP3    H138786   4.750   7.499   4.498
12947TIP3    H238787   4.779   7.358   4.547
12948TIP3   OH238788   7.289   2.157   5.198
12948TIP3    H138789   7.372   2.132   5.158
12948TIP3    H238790   7.223   2.130   5.135
12949TIP3   OH238791   5.633   2.380   4.065
12949TIP3    H138792   5.589   2.465   4.058
12949TIP3    H238793   5.636   2.362   4.159
12950TIP3   OH238794   6.329   7.759   2.291
12950TIP3    H138795   6.402   7.780   2.350
12950TIP3    H238796   6.356   7.677   2.248
12951TIP3   OH238797   3.384   6.793   2.332
12951TIP3    H138798   3.291   6.787   2.352
12951TIP3    H238799   3.426   6.730   2.391
12952TIP3   OH238800   6.888   7.796   1.424
12952TIP3    H138801   6.840   7.846   1.358
12952TIP3    H238802   6.930   7.726   1.375
12953TIP3   OH238803   2.908   4.450   5.341
12953TIP3    H138804   2.958   4.420   5.417
12953TIP3    H238805   2.835   4.389   5.335
12954TIP3   OH238806   4.594   7.730   3.601
12954TIP3    H138807   4.551   7.805   3.642
12954TIP3    H238808   4.632   7.681   3.675
12955TIP3   OH238809   3.955   2.121   1.237
12955TIP3    H138810   4.033   2.161   1.277
12955TIP3    H238811   3.890   2.120   1.307
12956TIP3   OH238812   3.499   0.219   5.967
12956TIP3    H138813   3.511   0.310   5.992
12956TIP3    H238814   3.584   0.178   5.983
12957TIP3   OH238815   8.309   4.767   0.761
12957TIP3    H138816   8.288   4.840   0.702
12957TIP3    H238817   8.329   4.809   0.844
12958TIP3   OH238818   0.217   7.630   2.182
12958TIP3    H138819   0.212   7.535   2.172
12958TIP3    H238820   0.240   7.644   2.273
12959TIP3   OH238821   6.645   7.575   2.899
12959TIP3    H138822   6.588   7.640   2.940
12959TIP3    H238823   6.704   7.626   2.844
12960TIP3   OH238824   2.788   5.013   2.286
12960TIP3    H138825   2.758   5.015   2.377
12960TIP3    H238826   2.707   5.009   2.234
12961TIP3   OH238827   3.562   6.481   1.147
12961TIP3    H138828   3.558   6.568   1.185
12961TIP3    H238829   3.655   6.463   1.135
12962TIP3   OH238830   6.676   6.324   4.464
12962TIP3    H138831   6.671   6.393   4.530
12962TIP3    H238832   6.747   6.267   4.493
12963TIP3   OH238833   5.900   6.662   2.067
12963TIP3    H138834   5.902   6.571   2.098
12963TIP3    H238835   5.847   6.659   1.987
12964TIP3   OH238836   1.296   2.986   3.027
12964TIP3    H138837   1.204   2.961   3.022
12964TIP3    H238838   1.297   3.079   3.002
12965TIP3   OH238839   4.785   0.152   0.078
12965TIP3    H138840   4.877   0.163   0.056
12965TIP3    H238841   4.745   0.119  -0.002
12966TIP3   OH238842   2.972   0.850   2.189
12966TIP3    H138843   3.051   0.862   2.243
12966TIP3    H238844   2.908   0.911   2.226
12967TIP3   OH238845   0.863   5.110   4.654
12967TIP3    H138846   0.830   5.032   4.698
12967TIP3    H238847   0.958   5.101   4.654
12968TIP3   OH238848   3.642   5.283   6.243
12968TIP3    H138849   3.577   5.298   6.313
12968TIP3    H238850   3.682   5.199   6.266
12969TIP3   OH238851   1.324   0.196   2.875
12969TIP3    H138852   1.288   0.155   2.954
12969TIP3    H238853   1.416   0.212   2.897
12970TIP3   OH238854   6.630   0.764   2.657
12970TIP3    H138855   6.558   0.806   2.704
12970TIP3    H238856   6.686   0.837   2.629
12971TIP3   OH238857   0.050   2.904   6.497
12971TIP3    H138858   0.120   2.965   6.521
12971TIP3    H238859   0.096   2.831   6.456
12972TIP3   OH238860   0.210   1.052   0.627
12972TIP3    H138861   0.142   1.049   0.559
12972TIP3    H238862   0.221   1.145   0.646
12973TIP3   OH238863   3.918   6.630   6.308
12973TIP3    H138864   4.013   6.621   6.312
12973TIP3    H238865   3.902   6.724   6.314
12974TIP3   OH238866   6.225   2.253   5.854
12974TIP3    H138867   6.312   2.228   5.887
12974TIP3    H238868   6.164   2.200   5.905
12975TIP3   OH238869   5.344   4.127   1.488
12975TIP3    H138870   5.437   4.124   1.465
12975TIP3    H238871   5.319   4.218   1.471
12976TIP3   OH238872   2.773   7.105   5.310
12976TIP3    H138873   2.726   7.120   5.227
12976TIP3    H238874   2.711   7.057   5.364
12977TIP3   OH238875   4.806   0.368   3.789
12977TIP3    H138876   4.819   0.296   3.850
12977TIP3    H238877   4.798   0.446   3.844
12978TIP3   OH238878   1.490   2.608   0.394
12978TIP3    H138879   1.564   2.662   0.421
12978TIP3    H238880   1.510   2.520   0.426
12979TIP3   OH238881   0.951   6.236   5.043
12979TIP3    H138882   1.019   6.300   5.022
12979TIP3    H238883   0.998   6.163   5.084
12980TIP3   OH238884   4.369   0.710   5.424
12980TIP3    H138885   4.387   0.663   5.343
12980TIP3    H238886   4.379   0.644   5.493
12981TIP3   OH238887   1.637   4.300   6.399
12981TIP3    H138888   1.571   4.289   6.331
12981TIP3    H238889   1.641   4.395   6.414
12982TIP3   OH238890   7.617   2.220   2.487
12982TIP3    H138891   7.697   2.233   2.435
12982TIP3    H238892   7.642   2.160   2.556
12983TIP3   OH238893   5.237   0.669   3.343
12983TIP3    H138894   5.200   0.739   3.289
12983TIP3    H238895   5.189   0.675   3.426
12984TIP3   OH238896   4.099   5.494   2.034
12984TIP3    H138897   4.005   5.478   2.037
12984TIP3    H238898   4.117   5.544   2.114
12985TIP3   OH238899   5.725   3.266   0.481
12985TIP3    H138900   5.674   3.271   0.401
12985TIP3    H238901   5.712   3.351   0.524
12986TIP3   OH238902   4.934   1.070   4.297
12986TIP3    H138903   4.882   1.151   4.293
12986TIP3    H238904   4.879   1.009   4.347
12987TIP3   OH238905   1.542   3.085   5.483
12987TIP3    H138906   1.561   3.021   5.551
12987TIP3    H238907   1.473   3.045   5.431
12988TIP3   OH238908   8.074   2.231   3.144
12988TIP3    H138909   8.081   2.140   3.173
12988TIP3    H238910   8.025   2.275   3.213
12989TIP3   OH238911   8.235   3.658   1.577
12989TIP3    H138912   8.232   3.746   1.540
12989TIP3    H238913   8.145   3.627   1.575
12990TIP3   OH238914   2.741   4.640   5.866
12990TIP3    H138915   2.806   4.655   5.798
12990TIP3    H238916   2.766   4.701   5.936
12991TIP3   OH238917   5.909   2.051   0.338
12991TIP3    H138918   5.920   2.088   0.425
12991TIP3    H238919   5.840   1.986   0.348
12992TIP3   OH238920   7.045   1.191   1.986
12992TIP3    H138921   6.952   1.207   1.999
12992TIP3    H238922   7.051   1.148   1.900
12993TIP3   OH238923   2.458   0.201   6.109
12993TIP3    H138924   2.375   0.218   6.065
12993TIP3    H238925   2.465   0.105   6.110
12994TIP3   OH238926   4.442   7.641   4.034
12994TIP3    H138927   4.390   7.598   3.966
12994TIP3    H238928   4.412   7.731   4.034
12995TIP3   OH238929   2.345   3.098   3.143
12995TIP3    H138930   2.305   3.151   3.212
12995TIP3    H238931   2.410   3.156   3.103
12996TIP3   OH238932   0.748   2.021   3.880
12996TIP3    H138933   0.718   2.076   3.952
12996TIP3    H238934   0.669   1.985   3.841
12997TIP3   OH238935   6.648   6.233   3.973
12997TIP3    H138936   6.585   6.280   3.918
12997TIP3    H238937   6.676   6.298   4.038
12998TIP3   OH238938   2.591   5.899   5.036
12998TIP3    H138939   2.533   5.878   4.962
12998TIP3    H238940   2.598   5.816   5.085
12999TIP3   OH238941   5.867   2.790   3.150
12999TIP3    H138942   5.906   2.754   3.071
12999TIP3    H238943   5.823   2.715   3.191
13000TIP3   OH238944   7.476   3.840   3.608
13000TIP3    H138945   7.401   3.842   3.667
13000TIP3    H238946   7.477   3.927   3.568
13001TIP3   OH238947   7.485   4.196   0.706
13001TIP3    H138948   7.565   4.187   0.654
13001TIP3    H238949   7.512   4.250   0.781
13002TIP3   OH238950   2.705   6.234   5.896
13002TIP3    H138951   2.647   6.280   5.956
13002TIP3    H238952   2.791   6.237   5.938
13003TIP3   OH238953   6.653   3.671   5.137
13003TIP3    H138954   6.668   3.590   5.087
13003TIP3    H238955   6.656   3.644   5.228
13004TIP3   OH238956   6.065   5.822   5.846
13004TIP3    H138957   6.134   5.878   5.882
13004TIP3    H238958   6.036   5.869   5.768
13005TIP3   OH238959   1.144   3.921   6.584
13005TIP3    H138960   1.188   3.838   6.568
13005TIP3    H238961   1.085   3.903   6.657
13006TIP3   OH238962   4.016   6.262   0.038
13006TIP3    H138963   4.000   6.328  -0.029
13006TIP3    H238964   3.935   6.210   0.040
13007TIP3   OH238965   2.593   0.990   0.206
13007TIP3    H138966   2.616   1.054   0.274
13007TIP3    H238967   2.676   0.971   0.163
13008TIP3   OH238968   1.136   0.795   3.669
13008TIP3    H138969   1.193   0.805   3.746
13008TIP3    H238970   1.093   0.880   3.660
13009TIP3   OH238971   1.466   0.520   2.206
13009TIP3    H138972   1.517   0.490   2.131
13009TIP3    H238973   1.531   0.556   2.267
13010TIP3   OH238974   8.110   4.107   1.252
13010TIP3    H138975   8.063   4.025   1.261
13010TIP3    H238976   8.054   4.172   1.294
13011TIP3   OH238977   1.286   0.090   3.118
13011TIP3    H138978   1.325   0.009   3.086
13011TIP3    H238979   1.266   0.073   3.210
13012TIP3   OH238980   5.168   7.128   1.912
13012TIP3    H138981   5.085   7.126   1.864
13012TIP3    H238982   5.143   7.141   2.003
13013TIP3   OH238983   5.816   5.018   5.947
13013TIP3    H138984   5.779   5.106   5.945
13013TIP3    H238985   5.747   4.961   5.912
13014TIP3   OH238986   7.850   4.144   1.699
13014TIP3    H138987   7.939   4.168   1.672
13014TIP3    H238988   7.831   4.202   1.773
13015TIP3   OH238989   6.907   3.696   4.169
13015TIP3    H138990   6.986   3.748   4.186
13015TIP3    H238991   6.876   3.727   4.085
13016TIP3   OH238992   3.566   5.637   0.954
13016TIP3    H138993   3.641   5.648   0.896
13016TIP3    H238994   3.527   5.724   0.960
13017TIP3   OH238995   6.260   6.400   5.306
13017TIP3    H138996   6.208   6.353   5.371
13017TIP3    H238997   6.337   6.344   5.292
13018TIP3   OH238998   1.494   7.401   2.443
13018TIP3    H138999   1.584   7.382   2.416
13018TIP3    H239000   1.457   7.450   2.370
13019TIP3   OH239001   4.163  -0.041   2.343
13019TIP3    H139002   4.114   0.021   2.289
13019TIP3    H239003   4.190   0.010   2.420
13020TIP3   OH239004   2.322   7.525   1.461
13020TIP3    H139005   2.415   7.514   1.443
13020TIP3    H239006   2.277   7.480   1.390
13021TIP3   OH239007   2.104   5.639   2.488
13021TIP3    H139008   2.161   5.631   2.565
13021TIP3    H239009   2.155   5.601   2.417
13022TIP3   OH239010   0.147   1.336   0.005
13022TIP3    H139011   0.212   1.406  -0.003
13022TIP3    H239012   0.193   1.258  -0.027
13023TIP3   OH239013   3.075   3.270   4.999
13023TIP3    H139014   3.033   3.321   4.929
13023TIP3    H239015   3.047   3.313   5.080
13024TIP3   OH239016   4.533   4.494   4.791
13024TIP3    H139017   4.488   4.573   4.823
13024TIP3    H239018   4.484   4.421   4.829
13025TIP3   OH239019   4.880   2.447   1.023
13025TIP3    H139020   4.924   2.530   1.004
13025TIP3    H239021   4.858   2.452   1.116
13026TIP3   OH239022   1.317   5.273   3.844
13026TIP3    H139023   1.304   5.211   3.773
13026TIP3    H239024   1.310   5.359   3.803
13027TIP3   OH239025   6.232   3.875   1.572
13027TIP3    H139026   6.290   3.799   1.562
13027TIP3    H239027   6.292   3.950   1.574
13028TIP3   OH239028   2.036   4.627   1.430
13028TIP3    H139029   2.046   4.562   1.361
13028TIP3    H239030   1.966   4.592   1.486
13029TIP3   OH239031   5.629   4.860   3.122
13029TIP3    H139032   5.573   4.900   3.189
13029TIP3    H239033   5.705   4.918   3.116
13030TIP3   OH239034   7.277   2.913   2.839
13030TIP3    H139035   7.220   2.987   2.859
13030TIP3    H239036   7.346   2.949   2.783
13031TIP3   OH239037   4.725   6.446   3.103
13031TIP3    H139038   4.665   6.508   3.144
13031TIP3    H239039   4.703   6.450   3.009
13032TIP3   OH239040   5.477   4.414   0.616
13032TIP3    H139041   5.471   4.326   0.579
13032TIP3    H239042   5.509   4.401   0.705
13033TIP3   OH239043   2.607   1.832   4.667
13033TIP3    H139044   2.663   1.902   4.633
13033TIP3    H239045   2.523   1.875   4.685
13034TIP3   OH239046   7.105   1.375   5.652
13034TIP3    H139047   7.073   1.410   5.569
13034TIP3    H239048   7.136   1.287   5.631
13035TIP3   OH239049   2.716   6.552   5.781
13035TIP3    H139050   2.671   6.508   5.709
13035TIP3    H239051   2.705   6.645   5.763
13036TIP3   OH239052   3.340   5.522   4.342
13036TIP3    H139053   3.332   5.427   4.355
13036TIP3    H239054   3.314   5.559   4.427
13037TIP3   OH239055   3.622   0.701   5.189
13037TIP3    H139056   3.641   0.610   5.211
13037TIP3    H239057   3.648   0.750   5.267
13038TIP3   OH239058   2.597   7.573   0.309
13038TIP3    H139059   2.591   7.649   0.252
13038TIP3    H239060   2.651   7.602   0.383
13039TIP3   OH239061   2.832   7.602   3.448
13039TIP3    H139062   2.791   7.520   3.421
13039TIP3    H239063   2.864   7.584   3.537
13040TIP3   OH239064   4.375   2.669   2.202
13040TIP3    H139065   4.417   2.586   2.222
13040TIP3    H239066   4.297   2.670   2.257
13041TIP3   OH239067   4.866   3.376   3.669
13041TIP3    H139068   4.912   3.400   3.749
13041TIP3    H239069   4.775   3.404   3.683
13042TIP3   OH239070   4.688   1.313   5.437
13042TIP3    H139071   4.650   1.317   5.349
13042TIP3    H239072   4.630   1.367   5.491
13043TIP3   OH239073   7.354   3.470   6.574
13043TIP3    H139074   7.305   3.529   6.631
13043TIP3    H239075   7.313   3.384   6.588
13044TIP3   OH239076   5.368   3.057   1.131
13044TIP3    H139077   5.330   3.067   1.044
13044TIP3    H239078   5.426   3.133   1.141
13045TIP3   OH239079   7.276   1.693   1.384
13045TIP3    H139080   7.371   1.700   1.380
13045TIP3    H239081   7.250   1.754   1.453
13046TIP3   OH239082   0.629   4.260   3.173
13046TIP3    H139083   0.570   4.194   3.211
13046TIP3    H239084   0.573   4.313   3.116
13047TIP3   OH239085   1.349   3.092   1.058
13047TIP3    H139086   1.388   3.097   1.145
13047TIP3    H239087   1.367   3.177   1.017
13048TIP3   OH239088   7.769   5.647   6.496
13048TIP3    H139089   7.740   5.714   6.557
13048TIP3    H239090   7.846   5.684   6.453
13049TIP3   OH239091   1.579   3.457   2.217
13049TIP3    H139092   1.646   3.518   2.248
13049TIP3    H239093   1.628   3.381   2.186
13050TIP3   OH239094   5.389   7.761   3.489
13050TIP3    H139095   5.375   7.848   3.526
13050TIP3    H239096   5.484   7.749   3.490
13051TIP3   OH239097   6.707   3.268   2.966
13051TIP3    H139098   6.777   3.279   2.901
13051TIP3    H239099   6.627   3.290   2.919
13052TIP3   OH239100   1.948   1.615   4.005
13052TIP3    H139101   1.903   1.584   4.083
13052TIP3    H239102   2.014   1.677   4.037
13053TIP3   OH239103   4.547   3.826   3.249
13053TIP3    H139104   4.470   3.872   3.281
13053TIP3    H239105   4.515   3.770   3.178
13054TIP3   OH239106   5.860   2.323   1.540
13054TIP3    H139107   5.918   2.375   1.595
13054TIP3    H239108   5.887   2.343   1.450
13055TIP3   OH239109   7.605   1.025   2.129
13055TIP3    H139110   7.630   1.015   2.038
13055TIP3    H239111   7.667   1.088   2.165
13056TIP3   OH239112   7.006   3.334   0.535
13056TIP3    H139113   7.070   3.402   0.515
13056TIP3    H239114   7.043   3.288   0.611
13057TIP3   OH239115   0.589   0.054   3.066
13057TIP3    H139116   0.630   0.019   3.145
13057TIP3    H239117   0.624   0.143   3.058
13058TIP3   OH239118   2.598   4.499   2.657
13058TIP3    H139119   2.628   4.587   2.637
13058TIP3    H239120   2.671   4.442   2.633
13059TIP3   OH239121   1.017   3.428   0.415
13059TIP3    H139122   0.923   3.442   0.428
13059TIP3    H239123   1.029   3.333   0.428
13060TIP3   OH239124   6.676   2.346   6.687
13060TIP3    H139125   6.771   2.340   6.694
13060TIP3    H239126   6.645   2.360   6.776
13061TIP3   OH239127   2.982   1.045   3.596
13061TIP3    H139128   3.047   1.074   3.660
13061TIP3    H239129   3.028   1.047   3.512
13062TIP3   OH239130   7.398   3.981   2.372
13062TIP3    H139131   7.450   3.935   2.439
13062TIP3    H239132   7.379   3.913   2.307
13063TIP3   OH239133   6.167   4.831   2.942
13063TIP3    H139134   6.108   4.766   2.980
13063TIP3    H239135   6.213   4.869   3.017
13064TIP3   OH239136   0.535   1.845   5.352
13064TIP3    H139137   0.508   1.807   5.436
13064TIP3    H239138   0.490   1.929   5.348
13065TIP3   OH239139   7.309   4.515   1.085
13065TIP3    H139140   7.222   4.523   1.124
13065TIP3    H239141   7.325   4.421   1.082
13066TIP3   OH239142   8.189   1.404   0.817
13066TIP3    H139143   8.215   1.465   0.748
13066TIP3    H239144   8.216   1.447   0.898
13067TIP3   OH239145   6.055   5.526   4.888
13067TIP3    H139146   5.985   5.463   4.870
13067TIP3    H239147   6.013   5.612   4.879
13068TIP3   OH239148   2.059   7.528   0.064
13068TIP3    H139149   1.990   7.583   0.101
13068TIP3    H239150   2.104   7.584   0.001
13069TIP3   OH239151   1.761   0.114   0.343
13069TIP3    H139152   1.769   0.082   0.253
13069TIP3    H239153   1.669   0.139   0.351
13070TIP3   OH239154   0.583   4.926   3.848
13070TIP3    H139155   0.670   4.961   3.865
13070TIP3    H239156   0.558   4.882   3.929
13071TIP3   OH239157   6.981   1.571   4.691
13071TIP3    H139158   6.900   1.606   4.728
13071TIP3    H239159   7.006   1.636   4.624
13072TIP3   OH239160   2.615   3.844   2.294
13072TIP3    H139161   2.622   3.930   2.334
13072TIP3    H239162   2.705   3.818   2.275
13073TIP3   OH239163   8.202   1.277   5.819
13073TIP3    H139164   8.240   1.338   5.882
13073TIP3    H239165   8.148   1.331   5.762
13074TIP3   OH239166   4.395   6.038   0.876
13074TIP3    H139167   4.392   6.118   0.930
13074TIP3    H239168   4.304   6.026   0.847
13075TIP3   OH239169   3.505   0.217   6.293
13075TIP3    H139170   3.423   0.169   6.301
13075TIP3    H239171   3.486   0.303   6.330
13076TIP3   OH239172   6.667   6.142   2.545
13076TIP3    H139173   6.642   6.163   2.635
13076TIP3    H239174   6.731   6.208   2.521
13077TIP3   OH239175   2.045   3.999   2.619
13077TIP3    H139176   2.023   3.953   2.538
13077TIP3    H239177   2.021   3.938   2.688
13078TIP3   OH239178   2.776   4.860   6.394
13078TIP3    H139179   2.796   4.767   6.404
13078TIP3    H239180   2.699   4.874   6.450
13079TIP3   OH239181   4.195   7.821   5.832
13079TIP3    H139182   4.127   7.805   5.897
13079TIP3    H239183   4.274   7.781   5.870
13080TIP3   OH239184   6.475   5.369   1.722
13080TIP3    H139185   6.565   5.346   1.742
13080TIP3    H239186   6.433   5.287   1.696
13081TIP3   OH239187   2.008   7.732   0.272
13081TIP3    H139188   2.091   7.685   0.266
13081TIP3    H239189   2.032   7.824   0.266
13082TIP3   OH239190   5.407   5.321   4.262
13082TIP3    H139191   5.359   5.246   4.227
13082TIP3    H239192   5.498   5.304   4.240
13083TIP3   OH239193   5.479   3.150   2.642
13083TIP3    H139194   5.391   3.114   2.626
13083TIP3    H239195   5.527   3.079   2.685
13084TIP3   OH239196   3.317   0.182   0.473
13084TIP3    H139197   3.243   0.122   0.479
13084TIP3    H239198   3.358   0.161   0.389
13085TIP3   OH239199   7.805   1.892   2.200
13085TIP3    H139200   7.842   1.916   2.115
13085TIP3    H239201   7.811   1.972   2.253
13086TIP3   OH239202   5.869   0.530   3.260
13086TIP3    H139203   5.890   0.473   3.333
13086TIP3    H239204   5.826   0.606   3.300
13087TIP3   OH239205   1.334   6.881   1.617
13087TIP3    H139206   1.296   6.863   1.703
13087TIP3    H239207   1.269   6.934   1.572
13088TIP3   OH239208   3.172   1.444   1.822
13088TIP3    H139209   3.258   1.415   1.851
13088TIP3    H239210   3.116   1.368   1.836
13089TIP3   OH239211   2.613   6.473   3.850
13089TIP3    H139212   2.656   6.532   3.788
13089TIP3    H239213   2.565   6.411   3.795
13090TIP3   OH239214   3.516   6.919   3.339
13090TIP3    H139215   3.524   6.862   3.415
13090TIP3    H239216   3.603   6.921   3.301
13091TIP3   OH239217   5.883   1.672   3.400
13091TIP3    H139218   5.850   1.759   3.422
13091TIP3    H239219   5.816   1.612   3.432
13092TIP3   OH239220   1.690   5.659   2.648
13092TIP3    H139221   1.760   5.723   2.634
13092TIP3    H239222   1.735   5.575   2.656
13093TIP3   OH239223   4.043   4.369   1.374
13093TIP3    H139224   4.096   4.354   1.296
13093TIP3    H239225   4.049   4.463   1.389
13094TIP3   OH239226   3.354   4.587   0.411
13094TIP3    H139227   3.291   4.516   0.395
13094TIP3    H239228   3.436   4.542   0.432
13095TIP3   OH239229   5.259   0.106   3.164
13095TIP3    H139230   5.233   0.138   3.251
13095TIP3    H239231   5.354   0.101   3.169
13096TIP3   OH239232   7.737   2.387   5.448
13096TIP3    H139233   7.676   2.412   5.519
13096TIP3    H239234   7.680   2.352   5.380
13097TIP3   OH239235   3.709   5.872   5.959
13097TIP3    H139236   3.725   5.932   5.886
13097TIP3    H239237   3.762   5.906   6.030
13098TIP3   OH239238   6.824   0.511   4.391
13098TIP3    H139239   6.743   0.504   4.442
13098TIP3    H239240   6.838   0.422   4.356
13099TIP3   OH239241   0.739   0.370   5.303
13099TIP3    H139242   0.677   0.297   5.306
13099TIP3    H239243   0.701   0.435   5.361
13100TIP3   OH239244   5.026   6.734   6.166
13100TIP3    H139245   4.953   6.779   6.125
13100TIP3    H239246   4.990   6.694   6.245
13101TIP3   OH239247   6.093   3.613   2.486
13101TIP3    H139248   6.014   3.655   2.451
13101TIP3    H239249   6.138   3.683   2.533
13102TIP3   OH239250   6.622   6.365   2.049
13102TIP3    H139251   6.648   6.357   1.957
13102TIP3    H239252   6.704   6.382   2.095
13103TIP3   OH239253   5.180   6.981   2.758
13103TIP3    H139254   5.162   6.915   2.825
13103TIP3    H239255   5.101   6.984   2.704
13104TIP3   OH239256   5.592   1.991   1.972
13104TIP3    H139257   5.543   1.912   1.992
13104TIP3    H239258   5.615   2.027   2.057
13105TIP3   OH239259   5.355   5.185   6.534
13105TIP3    H139260   5.367   5.269   6.579
13105TIP3    H239261   5.415   5.126   6.578
13106TIP3   OH239262   4.165   2.800   2.876
13106TIP3    H139263   4.164   2.790   2.971
13106TIP3    H239264   4.253   2.832   2.856
13107TIP3   OH239265   2.373   0.336   4.448
13107TIP3    H139266   2.317   0.350   4.372
13107TIP3    H239267   2.455   0.381   4.427
13108TIP3   OH239268   7.708   5.582   5.575
13108TIP3    H139269   7.706   5.675   5.595
13108TIP3    H239270   7.763   5.544   5.643
13109TIP3   OH239271   8.276   1.019   4.673
13109TIP3    H139272   8.276   1.050   4.583
13109TIP3    H239273   8.360   1.049   4.709
13110TIP3   OH239274   0.228   0.918   2.715
13110TIP3    H139275   0.276   1.000   2.703
13110TIP3    H239276   0.268   0.858   2.652
13111TIP3   OH239277   8.122   2.971   2.259
13111TIP3    H139278   8.067   3.031   2.310
13111TIP3    H239279   8.116   2.888   2.305
13112TIP3   OH239280   8.248   7.010   3.274
13112TIP3    H139281   8.295   6.928   3.267
13112TIP3    H239282   8.156   6.987   3.256
13113TIP3   OH239283   5.698   6.155   1.537
13113TIP3    H139284   5.652   6.206   1.603
13113TIP3    H239285   5.668   6.191   1.453
13114TIP3   OH239286   3.232   0.161   6.300
13114TIP3    H139287   3.191   0.084   6.261
13114TIP3    H239288   3.188   0.235   6.259
13115TIP3   OH239289   3.287   0.658   3.018
13115TIP3    H139290   3.302   0.607   2.938
13115TIP3    H239291   3.221   0.607   3.066
13116TIP3   OH239292   4.445   3.834   4.064
13116TIP3    H139293   4.469   3.915   4.110
13116TIP3    H239294   4.515   3.821   4.000
13117TIP3   OH239295   6.880   6.913   2.962
13117TIP3    H139296   6.969   6.947   2.950
13117TIP3    H239297   6.854   6.882   2.876
13118TIP3   OH239298   5.760   0.203   3.572
13118TIP3    H139299   5.679   0.216   3.619
13118TIP3    H239300   5.733   0.177   3.484
13119TIP3   OH239301   5.128   5.347   5.879
13119TIP3    H139302   5.033   5.348   5.879
13119TIP3    H239303   5.153   5.419   5.936
13120TIP3   OH239304   4.903   1.021   0.337
13120TIP3    H139305   4.931   1.051   0.423
13120TIP3    H239306   4.941   0.934   0.328
13121TIP3   OH239307   7.088   0.368   0.921
13121TIP3    H139308   7.044   0.406   0.997
13121TIP3    H239309   7.017   0.351   0.859
13122TIP3   OH239310   5.898   7.473   1.952
13122TIP3    H139311   5.844   7.414   2.005
13122TIP3    H239312   5.836   7.515   1.892
13123TIP3   OH239313   5.217   5.192   2.328
13123TIP3    H139314   5.277   5.117   2.332
13123TIP3    H239315   5.153   5.175   2.397
13124TIP3   OH239316   2.337   1.557   5.712
13124TIP3    H139317   2.262   1.511   5.750
13124TIP3    H239318   2.311   1.575   5.621
13125TIP3   OH239319   2.997   1.272   4.562
13125TIP3    H139320   3.010   1.244   4.471
13125TIP3    H239321   3.071   1.329   4.580
13126TIP3   OH239322   3.600   4.572   5.202
13126TIP3    H139323   3.505   4.584   5.204
13126TIP3    H239324   3.634   4.656   5.170
13127TIP3   OH239325   5.515   5.799   4.961
13127TIP3    H139326   5.421   5.792   4.971
13127TIP3    H239327   5.551   5.733   5.019
13128TIP3   OH239328   8.288   1.219   1.627
13128TIP3    H139329   8.294   1.124   1.616
13128TIP3    H239330   8.242   1.230   1.710
13129TIP3   OH239331   8.136   1.517   1.997
13129TIP3    H139332   8.057   1.475   2.029
13129TIP3    H239333   8.113   1.549   1.909
13130TIP3   OH239334   8.271   5.904   4.835
13130TIP3    H139335   8.269   5.884   4.929
13130TIP3    H239336   8.350   5.861   4.803
13131TIP3   OH239337   2.556   4.220   0.327
13131TIP3    H139338   2.505   4.192   0.403
13131TIP3    H239339   2.563   4.315   0.336
13132TIP3   OH239340   3.683   2.975   2.540
13132TIP3    H139341   3.640   2.906   2.591
13132TIP3    H239342   3.756   3.002   2.595
13133TIP3   OH239343   6.884   7.319   4.207
13133TIP3    H139344   6.866   7.230   4.235
13133TIP3    H239345   6.972   7.315   4.169
13134TIP3   OH239346   0.573   6.423   1.702
13134TIP3    H139347   0.498   6.386   1.655
13134TIP3    H239348   0.636   6.444   1.633
13135TIP3   OH239349   3.141   3.921   2.956
13135TIP3    H139350   3.074   3.853   2.967
13135TIP3    H239351   3.154   3.926   2.861
13136TIP3   OH239352   3.741   4.434   2.012
13136TIP3    H139353   3.713   4.359   2.063
13136TIP3    H239354   3.704   4.510   2.057
13137TIP3   OH239355   8.097   2.277   2.364
13137TIP3    H139356   8.051   2.198   2.393
13137TIP3    H239357   8.066   2.291   2.275
13138TIP3   OH239358   7.805   1.145   0.607
13138TIP3    H139359   7.722   1.181   0.640
13138TIP3    H239360   7.872   1.194   0.654
13139TIP3   OH239361   8.309   1.311   6.723
13139TIP3    H139362   8.325   1.225   6.761
13139TIP3    H239363   8.227   1.340   6.763
13140TIP3   OH239364   2.482   3.591   3.746
13140TIP3    H139365   2.399   3.602   3.793
13140TIP3    H239366   2.546   3.637   3.801
13141TIP3   OH239367   7.675   6.017   2.477
13141TIP3    H139368   7.645   6.074   2.548
13141TIP3    H239369   7.612   6.031   2.406
13142TIP3   OH239370   3.477   1.428   0.731
13142TIP3    H139371   3.566   1.462   0.739
13142TIP3    H239372   3.481   1.367   0.657
13143TIP3   OH239373   5.776   7.721   0.052
13143TIP3    H139374   5.739   7.674  -0.023
13143TIP3    H239375   5.866   7.742   0.025
13144TIP3   OH239376   1.663   3.646   2.957
13144TIP3    H139377   1.672   3.728   3.005
13144TIP3    H239378   1.578   3.612   2.982
13145TIP3   OH239379   4.190   5.518   0.389
13145TIP3    H139380   4.231   5.531   0.474
13145TIP3    H239381   4.254   5.551   0.326
13146TIP3   OH239382   5.866   5.717   1.071
13146TIP3    H139383   5.913   5.676   0.999
13146TIP3    H239384   5.779   5.678   1.068
13147TIP3   OH239385   2.025   1.491   2.619
13147TIP3    H139386   2.033   1.429   2.691
13147TIP3    H239387   1.937   1.475   2.583
13148TIP3   OH239388   2.688   3.260   2.838
13148TIP3    H139389   2.711   3.197   2.770
13148TIP3    H239390   2.730   3.341   2.811
13149TIP3   OH239391   6.045   5.813   2.287
13149TIP3    H139392   5.959   5.773   2.274
13149TIP3    H239393   6.041   5.895   2.238
13150TIP3   OH239394   7.869   1.600   5.075
13150TIP3    H139395   7.942   1.611   5.015
13150TIP3    H239396   7.827   1.687   5.077
13151TIP3   OH239397   1.003   3.210   3.157
13151TIP3    H139398   0.941   3.259   3.210
13151TIP3    H239399   1.087   3.255   3.170
13152TIP3   OH239400   3.338   4.017   5.855
13152TIP3    H139401   3.405   3.954   5.829
13152TIP3    H239402   3.304   3.984   5.938
13153TIP3   OH239403   4.164   3.572   1.525
13153TIP3    H139404   4.139   3.641   1.464
13153TIP3    H239405   4.179   3.618   1.608
13154TIP3   OH239406   0.508   2.199   1.194
13154TIP3    H139407   0.478   2.120   1.238
13154TIP3    H239408   0.563   2.168   1.122
13155TIP3   OH239409   3.280   0.817   6.070
13155TIP3    H139410   3.260   0.864   5.990
13155TIP3    H239411   3.194   0.796   6.107
13156TIP3   OH239412   4.898   2.684   5.964
13156TIP3    H139413   4.946   2.742   6.024
13156TIP3    H239414   4.879   2.738   5.888
13157TIP3   OH239415   4.088   3.518   1.950
13157TIP3    H139416   4.120   3.445   1.896
13157TIP3    H239417   4.005   3.542   1.910
13158TIP3   OH239418   0.479   0.976   0.319
13158TIP3    H139419   0.521   0.989   0.234
13158TIP3    H239420   0.489   1.060   0.364
13159TIP3   OH239421   1.721   2.371   4.431
13159TIP3    H139422   1.804   2.409   4.461
13159TIP3    H239423   1.717   2.396   4.338
13160TIP3   OH239424   4.326   5.392   5.097
13160TIP3    H139425   4.253   5.357   5.149
13160TIP3    H239426   4.284   5.447   5.031
13161TIP3   OH239427   2.810   2.976   1.484
13161TIP3    H139428   2.875   3.019   1.428
13161TIP3    H239429   2.735   3.036   1.482
13162TIP3   OH239430   6.017   4.289   3.961
13162TIP3    H139431   5.968   4.265   4.039
13162TIP3    H239432   6.083   4.221   3.952
13163TIP3   OH239433   7.347   0.495   5.113
13163TIP3    H139434   7.289   0.453   5.176
13163TIP3    H239435   7.301   0.575   5.087
13164TIP3   OH239436   8.173   0.353   1.463
13164TIP3    H139437   8.169   0.258   1.457
13164TIP3    H239438   8.240   0.370   1.530
13165TIP3   OH239439   1.670   2.153   4.820
13165TIP3    H139440   1.745   2.123   4.768
13165TIP3    H239441   1.622   2.211   4.762
13166TIP3   OH239442   3.372   5.886   1.256
13166TIP3    H139443   3.405   5.893   1.166
13166TIP3    H239444   3.336   5.973   1.275
13167TIP3   OH239445   5.461   6.053   2.737
13167TIP3    H139446   5.464   6.020   2.647
13167TIP3    H239447   5.373   6.087   2.748
13168TIP3   OH239448   7.094   0.023   1.614
13168TIP3    H139449   7.189   0.029   1.597
13168TIP3    H239450   7.086   0.035   1.708
13169TIP3   OH239451   6.472   3.519   2.620
13169TIP3    H139452   6.504   3.554   2.537
13169TIP3    H239453   6.537   3.545   2.685
13170TIP3   OH239454   2.998   6.773   5.324
13170TIP3    H139455   2.949   6.735   5.251
13170TIP3    H239456   3.021   6.861   5.293
13171TIP3   OH239457   0.215   4.758   4.409
13171TIP3    H139458   0.182   4.783   4.495
13171TIP3    H239459   0.238   4.665   4.418
13172TIP3   OH239460   7.791   4.872   0.075
13172TIP3    H139461   7.802   4.824  -0.008
13172TIP3    H239462   7.879   4.903   0.096
13173TIP3   OH239463   1.490   6.420   6.148
13173TIP3    H139464   1.395   6.415   6.143
13173TIP3    H239465   1.521   6.333   6.122
13174TIP3   OH239466   4.667   3.273   2.928
13174TIP3    H139467   4.662   3.357   2.974
13174TIP3    H239468   4.697   3.212   2.995
13175TIP3   OH239469   1.298   5.599   6.102
13175TIP3    H139470   1.338   5.671   6.054
13175TIP3    H239471   1.230   5.639   6.155
13176TIP3   OH239472   6.316   6.901   1.209
13176TIP3    H139473   6.327   6.935   1.298
13176TIP3    H239474   6.401   6.915   1.167
13177TIP3   OH239475   0.787   1.668   3.898
13177TIP3    H139476   0.765   1.729   3.828
13177TIP3    H239477   0.860   1.617   3.862
13178TIP3   OH239478   3.635   5.449   5.716
13178TIP3    H139479   3.583   5.369   5.720
13178TIP3    H239480   3.605   5.502   5.789
13179TIP3   OH239481   6.865   6.178   2.032
13179TIP3    H139482   6.889   6.131   2.112
13179TIP3    H239483   6.874   6.271   2.055
13180TIP3   OH239484   4.811   0.914   3.660
13180TIP3    H139485   4.732   0.872   3.692
13180TIP3    H239486   4.780   0.992   3.615
13181TIP3   OH239487   3.735   6.057   5.192
13181TIP3    H139488   3.808   6.011   5.232
13181TIP3    H239489   3.729   6.140   5.239
13182TIP3   OH239490   6.964   1.356   3.498
13182TIP3    H139491   6.931   1.276   3.540
13182TIP3    H239492   6.918   1.427   3.543
13183TIP3   OH239493   0.050   5.822   5.721
13183TIP3    H139494  -0.018   5.771   5.676
13183TIP3    H239495   0.072   5.771   5.798
13184TIP3   OH239496   0.710   4.309   4.995
13184TIP3    H139497   0.710   4.327   5.089
13184TIP3    H239498   0.717   4.213   4.989
13185TIP3   OH239499   3.077   0.137   2.696
13185TIP3    H139500   3.108   0.227   2.698
13185TIP3    H239501   3.045   0.120   2.785
13186TIP3   OH239502   4.889   2.258   5.445
13186TIP3    H139503   4.812   2.298   5.406
13186TIP3    H239504   4.920   2.323   5.508
13187TIP3   OH239505   7.439   6.711   4.847
13187TIP3    H139506   7.428   6.806   4.849
13187TIP3    H239507   7.359   6.677   4.888
13188TIP3   OH239508   0.272   2.286   5.987
13188TIP3    H139509   0.368   2.294   5.990
13188TIP3    H239510   0.256   2.209   5.932
13189TIP3   OH239511   4.377   4.271   4.617
13189TIP3    H139512   4.386   4.239   4.707
13189TIP3    H239513   4.283   4.271   4.600
13190TIP3   OH239514   2.528   4.823   3.353
13190TIP3    H139515   2.433   4.832   3.355
13190TIP3    H239516   2.559   4.903   3.311
13191TIP3   OH239517   8.139   4.831   3.899
13191TIP3    H139518   8.231   4.839   3.925
13191TIP3    H239519   8.091   4.883   3.963
13192TIP3   OH239520   2.465   2.371   2.551
13192TIP3    H139521   2.469   2.465   2.530
13192TIP3    H239522   2.449   2.328   2.468
13193TIP3   OH239523   3.423   3.590   2.042
13193TIP3    H139524   3.381   3.524   2.098
13193TIP3    H239525   3.432   3.547   1.957
13194TIP3   OH239526   3.186   4.979   1.549
13194TIP3    H139527   3.191   5.028   1.468
13194TIP3    H239528   3.203   4.888   1.524
13195TIP3   OH239529   7.156   4.447   5.806
13195TIP3    H139530   7.076   4.481   5.845
13195TIP3    H239531   7.225   4.471   5.868
13196TIP3   OH239532   7.029   1.050   6.676
13196TIP3    H139533   7.102   1.001   6.712
13196TIP3    H239534   6.967   0.983   6.648
13197TIP3   OH239535   1.453   0.031   4.729
13197TIP3    H139536   1.532   0.034   4.783
13197TIP3    H239537   1.383   0.057   4.788
13198TIP3   OH239538   5.294   4.748   5.882
13198TIP3    H139539   5.206   4.711   5.894
13198TIP3    H239540   5.340   4.728   5.964
13199TIP3   OH239541   1.228   4.209   4.527
13199TIP3    H139542   1.292   4.205   4.597
13199TIP3    H239543   1.224   4.302   4.503
13200TIP3   OH239544   5.376   7.563   0.523
13200TIP3    H139545   5.395   7.476   0.489
13200TIP3    H239546   5.353   7.614   0.446
13201TIP3   OH239547   7.336   0.596   4.746
13201TIP3    H139548   7.395   0.621   4.675
13201TIP3    H239549   7.353   0.660   4.815
13202TIP3   OH239550   7.783   3.953   2.637
13202TIP3    H139551   7.796   4.027   2.578
13202TIP3    H239552   7.826   3.880   2.593
13203TIP3   OH239553   5.586   0.188   4.964
13203TIP3    H139554   5.616   0.110   4.919
13203TIP3    H239555   5.666   0.235   4.987
13204TIP3   OH239556   2.867   4.234   4.650
13204TIP3    H139557   2.910   4.173   4.590
13204TIP3    H239558   2.903   4.320   4.628
13205TIP3   OH239559   7.289   3.469   2.642
13205TIP3    H139560   7.252   3.529   2.578
13205TIP3    H239561   7.341   3.525   2.700
13206TIP3   OH239562   0.398   6.603   4.378
13206TIP3    H139563   0.404   6.509   4.360
13206TIP3    H239564   0.349   6.638   4.303
13207TIP3   OH239565   5.057   4.826   2.538
13207TIP3    H139566   5.058   4.761   2.608
13207TIP3    H239567   4.972   4.815   2.496
13208TIP3   OH239568   7.875   1.849   3.419
13208TIP3    H139569   7.903   1.874   3.331
13208TIP3    H239570   7.891   1.755   3.423
13209TIP3   OH239571   7.761   6.714   5.165
13209TIP3    H139572   7.792   6.800   5.134
13209TIP3    H239573   7.694   6.735   5.230
13210TIP3   OH239574   0.916   5.096   3.453
13210TIP3    H139575   0.878   5.046   3.524
13210TIP3    H239576   0.864   5.176   3.449
13211TIP3   OH239577   7.314   2.658   2.014
13211TIP3    H139578   7.253   2.585   2.015
13211TIP3    H239579   7.303   2.700   2.100
13212TIP3   OH239580   7.301   2.399   2.887
13212TIP3    H139581   7.331   2.379   2.798
13212TIP3    H239582   7.345   2.481   2.910
13213TIP3   OH239583   1.071   3.497   6.582
13213TIP3    H139584   1.039   3.463   6.499
13213TIP3    H239585   0.992   3.516   6.633
13214TIP3   OH239586   3.547   2.731   4.905
13214TIP3    H139587   3.536   2.670   4.831
13214TIP3    H239588   3.625   2.700   4.950
13215TIP3   OH239589   1.733   3.103   6.617
13215TIP3    H139590   1.685   3.074   6.694
13215TIP3    H239591   1.725   3.198   6.618
13216TIP3   OH239592   1.790   0.829   0.094
13216TIP3    H139593   1.698   0.817   0.117
13216TIP3    H239594   1.826   0.882   0.165
13217TIP3   OH239595   2.096   6.337   2.959
13217TIP3    H139596   2.035   6.315   3.030
13217TIP3    H239597   2.156   6.401   2.998
13218TIP3   OH239598   7.575   6.961   5.932
13218TIP3    H139599   7.533   7.001   6.009
13218TIP3    H239600   7.591   6.871   5.959
13219TIP3   OH239601   4.460   1.244   1.642
13219TIP3    H139602   4.376   1.264   1.686
13219TIP3    H239603   4.526   1.285   1.698
13220TIP3   OH239604   0.788   1.017   4.666
13220TIP3    H139605   0.728   1.026   4.740
13220TIP3    H239606   0.865   1.068   4.690
13221TIP3   OH239607   2.496   4.457   1.655
13221TIP3    H139608   2.473   4.501   1.573
13221TIP3    H239609   2.424   4.395   1.670
13222TIP3   OH239610   8.146   3.300   5.012
13222TIP3    H139611   8.105   3.385   4.994
13222TIP3    H239612   8.148   3.256   4.927
13223TIP3   OH239613   6.539   7.756   2.505
13223TIP3    H139614   6.481   7.775   2.579
13223TIP3    H239615   6.570   7.667   2.521
13224TIP3   OH239616   4.699   7.690   2.696
13224TIP3    H139617   4.741   7.656   2.616
13224TIP3    H239618   4.609   7.710   2.669
13225TIP3   OH239619   7.168   3.752   1.461
13225TIP3    H139620   7.228   3.815   1.500
13225TIP3    H239621   7.088   3.757   1.514
13226TIP3   OH239622   3.906   3.879   5.425
13226TIP3    H139623   3.990   3.834   5.417
13226TIP3    H239624   3.897   3.895   5.519
13227TIP3   OH239625   4.402   1.014   6.251
13227TIP3    H139626   4.493   1.035   6.229
13227TIP3    H239627   4.358   1.099   6.253
13228TIP3   OH239628   4.314   1.733   0.403
13228TIP3    H139629   4.408   1.726   0.386
13228TIP3    H239630   4.301   1.825   0.423
13229TIP3   OH239631   3.302   5.105   1.275
13229TIP3    H139632   3.301   5.050   1.197
13229TIP3    H239633   3.270   5.190   1.246
13230TIP3   OH239634   3.122   6.473   2.511
13230TIP3    H139635   3.129   6.528   2.589
13230TIP3    H239636   3.181   6.515   2.448
13231TIP3   OH239637   3.077   6.136   5.808
13231TIP3    H139638   3.153   6.167   5.858
13231TIP3    H239639   3.033   6.216   5.779
13232TIP3   OH239640   5.778   5.108   0.811
13232TIP3    H139641   5.730   5.182   0.849
13232TIP3    H239642   5.709   5.045   0.788
13233TIP3   OH239643   5.709   7.324   5.240
13233TIP3    H139644   5.651   7.253   5.211
13233TIP3    H239645   5.797   7.286   5.235
13234TIP3   OH239646   3.081   6.794   3.904
13234TIP3    H139647   3.036   6.772   3.986
13234TIP3    H239648   3.133   6.716   3.884
13235TIP3   OH239649   5.884   6.334   5.358
13235TIP3    H139650   5.892   6.421   5.319
13235TIP3    H239651   5.876   6.275   5.284
13236TIP3   OH239652   5.550   2.511   6.082
13236TIP3    H139653   5.609   2.566   6.031
13236TIP3    H239654   5.487   2.572   6.119
13237TIP3   OH239655   0.168   0.969   2.371
13237TIP3    H139656   0.197   0.893   2.320
13237TIP3    H239657   0.243   1.028   2.372
13238TIP3   OH239658   5.310   5.201   6.024
13238TIP3    H139659   5.349   5.270   6.077
13238TIP3    H239660   5.239   5.244   5.976
13239TIP3   OH239661   3.413   4.653   3.955
13239TIP3    H139662   3.358   4.620   4.026
13239TIP3    H239663   3.476   4.582   3.939
13240TIP3   OH239664   6.438   1.546   3.695
13240TIP3    H139665   6.403   1.628   3.731
13240TIP3    H239666   6.503   1.518   3.760
13241TIP3   OH239667   5.240   1.296   3.936
13241TIP3    H139668   5.308   1.356   3.908
13241TIP3    H239669   5.241   1.301   4.031
13242TIP3   OH239670   0.115   6.444   5.897
13242TIP3    H139671   0.046   6.501   5.863
13242TIP3    H239672   0.165   6.419   5.820
13243TIP3   OH239673   8.070   0.781   2.864
13243TIP3    H139674   8.025   0.766   2.780
13243TIP3    H239675   8.005   0.827   2.917
13244TIP3   OH239676   4.308   1.917   6.089
13244TIP3    H139677   4.330   2.010   6.101
13244TIP3    H239678   4.235   1.918   6.027
13245TIP3   OH239679   5.785   0.285   6.028
13245TIP3    H139680   5.762   0.372   5.995
13245TIP3    H239681   5.874   0.295   6.062
13246TIP3   OH239682   3.987   2.308   2.965
13246TIP3    H139683   3.948   2.286   3.049
13246TIP3    H239684   3.983   2.404   2.961
13247TIP3   OH239685   5.903   6.254   0.548
13247TIP3    H139686   5.990   6.290   0.561
13247TIP3    H239687   5.882   6.274   0.457
13248TIP3   OH239688   4.032   0.739   1.979
13248TIP3    H139689   4.078   0.820   1.956
13248TIP3    H239690   3.987   0.713   1.899
13249TIP3   OH239691   7.447   0.677   2.529
13249TIP3    H139692   7.464   0.634   2.613
13249TIP3    H239693   7.444   0.770   2.550
13250TIP3   OH239694   5.867   6.194   4.843
13250TIP3    H139695   5.933   6.142   4.797
13250TIP3    H239696   5.800   6.131   4.867
13251TIP3   OH239697   2.218   6.200   0.120
13251TIP3    H139698   2.155   6.128   0.112
13251TIP3    H239699   2.288   6.164   0.176
13252TIP3   OH239700   0.302   2.520   5.719
13252TIP3    H139701   0.333   2.450   5.662
13252TIP3    H239702   0.256   2.475   5.790
13253TIP3   OH239703   2.550   1.012   1.707
13253TIP3    H139704   2.458   0.994   1.686
13253TIP3    H239705   2.578   1.075   1.641
13254TIP3   OH239706   7.671   7.823   1.454
13254TIP3    H139707   7.739   7.805   1.518
13254TIP3    H239708   7.591   7.832   1.506
13255TIP3   OH239709   3.609   6.970   6.582
13255TIP3    H139710   3.583   7.062   6.592
13255TIP3    H239711   3.623   6.959   6.488
13256TIP3   OH239712   6.036   5.256   0.789
13256TIP3    H139713   5.951   5.214   0.776
13256TIP3    H239714   6.018   5.349   0.781
13257TIP3   OH239715   2.618   5.791   6.287
13257TIP3    H139716   2.654   5.765   6.372
13257TIP3    H239717   2.533   5.830   6.308
13258TIP3   OH239718   2.505   6.863   1.885
13258TIP3    H139719   2.566   6.894   1.952
13258TIP3    H239720   2.493   6.938   1.827
13259TIP3   OH239721   7.522   7.575   6.511
13259TIP3    H139722   7.530   7.546   6.602
13259TIP3    H239723   7.541   7.668   6.513
13260TIP3   OH239724   1.538   0.033   2.741
13260TIP3    H139725   1.592   0.107   2.768
13260TIP3    H239726   1.592  -0.044   2.759
13261TIP3   OH239727   0.728   6.827   3.633
13261TIP3    H139728   0.788   6.753   3.621
13261TIP3    H239729   0.648   6.800   3.588
13262TIP3   OH239730   0.237   3.841   4.128
13262TIP3    H139731   0.274   3.885   4.052
13262TIP3    H239732   0.146   3.822   4.103
13263TIP3   OH239733   7.973   6.612   2.336
13263TIP3    H139734   8.064   6.580   2.338
13263TIP3    H239735   7.925   6.551   2.391
13264TIP3   OH239736   5.008   1.239   1.344
13264TIP3    H139737   4.985   1.227   1.436
13264TIP3    H239738   5.050   1.157   1.319
13265TIP3   OH239739   6.876   0.866   6.549
13265TIP3    H139740   6.903   0.780   6.581
13265TIP3    H239741   6.864   0.854   6.455
13266TIP3   OH239742   6.545   5.004   1.294
13266TIP3    H139743   6.516   5.024   1.205
13266TIP3    H239744   6.636   5.033   1.297
13267TIP3   OH239745   6.468   2.994   6.498
13267TIP3    H139746   6.412   2.994   6.420
13267TIP3    H239747   6.554   3.021   6.465
13268TIP3   OH239748   1.563   5.183   5.375
13268TIP3    H139749   1.630   5.126   5.412
13268TIP3    H239750   1.500   5.124   5.335
13269TIP3   OH239751   5.369   1.416   0.406
13269TIP3    H139752   5.370   1.340   0.464
13269TIP3    H239753   5.461   1.440   0.396
13270TIP3   OH239754   4.928   0.998   6.149
13270TIP3    H139755   4.854   0.951   6.186
13270TIP3    H239756   5.005   0.950   6.179
13271TIP3   OH239757   0.531   3.866   0.872
13271TIP3    H139758   0.556   3.956   0.850
13271TIP3    H239759   0.496   3.831   0.790
13272TIP3   OH239760   4.989   4.369   2.105
13272TIP3    H139761   5.046   4.316   2.161
13272TIP3    H239762   4.910   4.316   2.094
13273TIP3   OH239763   5.397   7.062   1.521
13273TIP3    H139764   5.361   6.990   1.469
13273TIP3    H239765   5.382   7.035   1.612
13274TIP3   OH239766   1.260   4.800   5.470
13274TIP3    H139767   1.320   4.730   5.443
13274TIP3    H239768   1.182   4.787   5.416
13275TIP3   OH239769   0.672   3.630   5.777
13275TIP3    H139770   0.594   3.660   5.825
13275TIP3    H239771   0.711   3.710   5.742
13276TIP3   OH239772   4.027   5.973   1.581
13276TIP3    H139773   4.033   5.889   1.535
13276TIP3    H239774   4.117   5.995   1.604
13277TIP3   OH239775   6.358   2.358   3.332
13277TIP3    H139776   6.356   2.324   3.422
13277TIP3    H239777   6.368   2.279   3.278
13278TIP3   OH239778   4.615   7.639   1.393
13278TIP3    H139779   4.574   7.662   1.310
13278TIP3    H239780   4.694   7.693   1.396
13279TIP3   OH239781   1.237   0.374   2.206
13279TIP3    H139782   1.194   0.405   2.286
13279TIP3    H239783   1.317   0.426   2.200
13280TIP3   OH239784   6.532   3.406   1.182
13280TIP3    H139785   6.593   3.333   1.167
13280TIP3    H239786   6.546   3.464   1.107
13281TIP3   OH239787   3.871   5.278   1.254
13281TIP3    H139788   3.851   5.188   1.229
13281TIP3    H239789   3.792   5.327   1.232
13282TIP3   OH239790   3.890   3.584   4.455
13282TIP3    H139791   3.886   3.670   4.412
13282TIP3    H239792   3.948   3.532   4.400
13283TIP3   OH239793   1.774   2.077   3.958
13283TIP3    H139794   1.765   2.011   4.027
13283TIP3    H239795   1.712   2.049   3.890
13284TIP3   OH239796   7.268   7.424   1.051
13284TIP3    H139797   7.248   7.331   1.043
13284TIP3    H239798   7.360   7.427   1.076
13285TIP3   OH239799   2.684   4.510   0.360
13285TIP3    H139800   2.714   4.516   0.450
13285TIP3    H239801   2.635   4.591   0.345
13286TIP3   OH239802   0.726   6.330   1.125
13286TIP3    H139803   0.674   6.318   1.204
13286TIP3    H239804   0.701   6.257   1.069
13287TIP3   OH239805   7.788   5.179   5.814
13287TIP3    H139806   7.711   5.227   5.845
13287TIP3    H239807   7.792   5.199   5.720
13288TIP3   OH239808   0.615   1.321   5.435
13288TIP3    H139809   0.651   1.409   5.446
13288TIP3    H239810   0.691   1.262   5.445
13289TIP3   OH239811   8.022   3.165   2.431
13289TIP3    H139812   8.116   3.158   2.446
13289TIP3    H239813   8.013   3.236   2.367
13290TIP3   OH239814   1.384   3.813   3.548
13290TIP3    H139815   1.462   3.812   3.604
13290TIP3    H239816   1.408   3.758   3.474
13291TIP3   OH239817   1.789   7.791   6.225
13291TIP3    H139818   1.825   7.705   6.248
13291TIP3    H239819   1.865   7.844   6.203
13292TIP3   OH239820   0.986   1.094   0.084
13292TIP3    H139821   1.018   1.007   0.107
13292TIP3    H239822   0.903   1.079   0.038
13293TIP3   OH239823   2.233   1.154   3.402
13293TIP3    H139824   2.191   1.077   3.363
13293TIP3    H239825   2.300   1.179   3.338
13294TIP3   OH239826   7.984   7.559   0.839
13294TIP3    H139827   7.952   7.532   0.925
13294TIP3    H239828   8.078   7.540   0.842
13295TIP3   OH239829   4.210   6.814   1.480
13295TIP3    H139830   4.170   6.730   1.505
13295TIP3    H239831   4.298   6.810   1.518
13296TIP3   OH239832   1.896   5.485   2.587
13296TIP3    H139833   1.941   5.409   2.625
13296TIP3    H239834   1.967   5.545   2.564
13297TIP3   OH239835   8.136   5.005   4.639
13297TIP3    H139836   8.041   5.015   4.635
13297TIP3    H239837   8.168   5.038   4.555
13298TIP3   OH239838   5.108   6.119   4.123
13298TIP3    H139839   5.102   6.128   4.218
13298TIP3    H239840   5.057   6.041   4.102
13299TIP3   OH239841   6.637   3.133   1.732
13299TIP3    H139842   6.561   3.161   1.784
13299TIP3    H239843   6.637   3.037   1.741
13300TIP3   OH239844   2.692   1.327   6.229
13300TIP3    H139845   2.712   1.302   6.319
13300TIP3    H239846   2.616   1.385   6.237
13301TIP3   OH239847   4.796   0.614   3.923
13301TIP3    H139848   4.728   0.670   3.885
13301TIP3    H239849   4.836   0.669   3.991
13302TIP3   OH239850   6.367   6.100   1.832
13302TIP3    H139851   6.378   6.043   1.756
13302TIP3    H239852   6.444   6.156   1.832
13303TIP3   OH239853   3.868   7.054   2.481
13303TIP3    H139854   3.937   7.035   2.545
13303TIP3    H239855   3.802   7.101   2.531
13304TIP3   OH239856   6.250   4.988   0.061
13304TIP3    H139857   6.182   5.007  -0.003
13304TIP3    H239858   6.321   4.949   0.009
13305TIP3   OH239859   4.362   0.810   2.587
13305TIP3    H139860   4.325   0.796   2.500
13305TIP3    H239861   4.306   0.759   2.646
13306TIP3   OH239862   1.104   0.909   5.356
13306TIP3    H139863   1.044   0.883   5.427
13306TIP3    H239864   1.128   0.827   5.314
13307TIP3   OH239865   1.557   4.256   0.477
13307TIP3    H139866   1.605   4.223   0.553
13307TIP3    H239867   1.498   4.185   0.453
13308TIP3   OH239868   2.553   2.822   0.530
13308TIP3    H139869   2.591   2.826   0.617
13308TIP3    H239870   2.508   2.906   0.519
13309TIP3   OH239871   3.309   1.585   0.263
13309TIP3    H139872   3.301   1.589   0.358
13309TIP3    H239873   3.291   1.674   0.233
13310TIP3   OH239874   3.098   2.410   1.482
13310TIP3    H139875   3.141   2.408   1.396
13310TIP3    H239876   3.116   2.324   1.519
13311TIP3   OH239877   3.201   0.761   5.221
13311TIP3    H139878   3.244   0.780   5.137
13311TIP3    H239879   3.111   0.737   5.196
13312TIP3   OH239880   7.818   0.752   3.121
13312TIP3    H139881   7.863   0.728   3.202
13312TIP3    H239882   7.810   0.848   3.125
13313TIP3   OH239883   1.921   5.250   6.363
13313TIP3    H139884   1.987   5.315   6.336
13313TIP3    H239885   1.954   5.167   6.329
13314TIP3   OH239886   2.947   0.715   3.969
13314TIP3    H139887   3.023   0.682   4.018
13314TIP3    H239888   2.891   0.755   4.036
13315TIP3   OH239889   2.486   0.734   5.681
13315TIP3    H139890   2.565   0.777   5.712
13315TIP3    H239891   2.415   0.777   5.728
13316TIP3   OH239892   5.696   4.420   1.437
13316TIP3    H139893   5.730   4.428   1.526
13316TIP3    H239894   5.653   4.503   1.420
13317TIP3   OH239895   4.528   2.595   3.451
13317TIP3    H139896   4.468   2.552   3.390
13317TIP3    H239897   4.471   2.633   3.518
13318TIP3   OH239898   8.027   5.542   0.062
13318TIP3    H139899   7.938   5.532   0.098
13318TIP3    H239900   8.018   5.516  -0.030
13319TIP3   OH239901   3.964   1.114   4.738
13319TIP3    H139902   3.997   1.100   4.649
13319TIP3    H239903   4.016   1.055   4.792
13320TIP3   OH239904   5.504   1.193   1.610
13320TIP3    H139905   5.522   1.099   1.608
13320TIP3    H239906   5.409   1.200   1.624
13321TIP3   OH239907   4.460   3.643   5.664
13321TIP3    H139908   4.536   3.677   5.711
13321TIP3    H239909   4.443   3.707   5.595
13322TIP3   OH239910   6.646   0.197   1.274
13322TIP3    H139911   6.632   0.291   1.265
13322TIP3    H239912   6.714   0.176   1.210
13323TIP3   OH239913   1.398   0.345   0.799
13323TIP3    H139914   1.399   0.293   0.719
13323TIP3    H239915   1.410   0.435   0.771
13324TIP3   OH239916   3.502   3.865   0.730
13324TIP3    H139917   3.503   3.787   0.674
13324TIP3    H239918   3.476   3.936   0.672
13325TIP3   OH239919   4.763   5.442   1.682
13325TIP3    H139920   4.832   5.500   1.648
13325TIP3    H239921   4.811   5.367   1.718
13326TIP3   OH239922   5.260   0.894   2.576
13326TIP3    H139923   5.199   0.967   2.590
13326TIP3    H239924   5.206   0.816   2.580
13327TIP3   OH239925   7.124   1.918   0.635
13327TIP3    H139926   7.120   1.999   0.584
13327TIP3    H239927   7.079   1.854   0.580
13328TIP3   OH239928   0.741   2.509   1.537
13328TIP3    H139929   0.722   2.567   1.610
13328TIP3    H239930   0.700   2.426   1.561
13329TIP3   OH239931   1.717   1.324   4.578
13329TIP3    H139932   1.720   1.244   4.525
13329TIP3    H239933   1.809   1.348   4.589
13330TIP3   OH239934   4.239   4.514   2.663
13330TIP3    H139935   4.197   4.431   2.685
13330TIP3    H239936   4.168   4.566   2.625
13331TIP3   OH239937   4.289   0.179   3.690
13331TIP3    H139938   4.212   0.199   3.636
13331TIP3    H239939   4.322   0.096   3.654
13332TIP3   OH239940   2.994   4.605   6.195
13332TIP3    H139941   2.995   4.696   6.165
13332TIP3    H239942   2.916   4.598   6.249
13333TIP3   OH239943   1.872   0.764   3.265
13333TIP3    H139944   1.803   0.727   3.321
13333TIP3    H239945   1.844   0.855   3.250
13334TIP3   OH239946   4.136   6.906   5.185
13334TIP3    H139947   4.159   6.882   5.275
13334TIP3    H239948   4.100   6.995   5.192
13335TIP3   OH239949   1.363   3.110   4.816
13335TIP3    H139950   1.455   3.134   4.830
13335TIP3    H239951   1.359   3.076   4.727
13336TIP3   OH239952   0.151   1.824   0.916
13336TIP3    H139953   0.082   1.782   0.865
13336TIP3    H239954   0.118   1.912   0.933
13337TIP3   OH239955   0.209   0.226   5.907
13337TIP3    H139956   0.203   0.316   5.939
13337TIP3    H239957   0.182   0.232   5.815
13338TIP3   OH239958   3.143   2.155   1.020
13338TIP3    H139959   3.145   2.246   0.992
13338TIP3    H239960   3.052   2.140   1.047
13339TIP3   OH239961   2.636   5.176   1.731
13339TIP3    H139962   2.674   5.106   1.784
13339TIP3    H239963   2.712   5.223   1.695
13340TIP3   OH239964   5.500   0.885   6.725
13340TIP3    H139965   5.585   0.929   6.730
13340TIP3    H239966   5.521   0.797   6.692
13341TIP3   OH239967   2.219   7.026   3.549
13341TIP3    H139968   2.161   7.034   3.624
13341TIP3    H239969   2.307   7.036   3.585
13342TIP3   OH239970   8.096   7.056   1.118
13342TIP3    H139971   8.114   7.010   1.200
13342TIP3    H239972   8.002   7.072   1.118
13343TIP3   OH239973   6.665   1.914   1.725
13343TIP3    H139974   6.721   1.849   1.767
13343TIP3    H239975   6.643   1.976   1.794
13344TIP3   OH239976   8.246   6.367   0.350
13344TIP3    H139977   8.268   6.438   0.410
13344TIP3    H239978   8.330   6.328   0.326
13345TIP3   OH239979   7.807   0.737   4.495
13345TIP3    H139980   7.887   0.785   4.520
13345TIP3    H239981   7.777   0.782   4.416
13346TIP3   OH239982   0.274   1.368   0.621
13346TIP3    H139983   0.363   1.388   0.652
13346TIP3    H239984   0.267   1.415   0.538
13347TIP3   OH239985   0.852   2.168   1.137
13347TIP3    H139986   0.860   2.234   1.206
13347TIP3    H239987   0.942   2.153   1.108
13348TIP3   OH239988   5.108   5.710   4.402
13348TIP3    H139989   5.024   5.733   4.441
13348TIP3    H239990   5.130   5.785   4.347
13349TIP3   OH239991   2.425   4.705   1.133
13349TIP3    H139992   2.416   4.797   1.109
13349TIP3    H239993   2.351   4.662   1.090
13350TIP3   OH239994   2.949   5.625   0.342
13350TIP3    H139995   2.879   5.689   0.355
13350TIP3    H239996   2.966   5.626   0.248
13351TIP3   OH239997   4.988   7.198   1.034
13351TIP3    H139998   4.917   7.136   1.051
13351TIP3    H239999   5.067   7.145   1.042
13352TIP3   OH240000   1.731   5.263   2.815
13352TIP3    H140001   1.705   5.275   2.724
13352TIP3    H240002   1.782   5.341   2.836
13353TIP3   OH240003   4.458   7.553   4.637
13353TIP3    H140004   4.502   7.499   4.702
13353TIP3    H240005   4.529   7.590   4.584
13354TIP3   OH240006   7.147   3.556   6.195
13354TIP3    H140007   7.068   3.506   6.177
13354TIP3    H240008   7.120   3.625   6.255
13355TIP3   OH240009   5.871   7.099   1.586
13355TIP3    H140010   5.918   7.019   1.610
13355TIP3    H240011   5.895   7.116   1.495
13356TIP3   OH240012   6.836   1.251   5.673
13356TIP3    H140013   6.856   1.256   5.580
13356TIP3    H240014   6.919   1.275   5.716
13357TIP3   OH240015   2.646   2.357   1.737
13357TIP3    H140016   2.710   2.332   1.805
13357TIP3    H240017   2.565   2.315   1.764
13358TIP3   OH240018   4.502   2.480   3.977
13358TIP3    H140019   4.584   2.430   3.981
13358TIP3    H240020   4.506   2.528   3.895
13359TIP3   OH240021   3.192   2.330   2.941
13359TIP3    H140022   3.204   2.262   3.008
13359TIP3    H240023   3.230   2.409   2.981
13360TIP3   OH240024   0.837   3.741   4.334
13360TIP3    H140025   0.780   3.818   4.336
13360TIP3    H240026   0.888   3.752   4.253
13361TIP3   OH240027   3.012   1.543   4.348
13361TIP3    H140028   2.981   1.546   4.439
13361TIP3    H240029   3.007   1.451   4.324
13362TIP3   OH240030   6.165   3.903   0.645
13362TIP3    H140031   6.090   3.925   0.590
13362TIP3    H240032   6.208   3.987   0.662
13363TIP3   OH240033   7.157   2.278   3.161
13363TIP3    H140034   7.159   2.294   3.255
13363TIP3    H240035   7.222   2.209   3.147
13364TIP3   OH240036   7.190   3.605   0.162
13364TIP3    H140037   7.137   3.528   0.142
13364TIP3    H240038   7.207   3.645   0.076
13365TIP3   OH240039   0.849   3.104   4.203
13365TIP3    H140040   0.884   3.136   4.120
13365TIP3    H240041   0.845   3.181   4.259
13366TIP3   OH240042   2.267   0.352   2.337
13366TIP3    H140043   2.313   0.341   2.254
13366TIP3    H240044   2.189   0.296   2.328
13367TIP3   OH240045   7.779   1.926   0.963
13367TIP3    H140046   7.713   1.867   0.927
13367TIP3    H240047   7.847   1.929   0.896
13368TIP3   OH240048   1.134   1.175   5.445
13368TIP3    H140049   1.130   1.093   5.396
13368TIP3    H240050   1.191   1.156   5.520
13369TIP3   OH240051   2.126   4.336   4.457
13369TIP3    H140052   2.196   4.320   4.520
13369TIP3    H240053   2.095   4.423   4.478
13370TIP3   OH240054   1.905   1.157   0.701
13370TIP3    H140055   1.853   1.110   0.767
13370TIP3    H240056   1.987   1.176   0.746
13371TIP3   OH240057   6.854   4.932   1.344
13371TIP3    H140058   6.948   4.915   1.353
13371TIP3    H240059   6.819   4.852   1.306
13372TIP3   OH240060   4.028   1.992   4.044
13372TIP3    H140061   4.096   2.027   4.101
13372TIP3    H240062   3.975   2.067   4.020
13373TIP3   OH240063   2.960   2.715   2.056
13373TIP3    H140064   2.949   2.720   2.150
13373TIP3    H240065   3.024   2.644   2.043
13374TIP3   OH240066   2.492   0.104   3.358
13374TIP3    H140067   2.535   0.074   3.278
13374TIP3    H240068   2.509   0.034   3.421
13375TIP3   OH240069   3.481   6.295   6.316
13375TIP3    H140070   3.399   6.343   6.305
13375TIP3    H240071   3.537   6.327   6.246
13376TIP3   OH240072   3.487   2.916   0.450
13376TIP3    H140073   3.420   2.979   0.425
13376TIP3    H240074   3.531   2.893   0.368
13377TIP3   OH240075   8.232   2.785   0.918
13377TIP3    H140076   8.256   2.751   1.004
13377TIP3    H240077   8.311   2.829   0.887
13378TIP3   OH240078   5.336   5.038   4.984
13378TIP3    H140079   5.251   5.081   4.990
13378TIP3    H240080   5.315   4.947   4.965
13379TIP3   OH240081   2.220   5.230   3.867
13379TIP3    H140082   2.201   5.291   3.938
13379TIP3    H240083   2.302   5.188   3.893
13380TIP3   OH240084   3.928   3.289   2.854
13380TIP3    H140085   3.928   3.320   2.763
13380TIP3    H240086   3.868   3.348   2.899
13381TIP3   OH240087   7.163   0.110   1.007
13381TIP3    H140088   7.147   0.059   0.927
13381TIP3    H240089   7.139   0.199   0.984
13382TIP3   OH240090   4.338   7.671   6.564
13382TIP3    H140091   4.402   7.634   6.625
13382TIP3    H240092   4.375   7.756   6.539
13383TIP3   OH240093   4.681   3.823   5.697
13383TIP3    H140094   4.674   3.846   5.605
13383TIP3    H240095   4.774   3.828   5.717
13384TIP3   OH240096   0.154   1.262   0.347
13384TIP3    H140097   0.220   1.248   0.279
13384TIP3    H240098   0.178   1.347   0.385
13385TIP3   OH240099   2.689   4.239   3.151
13385TIP3    H140100   2.601   4.276   3.142
13385TIP3    H240101   2.702   4.232   3.246
13386TIP3   OH240102   5.693   5.603   1.850
13386TIP3    H140103   5.718   5.641   1.766
13386TIP3    H240104   5.599   5.616   1.855
13387TIP3   OH240105   1.409   1.238   5.266
13387TIP3    H140106   1.320   1.268   5.286
13387TIP3    H240107   1.434   1.288   5.188
13388TIP3   OH240108   8.189   7.536   4.873
13388TIP3    H140109   8.250   7.546   4.799
13388TIP3    H240110   8.169   7.443   4.876
13389TIP3   OH240111   1.322   5.699   0.610
13389TIP3    H140112   1.394   5.714   0.549
13389TIP3    H240113   1.348   5.745   0.690
13390TIP3   OH240114   0.559   0.267   4.658
13390TIP3    H140115   0.611   0.326   4.713
13390TIP3    H240116   0.594   0.280   4.570
13391TIP3   OH240117   6.193   0.221   2.747
13391TIP3    H140118   6.254   0.229   2.821
13391TIP3    H240119   6.109   0.199   2.788
13392TIP3   OH240120   5.945   5.039   3.667
13392TIP3    H140121   5.903   5.089   3.737
13392TIP3    H240122   5.880   5.037   3.597
13393TIP3   OH240123   6.127   3.869   1.193
13393TIP3    H140124   6.140   3.776   1.210
13393TIP3    H240125   6.093   3.872   1.103
13394TIP3   OH240126   5.419   0.927   6.216
13394TIP3    H140127   5.487   0.864   6.239
13394TIP3    H240128   5.355   0.877   6.167
13395TIP3   OH240129   6.237   7.079   0.119
13395TIP3    H140130   6.224   7.000   0.172
13395TIP3    H240131   6.186   7.146   0.163
13396TIP3   OH240132   7.369   2.306   2.648
13396TIP3    H140133   7.308   2.288   2.577
13396TIP3    H240134   7.451   2.330   2.605
13397TIP3   OH240135   0.905   4.112   6.046
13397TIP3    H140136   0.905   4.202   6.078
13397TIP3    H240137   0.995   4.082   6.060
13398TIP3   OH240138   6.735   0.276   0.985
13398TIP3    H140139   6.736   0.327   0.904
13398TIP3    H240140   6.787   0.328   1.047
13399TIP3   OH240141   4.040   7.489   3.243
13399TIP3    H140142   4.000   7.575   3.228
13399TIP3    H240143   3.967   7.427   3.243
13400TIP3   OH240144   5.906   5.314   2.817
13400TIP3    H140145   5.985   5.338   2.770
13400TIP3    H240146   5.896   5.382   2.884
13401TIP3   OH240147   7.002   2.399   1.069
13401TIP3    H140148   7.066   2.355   1.124
13401TIP3    H240149   7.049   2.474   1.032
13402TIP3   OH240150   0.597   5.533   1.707
13402TIP3    H140151   0.617   5.515   1.799
13402TIP3    H240152   0.679   5.516   1.660
13403TIP3   OH240153   0.920   2.857   2.363
13403TIP3    H140154   0.864   2.887   2.292
13403TIP3    H240155   0.864   2.859   2.441
13404TIP3   OH240156   4.256   5.581   5.633
13404TIP3    H140157   4.243   5.642   5.560
13404TIP3    H240158   4.227   5.630   5.710
13405TIP3   OH240159   2.054   0.167   6.054
13405TIP3    H140160   1.961   0.150   6.041
13405TIP3    H240161   2.057   0.249   6.104
13406TIP3   OH240162   3.459   5.905   3.336
13406TIP3    H140163   3.516   5.959   3.282
13406TIP3    H240164   3.505   5.822   3.344
13407TIP3   OH240165   5.455   3.757   1.695
13407TIP3    H140166   5.376   3.702   1.693
13407TIP3    H240167   5.507   3.727   1.621
13408TIP3   OH240168   3.237   6.475   3.265
13408TIP3    H140169   3.282   6.515   3.191
13408TIP3    H240170   3.270   6.524   3.341
13409TIP3   OH240171   3.632   4.305   3.657
13409TIP3    H140172   3.705   4.266   3.610
13409TIP3    H240173   3.633   4.397   3.631
13410TIP3   OH240174   0.566   1.874   5.916
13410TIP3    H140175   0.546   1.811   5.985
13410TIP3    H240176   0.601   1.820   5.845
13411TIP3   OH240177   1.984   5.685   5.880
13411TIP3    H140178   1.937   5.623   5.936
13411TIP3    H240179   1.918   5.714   5.817
13412TIP3   OH240180   3.778   3.490   2.389
13412TIP3    H140181   3.732   3.419   2.345
13412TIP3    H240182   3.814   3.543   2.317
13413TIP3   OH240183   5.057   3.360   1.013
13413TIP3    H140184   5.102   3.441   0.988
13413TIP3    H240185   5.085   3.344   1.103
13414TIP3   OH240186   2.291   4.704   3.919
13414TIP3    H140187   2.353   4.713   3.991
13414TIP3    H240188   2.308   4.617   3.882
13415TIP3   OH240189   4.726   1.577   3.473
13415TIP3    H140190   4.738   1.535   3.558
13415TIP3    H240191   4.798   1.544   3.420
13416TIP3   OH240192   6.120   1.759   3.598
13416TIP3    H140193   6.026   1.777   3.608
13416TIP3    H240194   6.157   1.776   3.685
13417TIP3   OH240195   6.347   1.663   5.677
13417TIP3    H140196   6.277   1.641   5.615
13417TIP3    H240197   6.331   1.606   5.752
13418TIP3   OH240198   3.796   0.600   4.047
13418TIP3    H140199   3.715   0.564   4.010
13418TIP3    H240200   3.840   0.525   4.087
13419TIP3   OH240201   6.177   5.865   4.728
13419TIP3    H140202   6.222   5.831   4.650
13419TIP3    H240203   6.129   5.942   4.696
13420TIP3   OH240204   1.057   6.786   3.127
13420TIP3    H140205   1.033   6.706   3.174
13420TIP3    H240206   1.074   6.850   3.195
13421TIP3   OH240207   7.241   0.888   1.565
13421TIP3    H140208   7.146   0.892   1.557
13421TIP3    H240209   7.272   0.966   1.519
13422TIP3   OH240210   5.082   6.962   0.238
13422TIP3    H140211   5.164   6.921   0.211
13422TIP3    H240212   5.066   6.928   0.326
13423TIP3   OH240213   5.142   6.642   6.572
13423TIP3    H140214   5.199   6.565   6.573
13423TIP3    H240215   5.081   6.626   6.500
13424TIP3   OH240216   6.488   1.923   6.018
13424TIP3    H140217   6.437   1.842   6.010
13424TIP3    H240218   6.493   1.958   5.929
13425TIP3   OH240219   1.583   3.037   2.026
13425TIP3    H140220   1.495   3.015   1.993
13425TIP3    H240221   1.567   3.101   2.095
13426TIP3   OH240222   4.606   7.146   0.905
13426TIP3    H140223   4.605   7.164   0.811
13426TIP3    H240224   4.539   7.079   0.918
13427TIP3   OH240225   0.675   3.361   4.163
13427TIP3    H140226   0.726   3.375   4.243
13427TIP3    H240227   0.632   3.445   4.148
13428TIP3   OH240228   0.946   5.508   6.696
13428TIP3    H140229   1.008   5.435   6.692
13428TIP3    H240230   0.974   5.559   6.771
13429TIP3   OH240231   1.911   5.697   4.169
13429TIP3    H140232   1.948   5.758   4.233
13429TIP3    H240233   1.817   5.696   4.188
13430TIP3   OH240234   7.994   1.775   6.743
13430TIP3    H140235   7.965   1.741   6.658
13430TIP3    H240236   8.089   1.773   6.738
13431TIP3   OH240237   3.229   1.414   0.069
13431TIP3    H140238   3.207   1.334   0.118
13431TIP3    H240239   3.278   1.467   0.132
13432TIP3   OH240240   4.932   6.167   4.900
13432TIP3    H140241   4.935   6.145   4.807
13432TIP3    H240242   4.852   6.220   4.910
13433TIP3   OH240243   7.993   6.970   1.548
13433TIP3    H140244   8.015   7.059   1.520
13433TIP3    H240245   7.945   6.933   1.474
13434TIP3   OH240246   5.080   5.725   3.190
13434TIP3    H140247   5.101   5.793   3.126
13434TIP3    H240248   5.035   5.772   3.261
13435TIP3   OH240249   8.247   7.434   3.707
13435TIP3    H140250   8.297   7.354   3.686
13435TIP3    H240251   8.180   7.438   3.639
13436TIP3   OH240252   7.481   0.383   1.467
13436TIP3    H140253   7.545   0.312   1.467
13436TIP3    H240254   7.406   0.348   1.419
13437TIP3   OH240255   3.268   0.186   4.324
13437TIP3    H140256   3.278   0.132   4.402
13437TIP3    H240257   3.348   0.171   4.273
13438TIP3   OH240258   0.711   7.448   0.029
13438TIP3    H140259   0.664   7.386   0.085
13438TIP3    H240260   0.780   7.483   0.085
13439TIP3   OH240261   7.603   7.049   2.782
13439TIP3    H140262   7.568   7.054   2.693
13439TIP3    H240263   7.529   7.073   2.838
13440TIP3   OH240264   7.479   6.242   4.711
13440TIP3    H140265   7.457   6.282   4.627
13440TIP3    H240266   7.495   6.316   4.770
13441TIP3   OH240267   7.604   0.750   4.807
13441TIP3    H140268   7.547   0.739   4.730
13441TIP3    H240269   7.676   0.689   4.792
13442TIP3   OH240270   0.047   5.563   3.601
13442TIP3    H140271   0.026   5.631   3.537
13442TIP3    H240272   0.085   5.610   3.675
13443TIP3   OH240273   7.922   4.333   1.345
13443TIP3    H140274   7.853   4.268   1.363
13443TIP3    H240275   7.889   4.382   1.270
13444TIP3   OH240276   7.753   1.423   4.023
13444TIP3    H140277   7.772   1.515   4.005
13444TIP3    H240278   7.800   1.375   3.955
13445TIP3   OH240279   0.178   2.103   5.481
13445TIP3    H140280   0.179   2.027   5.540
13445TIP3    H240281   0.085   2.127   5.475
13446TIP3   OH240282  -0.003   6.797   3.721
13446TIP3    H140283   0.077   6.755   3.755
13446TIP3    H240284  -0.009   6.765   3.630
13447TIP3   OH240285   2.341   3.246   1.944
13447TIP3    H140286   2.329   3.309   2.016
13447TIP3    H240287   2.430   3.261   1.914
13448TIP3   OH240288   4.393   0.263   0.034
13448TIP3    H140289   4.409   0.191  -0.027
13448TIP3    H240290   4.302   0.288   0.019
13449TIP3   OH240291   5.831   7.141   2.663
13449TIP3    H140292   5.853   7.102   2.578
13449TIP3    H240293   5.841   7.235   2.648
13450TIP3   OH240294   0.514   4.053   5.364
13450TIP3    H140295   0.485   4.071   5.275
13450TIP3    H240296   0.552   3.965   5.358
13451TIP3   OH240297   0.392   1.661   3.162
13451TIP3    H140298   0.444   1.680   3.084
13451TIP3    H240299   0.302   1.675   3.135
13452TIP3   OH240300   1.193   5.375   4.674
13452TIP3    H140301   1.283   5.351   4.653
13452TIP3    H240302   1.169   5.319   4.748
13453TIP3   OH240303   4.351   5.661   6.511
13453TIP3    H140304   4.407   5.708   6.572
13453TIP3    H240305   4.330   5.579   6.556
13454TIP3   OH240306   7.628   1.112   3.113
13454TIP3    H140307   7.712   1.114   3.158
13454TIP3    H240308   7.567   1.155   3.173
13455TIP3   OH240309   3.553   2.777   6.421
13455TIP3    H140310   3.508   2.747   6.341
13455TIP3    H240311   3.507   2.858   6.444
13456TIP3   OH240312   4.925   4.977   5.318
13456TIP3    H140313   4.970   5.057   5.292
13456TIP3    H240314   4.982   4.938   5.385
13457TIP3   OH240315   1.551   6.275   4.080
13457TIP3    H140316   1.546   6.365   4.046
13457TIP3    H240317   1.463   6.256   4.112
13458TIP3   OH240318   1.825   1.359   5.552
13458TIP3    H140319   1.794   1.430   5.607
13458TIP3    H240320   1.773   1.283   5.579
13459TIP3   OH240321   2.196   1.706   0.495
13459TIP3    H140322   2.108   1.743   0.500
13459TIP3    H240323   2.203   1.670   0.407
13460TIP3   OH240324   6.158   0.262   5.192
13460TIP3    H140325   6.240   0.264   5.240
13460TIP3    H240326   6.179   0.218   5.110
13461TIP3   OH240327   2.692   2.296   5.849
13461TIP3    H140328   2.751   2.270   5.778
13461TIP3    H240329   2.630   2.356   5.807
13462TIP3   OH240330   6.656   1.431   3.829
13462TIP3    H140331   6.741   1.387   3.836
13462TIP3    H240332   6.600   1.383   3.891
13463TIP3   OH240333   3.474   0.011   5.774
13463TIP3    H140334   3.421  -0.057   5.815
13463TIP3    H240335   3.482   0.079   5.841
13464TIP3   OH240336   5.732   7.269   3.431
13464TIP3    H140337   5.800   7.213   3.393
13464TIP3    H240338   5.712   7.333   3.363
13465TIP3   OH240339   5.092   5.331   2.963
13465TIP3    H140340   5.185   5.345   2.978
13465TIP3    H240341   5.055   5.418   2.953
13466TIP3   OH240342   5.564   3.808   1.943
13466TIP3    H140343   5.644   3.759   1.925
13466TIP3    H240344   5.508   3.792   1.866
13467TIP3   OH240345   1.906   1.532   0.447
13467TIP3    H140346   1.861   1.447   0.447
13467TIP3    H240347   1.863   1.582   0.516
13468TIP3   OH240348   2.057   0.930   5.248
13468TIP3    H140349   2.103   0.904   5.328
13468TIP3    H240350   2.014   1.012   5.271
13469TIP3   OH240351   7.178   3.642   3.043
13469TIP3    H140352   7.132   3.704   2.985
13469TIP3    H240353   7.128   3.644   3.125
13470TIP3   OH240354   7.771   0.426   5.845
13470TIP3    H140355   7.784   0.462   5.757
13470TIP3    H240356   7.782   0.500   5.904
13471TIP3   OH240357   7.768   1.639   2.120
13471TIP3    H140358   7.698   1.644   2.055
13471TIP3    H240359   7.790   1.730   2.139
13472TIP3   OH240360   3.897   3.049   1.136
13472TIP3    H140361   3.878   3.137   1.104
13472TIP3    H240362   3.819   3.023   1.185
13473TIP3   OH240363   6.905   4.980   4.668
13473TIP3    H140364   6.870   4.920   4.733
13473TIP3    H240365   6.979   4.933   4.630
13474TIP3   OH240366   3.638   1.307   4.924
13474TIP3    H140367   3.658   1.291   4.831
13474TIP3    H240368   3.699   1.249   4.971
13475TIP3   OH240369   5.618   1.330   5.863
13475TIP3    H140370   5.594   1.237   5.863
13475TIP3    H240371   5.559   1.370   5.800
13476TIP3   OH240372   7.881   7.507   4.730
13476TIP3    H140373   7.910   7.493   4.640
13476TIP3    H240374   7.795   7.549   4.721
13477TIP3   OH240375   7.120   5.140   3.257
13477TIP3    H140376   7.147   5.230   3.241
13477TIP3    H240377   7.162   5.088   3.189
13478TIP3   OH240378   2.412   0.767   5.239
13478TIP3    H140379   2.360   0.699   5.196
13478TIP3    H240380   2.444   0.821   5.166
13479TIP3   OH240381   4.637   3.104   5.442
13479TIP3    H140382   4.635   3.178   5.502
13479TIP3    H240383   4.554   3.109   5.394
13480TIP3   OH240384   7.691   5.640   3.619
13480TIP3    H140385   7.687   5.720   3.566
13480TIP3    H240386   7.772   5.649   3.669
13481TIP3   OH240387   5.140   4.248   1.718
13481TIP3    H140388   5.121   4.320   1.778
13481TIP3    H240389   5.147   4.289   1.632
13482TIP3   OH240390   3.155   4.406   0.092
13482TIP3    H140391   3.114   4.484   0.056
13482TIP3    H240392   3.191   4.360   0.016
13483TIP3   OH240393   7.324   0.681   5.352
13483TIP3    H140394   7.320   0.761   5.298
13483TIP3    H240395   7.380   0.622   5.301
13484TIP3   OH240396   1.370   3.952   4.870
13484TIP3    H140397   1.279   3.921   4.877
13484TIP3    H240398   1.364   4.047   4.882
13485TIP3   OH240399   3.021   6.732   1.171
13485TIP3    H140400   2.937   6.778   1.169
13485TIP3    H240401   3.000   6.645   1.205
13486TIP3   OH240402   7.143   3.193   0.331
13486TIP3    H140403   7.234   3.223   0.334
13486TIP3    H240404   7.092   3.268   0.359
13487TIP3   OH240405   4.849   4.964   0.562
13487TIP3    H140406   4.815   5.052   0.547
13487TIP3    H240407   4.807   4.911   0.494
13488TIP3   OH240408   0.963   4.869   0.844
13488TIP3    H140409   0.878   4.827   0.858
13488TIP3    H240410   0.960   4.948   0.899
13489TIP3   OH240411   0.542   0.962   5.099
13489TIP3    H140412   0.460   0.914   5.087
13489TIP3    H240413   0.600   0.900   5.141
13490TIP3   OH240414   2.010   1.114   5.571
13490TIP3    H140415   1.987   1.021   5.570
13490TIP3    H240416   2.099   1.115   5.606
13491TIP3   OH240417   5.044   2.772   6.689
13491TIP3    H140418   4.979   2.803   6.752
13491TIP3    H240419   4.993   2.748   6.612
13492TIP3   OH240420   0.934   0.758   1.468
13492TIP3    H140421   0.959   0.667   1.488
13492TIP3    H240422   1.008   0.793   1.420
13493TIP3   OH240423   6.235   0.966   6.193
13493TIP3    H140424   6.253   0.892   6.251
13493TIP3    H240425   6.141   0.978   6.197
13494TIP3   OH240426   8.131   6.081   0.616
13494TIP3    H140427   8.047   6.043   0.640
13494TIP3    H240428   8.109   6.162   0.571
13495TIP3   OH240429   2.903   1.367   1.644
13495TIP3    H140430   2.830   1.324   1.600
13495TIP3    H240431   2.881   1.460   1.642
13496TIP3   OH240432   3.203   3.177   5.933
13496TIP3    H140433   3.152   3.154   6.011
13496TIP3    H240434   3.213   3.272   5.938
13497TIP3   OH240435   3.270   5.359   5.098
13497TIP3    H140436   3.309   5.399   5.175
13497TIP3    H240437   3.249   5.270   5.126
13498TIP3   OH240438   3.000   4.633   2.531
13498TIP3    H140439   3.012   4.628   2.626
13498TIP3    H240440   3.060   4.701   2.502
13499TIP3   OH240441  -0.036   6.222   2.311
13499TIP3    H140442  -0.011   6.268   2.231
13499TIP3    H240443   0.044   6.218   2.363
13500TIP3   OH240444   6.962   1.341   3.210
13500TIP3    H140445   6.957   1.246   3.204
13500TIP3    H240446   6.981   1.359   3.302
13501TIP3   OH240447   6.319   1.715   0.640
13501TIP3    H140448   6.359   1.781   0.696
13501TIP3    H240449   6.326   1.751   0.551
13502TIP3   OH240450   6.979   4.012   3.248
13502TIP3    H140451   7.057   3.998   3.194
13502TIP3    H240452   7.011   4.051   3.328
13503TIP3   OH240453   4.290   5.300   4.387
13503TIP3    H140454   4.221   5.341   4.438
13503TIP3    H240455   4.270   5.322   4.296
13504TIP3   OH240456   2.749   3.820   4.569
13504TIP3    H140457   2.672   3.773   4.538
13504TIP3    H240458   2.751   3.900   4.517
13505TIP3   OH240459   3.223   5.532   1.730
13505TIP3    H140460   3.145   5.549   1.783
13505TIP3    H240461   3.211   5.585   1.651
13506TIP3   OH240462   4.252   6.379   3.335
13506TIP3    H140463   4.239   6.318   3.263
13506TIP3    H240464   4.223   6.332   3.413
13507TIP3   OH240465   5.101   7.644   3.048
13507TIP3    H140466   5.103   7.673   3.139
13507TIP3    H240467   5.086   7.550   3.053
13508TIP3   OH240468   1.103   0.850   4.373
13508TIP3    H140469   1.030   0.840   4.433
13508TIP3    H240470   1.160   0.776   4.393
13509TIP3   OH240471   5.948   3.026   2.255
13509TIP3    H140472   6.017   2.984   2.305
13509TIP3    H240473   5.993   3.091   2.201
13510TIP3   OH240474   3.534   1.452   3.025
13510TIP3    H140475   3.492   1.515   2.967
13510TIP3    H240476   3.628   1.467   3.014
13511TIP3   OH240477   3.364   5.701   4.639
13511TIP3    H140478   3.298   5.761   4.674
13511TIP3    H240479   3.428   5.757   4.596
13512TIP3   OH240480   0.281   2.757   4.614
13512TIP3    H140481   0.350   2.810   4.654
13512TIP3    H240482   0.316   2.668   4.615
13513TIP3   OH240483   5.936   2.360   6.622
13513TIP3    H140484   5.883   2.439   6.637
13513TIP3    H240485   6.021   2.393   6.593
13514TIP3   OH240486   7.521   2.916   1.115
13514TIP3    H140487   7.558   2.982   1.173
13514TIP3    H240488   7.585   2.844   1.117
13515TIP3   OH240489   8.230   6.368   4.887
13515TIP3    H140490   8.176   6.369   4.967
13515TIP3    H240491   8.281   6.449   4.892
13516TIP3   OH240492   3.409   0.692   0.275
13516TIP3    H140493   3.418   0.727   0.364
13516TIP3    H240494   3.388   0.600   0.287
13517TIP3   OH240495   5.175   7.197   2.912
13517TIP3    H140496   5.191   7.125   2.851
13517TIP3    H240497   5.228   7.176   2.989
13518TIP3   OH240498   1.503   6.055   0.271
13518TIP3    H140499   1.438   6.124   0.261
13518TIP3    H240500   1.519   6.051   0.365
13519TIP3   OH240501   4.320   5.292   5.926
13519TIP3    H140502   4.360   5.335   5.850
13519TIP3    H240503   4.280   5.363   5.975
13520TIP3   OH240504   1.455   1.386   1.824
13520TIP3    H140505   1.368   1.420   1.845
13520TIP3    H240506   1.476   1.327   1.896
13521TIP3   OH240507   6.471   2.677   3.329
13521TIP3    H140508   6.554   2.648   3.367
13521TIP3    H240509   6.475   2.646   3.238
13522TIP3   OH240510   1.378   0.532   1.649
13522TIP3    H140511   1.395   0.597   1.581
13522TIP3    H240512   1.290   0.499   1.631
13523TIP3   OH240513   0.398   2.840   1.545
13523TIP3    H140514   0.403   2.841   1.449
13523TIP3    H240515   0.337   2.910   1.567
13524TIP3   OH240516   7.416   2.995   4.411
13524TIP3    H140517   7.458   2.935   4.349
13524TIP3    H240518   7.417   3.080   4.367
13525TIP3   OH240519   0.789   1.547   3.421
13525TIP3    H140520   0.751   1.533   3.507
13525TIP3    H240521   0.719   1.528   3.359
13526TIP3   OH240522   7.364   5.951   0.123
13526TIP3    H140523   7.327   5.967   0.036
13526TIP3    H240524   7.293   5.911   0.173
13527TIP3   OH240525   1.409   0.419   3.430
13527TIP3    H140526   1.471   0.384   3.366
13527TIP3    H240527   1.427   0.513   3.433
13528TIP3   OH240528   7.040   4.015   5.067
13528TIP3    H140529   6.962   3.960   5.074
13528TIP3    H240530   7.063   4.037   5.157
13529TIP3   OH240531   2.835   1.524   2.161
13529TIP3    H140532   2.746   1.539   2.193
13529TIP3    H240533   2.844   1.583   2.086
13530TIP3   OH240534   6.527   4.601   3.002
13530TIP3    H140535   6.516   4.692   2.973
13530TIP3    H240536   6.618   4.581   2.983
13531TIP3   OH240537   1.792   1.896   3.356
13531TIP3    H140538   1.783   1.812   3.400
13531TIP3    H240539   1.726   1.952   3.396
13532TIP3   OH240540   6.803   3.511   3.070
13532TIP3    H140541   6.768   3.423   3.053
13532TIP3    H240542   6.885   3.495   3.116
13533TIP3   OH240543   0.018   6.045   2.092
13533TIP3    H140544   0.016   5.959   2.051
13533TIP3    H240545  -0.048   6.096   2.044
13534TIP3   OH240546   1.064   6.447   5.884
13534TIP3    H140547   0.986   6.395   5.864
13534TIP3    H240548   1.040   6.536   5.858
13535TIP3   OH240549   2.654   0.372   4.633
13535TIP3    H140550   2.716   0.438   4.665
13535TIP3    H240551   2.619   0.410   4.552
13536TIP3   OH240552   4.031   1.885   5.035
13536TIP3    H140553   4.049   1.797   5.002
13536TIP3    H240554   4.050   1.942   4.961
13537TIP3   OH240555   6.692   3.397   6.037
13537TIP3    H140556   6.718   3.441   5.957
13537TIP3    H240557   6.631   3.458   6.080
13538TIP3   OH240558   4.885   1.242   2.897
13538TIP3    H140559   4.843   1.164   2.933
13538TIP3    H240560   4.819   1.281   2.839
13539TIP3   OH240561   2.969   2.477   5.581
13539TIP3    H140562   3.035   2.451   5.517
13539TIP3    H240563   2.928   2.555   5.544
13540TIP3   OH240564   4.967   4.773   1.591
13540TIP3    H140565   4.933   4.720   1.518
13540TIP3    H240566   4.895   4.776   1.654
13541TIP3   OH240567   6.904   2.576   6.678
13541TIP3    H140568   6.974   2.546   6.736
13541TIP3    H240569   6.936   2.659   6.643
13542TIP3   OH240570   4.935   1.210   2.404
13542TIP3    H140571   4.980   1.168   2.478
13542TIP3    H240572   4.849   1.167   2.401
13543TIP3   OH240573   7.168   2.912   5.033
13543TIP3    H140574   7.162   2.865   5.116
13543TIP3    H240575   7.203   2.998   5.057
13544TIP3   OH240576   7.809   6.598   4.920
13544TIP3    H140577   7.889   6.646   4.896
13544TIP3    H240578   7.796   6.619   5.013
13545TIP3   OH240579   0.236   5.197   4.146
13545TIP3    H140580   0.183   5.207   4.067
13545TIP3    H240581   0.212   5.110   4.180
13546TIP3   OH240582   6.774   7.189   3.030
13546TIP3    H140583   6.764   7.094   3.035
13546TIP3    H240584   6.869   7.204   3.037
13547TIP3   OH240585   7.079   1.946   3.063
13547TIP3    H140586   7.097   1.855   3.087
13547TIP3    H240587   7.108   1.997   3.138
13548TIP3   OH240588   7.176   3.024   5.394
13548TIP3    H140589   7.160   3.085   5.322
13548TIP3    H240590   7.190   3.080   5.470
13549TIP3   OH240591   7.408   5.950   3.165
13549TIP3    H140592   7.449   5.940   3.080
13549TIP3    H240593   7.480   5.943   3.228
13550TIP3   OH240594   4.393   6.198   4.547
13550TIP3    H140595   4.441   6.279   4.527
13550TIP3    H240596   4.389   6.152   4.463
13551TIP3   OH240597   7.494   2.851   3.443
13551TIP3    H140598   7.549   2.804   3.380
13551TIP3    H240599   7.417   2.877   3.392
13552TIP3   OH240600   1.695   3.455   6.572
13552TIP3    H140601   1.721   3.436   6.662
13552TIP3    H240602   1.777   3.447   6.522
13553TIP3   OH240603   2.136   0.628   2.213
13553TIP3    H140604   2.080   0.705   2.216
13553TIP3    H240605   2.223   0.662   2.191
13554TIP3   OH240606   0.337   3.288   6.454
13554TIP3    H140607   0.259   3.262   6.404
13554TIP3    H240608   0.327   3.383   6.465
13555TIP3   OH240609   4.645   0.015   5.911
13555TIP3    H140610   4.630  -0.072   5.949
13555TIP3    H240611   4.720   0.002   5.852
13556TIP3   OH240612   0.047   3.218   4.546
13556TIP3    H140613   0.060   3.128   4.516
13556TIP3    H240614   0.135   3.252   4.558
13557TIP3   OH240615   3.410   1.831   6.298
13557TIP3    H140616   3.446   1.810   6.212
13557TIP3    H240617   3.317   1.809   6.291
13558TIP3   OH240618   4.446   1.277   1.322
13558TIP3    H140619   4.484   1.308   1.404
13558TIP3    H240620   4.355   1.305   1.324
13559TIP3   OH240621   3.182   3.819   4.423
13559TIP3    H140622   3.212   3.821   4.333
13559TIP3    H240623   3.261   3.808   4.475
13560TIP3   OH240624   0.305   7.642   1.041
13560TIP3    H140625   0.300   7.682   0.954
13560TIP3    H240626   0.370   7.694   1.087
13561TIP3   OH240627   8.185   0.600   3.287
13561TIP3    H140628   8.173   0.615   3.193
13561TIP3    H240629   8.150   0.679   3.328
13562TIP3   OH240630   1.557   2.314   0.288
13562TIP3    H140631   1.502   2.352   0.220
13562TIP3    H240632   1.639   2.363   0.285
13563TIP3   OH240633   6.263   2.888   3.183
13563TIP3    H140634   6.289   2.926   3.099
13563TIP3    H240635   6.291   2.796   3.178
13564TIP3   OH240636   1.711   5.871   3.157
13564TIP3    H140637   1.789   5.815   3.150
13564TIP3    H240638   1.744   5.953   3.194
13565TIP3   OH240639   2.680   1.849   2.861
13565TIP3    H140640   2.592   1.819   2.882
13565TIP3    H240641   2.675   1.877   2.769
13566TIP3   OH240642   2.256   0.329   4.977
13566TIP3    H140643   2.309   0.338   4.897
13566TIP3    H240644   2.167   0.319   4.945
13567TIP3   OH240645   1.582   1.737   0.376
13567TIP3    H140646   1.493   1.769   0.392
13567TIP3    H240647   1.586   1.653   0.421
13568TIP3   OH240648   0.580   6.498   5.812
13568TIP3    H140649   0.616   6.571   5.761
13568TIP3    H240650   0.486   6.515   5.815
13569TIP3   OH240651   4.336   7.645   6.274
13569TIP3    H140652   4.317   7.644   6.368
13569TIP3    H240653   4.363   7.556   6.254
13570TIP3   OH240654   7.603   1.527   0.103
13570TIP3    H140655   7.650   1.491   0.027
13570TIP3    H240656   7.672   1.549   0.166
13571TIP3   OH240657   0.408   4.108   3.190
13571TIP3    H140658   0.381   4.093   3.280
13571TIP3    H240659   0.412   4.021   3.151
13572TIP3   OH240660   6.731   3.807   6.241
13572TIP3    H140661   6.666   3.826   6.173
13572TIP3    H240662   6.680   3.800   6.321
13573TIP3   OH240663   3.369   0.058   4.558
13573TIP3    H140664   3.374   0.120   4.630
13573TIP3    H240665   3.295   0.001   4.581
13574TIP3   OH240666   0.843   6.280   6.631
13574TIP3    H140667   0.782   6.216   6.595
13574TIP3    H240668   0.853   6.254   6.723
13575TIP3   OH240669   0.628   0.067   4.266
13575TIP3    H140670   0.614   0.112   4.350
13575TIP3    H240671   0.698   0.115   4.223
13576TIP3   OH240672   6.972   1.486   4.250
13576TIP3    H140673   6.925   1.503   4.332
13576TIP3    H240674   6.916   1.426   4.202
13577TIP3   OH240675   5.804   0.274   1.603
13577TIP3    H140676   5.873   0.284   1.668
13577TIP3    H240677   5.788   0.180   1.599
13578TIP3   OH240678   4.821   0.467   3.541
13578TIP3    H140679   4.887   0.534   3.526
13578TIP3    H240680   4.812   0.463   3.636
13579TIP3   OH240681   6.746   2.809   2.208
13579TIP3    H140682   6.696   2.846   2.136
13579TIP3    H240683   6.781   2.885   2.255
13580TIP3   OH240684   2.136   4.395   1.705
13580TIP3    H140685   2.047   4.362   1.700
13580TIP3    H240686   2.150   4.411   1.798
13581TIP3   OH240687   8.079   1.122   5.596
13581TIP3    H140688   8.102   1.029   5.602
13581TIP3    H240689   8.161   1.165   5.572
13582TIP3   OH240690   0.152   6.981   1.064
13582TIP3    H140691   0.101   6.925   1.122
13582TIP3    H240692   0.125   7.070   1.088
13583TIP3   OH240693   3.265   0.028   3.050
13583TIP3    H140694   3.256   0.012   3.144
13583TIP3    H240695   3.357   0.014   3.031
13584TIP3   OH240696   5.560   0.936   0.623
13584TIP3    H140697   5.483   0.891   0.656
13584TIP3    H240698   5.633   0.899   0.673
13585TIP3   OH240699   3.201   0.946   5.824
13585TIP3    H140700   3.181   1.033   5.858
13585TIP3    H240701   3.206   0.957   5.729
13586TIP3   OH240702   2.134   6.379   2.363
13586TIP3    H140703   2.203   6.379   2.296
13586TIP3    H240704   2.053   6.372   2.313
13587TIP3   OH240705   5.889   4.086   0.872
13587TIP3    H140706   5.915   4.114   0.784
13587TIP3    H240707   5.944   4.009   0.889
13588TIP3   OH240708   2.592   2.306   2.259
13588TIP3    H140709   2.628   2.226   2.298
13588TIP3    H240710   2.656   2.331   2.193
13589TIP3   OH240711   1.801   0.929   4.248
13589TIP3    H140712   1.772   0.933   4.339
13589TIP3    H240713   1.739   0.869   4.206
13590TIP3   OH240714   5.361   5.269   0.016
13590TIP3    H140715   5.335   5.361   0.013
13590TIP3    H240716   5.454   5.270   0.038
13591TIP3   OH240717   7.212   4.084   1.359
13591TIP3    H140718   7.231   4.158   1.417
13591TIP3    H240719   7.130   4.107   1.316
13592TIP3   OH240720   4.048   4.417   6.683
13592TIP3    H140721   3.962   4.458   6.682
13592TIP3    H240722   4.084   4.435   6.596
13593TIP3   OH240723   2.179   1.986   5.474
13593TIP3    H140724   2.160   1.973   5.567
13593TIP3    H240725   2.094   1.995   5.433
13594TIP3   OH240726   0.097   0.805   1.944
13594TIP3    H140727   0.173   0.771   1.896
13594TIP3    H240728   0.058   0.728   1.985
13595TIP3   OH240729   0.996   0.984   1.202
13595TIP3    H140730   1.007   0.940   1.118
13595TIP3    H240731   1.061   0.942   1.259
13596TIP3   OH240732   0.444   1.951   1.336
13596TIP3    H140733   0.448   1.865   1.294
13596TIP3    H240734   0.351   1.972   1.340
13597TIP3   OH240735   0.620   6.378   4.063
13597TIP3    H140736   0.715   6.374   4.076
13597TIP3    H240737   0.584   6.330   4.138
13598TIP3   OH240738   7.528   2.569   4.686
13598TIP3    H140739   7.552   2.661   4.695
13598TIP3    H240740   7.551   2.547   4.596
13599TIP3   OH240741   1.934   1.418   0.981
13599TIP3    H140742   1.915   1.511   0.981
13599TIP3    H240743   1.851   1.376   0.961
13600TIP3   OH240744   5.166   3.489   5.776
13600TIP3    H140745   5.222   3.426   5.731
13600TIP3    H240746   5.080   3.480   5.735
13601TIP3   OH240747   3.502   6.877   1.813
13601TIP3    H140748   3.512   6.790   1.851
13601TIP3    H240749   3.466   6.861   1.726
13602TIP3   OH240750   4.744   7.354   1.286
13602TIP3    H140751   4.749   7.324   1.195
13602TIP3    H240752   4.683   7.427   1.285
13603TIP3   OH240753   3.028   4.916   5.852
13603TIP3    H140754   3.053   4.833   5.812
13603TIP3    H240755   2.972   4.958   5.787
13604TIP3   OH240756   8.004   0.719   2.149
13604TIP3    H140757   7.992   0.732   2.243
13604TIP3    H240758   7.921   0.683   2.119
13605TIP3   OH240759   4.518   0.478   5.530
13605TIP3    H140760   4.467   0.405   5.565
13605TIP3    H240761   4.558   0.518   5.608
13606TIP3   OH240762   3.681   7.371   4.711
13606TIP3    H140763   3.669   7.297   4.771
13606TIP3    H240764   3.764   7.410   4.737
13607TIP3   OH240765   6.928   1.080   3.268
13607TIP3    H140766   6.849   1.066   3.320
13607TIP3    H240767   6.936   1.003   3.213
13608TIP3   OH240768   1.762   5.730   6.190
13608TIP3    H140769   1.673   5.747   6.223
13608TIP3    H240770   1.790   5.652   6.238
13609TIP3   OH240771   5.451   5.747   0.736
13609TIP3    H140772   5.392   5.708   0.671
13609TIP3    H240773   5.456   5.682   0.806
13610TIP3   OH240774   5.753   5.996   0.077
13610TIP3    H140775   5.678   6.002   0.018
13610TIP3    H240776   5.780   6.086   0.091
13611TIP3   OH240777   3.075   4.470   3.232
13611TIP3    H140778   3.084   4.489   3.139
13611TIP3    H240779   3.016   4.537   3.266
13612TIP3   OH240780   7.497   3.390   3.325
13612TIP3    H140781   7.537   3.415   3.242
13612TIP3    H240782   7.564   3.408   3.391
13613TIP3   OH240783   0.191   7.806   5.622
13613TIP3    H140784   0.243   7.772   5.550
13613TIP3    H240785   0.102   7.809   5.589
13614TIP3   OH240786   1.744   5.212   4.384
13614TIP3    H140787   1.693   5.253   4.454
13614TIP3    H240788   1.770   5.285   4.327
13615TIP3   OH240789   4.907   6.745   4.457
13615TIP3    H140790   4.921   6.771   4.548
13615TIP3    H240791   4.812   6.748   4.446
13616TIP3   OH240792   5.972   4.313   4.503
13616TIP3    H140793   5.977   4.222   4.473
13616TIP3    H240794   6.062   4.346   4.494
13617TIP3   OH240795   2.789   0.778   4.205
13617TIP3    H140796   2.720   0.716   4.181
13617TIP3    H240797   2.813   0.752   4.294
13618TIP3   OH240798   2.733   3.349   4.493
13618TIP3    H140799   2.788   3.422   4.521
13618TIP3    H240800   2.786   3.300   4.430
13619TIP3   OH240801   2.066   7.445   2.168
13619TIP3    H140802   2.072   7.530   2.125
13619TIP3    H240803   1.975   7.438   2.195
13620TIP3   OH240804   4.297   1.956   0.725
13620TIP3    H140805   4.259   1.868   0.726
13620TIP3    H240806   4.316   1.975   0.817
13621TIP3   OH240807   2.677   6.658   0.835
13621TIP3    H140808   2.670   6.729   0.771
13621TIP3    H240809   2.588   6.645   0.866
13622TIP3   OH240810   4.901   1.261   6.654
13622TIP3    H140811   4.811   1.227   6.649
13622TIP3    H240812   4.916   1.273   6.747
13623TIP3   OH240813   5.248   0.697   5.577
13623TIP3    H140814   5.284   0.609   5.578
13623TIP3    H240815   5.191   0.699   5.500
13624TIP3   OH240816   2.876   1.616   3.291
13624TIP3    H140817   2.851   1.695   3.242
13624TIP3    H240818   2.971   1.626   3.305
13625TIP3   OH240819   6.356   4.280   6.151
13625TIP3    H140820   6.379   4.373   6.152
13625TIP3    H240821   6.325   4.265   6.061
13626TIP3   OH240822   1.920   0.034   1.613
13626TIP3    H140823   1.844  -0.020   1.590
13626TIP3    H240824   1.896   0.074   1.697
13627TIP3   OH240825   7.524   0.051   4.596
13627TIP3    H140826   7.533   0.095   4.681
13627TIP3    H240827   7.589   0.094   4.541
13628TIP3   OH240828   5.360   7.695   1.111
13628TIP3    H140829   5.426   7.681   1.179
13628TIP3    H240830   5.371   7.619   1.053
13629TIP3   OH240831   7.964   0.003   1.937
13629TIP3    H140832   8.000   0.031   1.853
13629TIP3    H240833   8.040  -0.001   1.995
13630TIP3   OH240834   1.237   1.091   5.720
13630TIP3    H140835   1.236   1.084   5.815
13630TIP3    H240836   1.330   1.090   5.696
13631TIP3   OH240837   0.556   6.966   5.106
13631TIP3    H140838   0.611   6.920   5.169
13631TIP3    H240839   0.595   6.947   5.021
13632TIP3   OH240840   5.448   2.655   5.327
13632TIP3    H140841   5.464   2.722   5.260
13632TIP3    H240842   5.382   2.694   5.384
13633TIP3   OH240843   5.478   7.175   3.415
13633TIP3    H140844   5.417   7.243   3.444
13633TIP3    H240845   5.564   7.217   3.420
13634TIP3   OH240846   0.887   2.417   3.005
13634TIP3    H140847   0.794   2.429   3.024
13634TIP3    H240848   0.890   2.383   2.916
13635TIP3   OH240849   7.946   6.951   0.214
13635TIP3    H140850   7.869   6.893   0.211
13635TIP3    H240851   7.911   7.035   0.244
13636TIP3   OH240852   6.694   6.734   3.075
13636TIP3    H140853   6.705   6.725   3.170
13636TIP3    H240854   6.750   6.808   3.051
13637TIP3   OH240855   1.469   2.167   1.131
13637TIP3    H140856   1.375   2.179   1.119
13637TIP3    H240857   1.508   2.202   1.051
13638TIP3   OH240858   4.273   2.943   1.300
13638TIP3    H140859   4.237   2.888   1.230
13638TIP3    H240860   4.210   3.014   1.309
13639TIP3   OH240861   6.141   5.103   5.288
13639TIP3    H140862   6.134   5.184   5.238
13639TIP3    H240863   6.068   5.049   5.256
13640TIP3   OH240864   1.856   5.321   6.745
13640TIP3    H140865   1.767   5.356   6.738
13640TIP3    H240866   1.909   5.396   6.773
13641TIP3   OH240867   7.033   7.191   2.443
13641TIP3    H140868   6.975   7.258   2.406
13641TIP3    H240869   6.992   7.108   2.419
13642TIP3   OH240870   8.319   7.695   1.822
13642TIP3    H140871   8.314   7.777   1.774
13642TIP3    H240872   8.230   7.661   1.820
13643TIP3   OH240873   4.873   4.072   1.149
13643TIP3    H140874   4.783   4.065   1.182
13643TIP3    H240875   4.921   4.003   1.195
13644TIP3   OH240876   5.985   4.317   1.316
13644TIP3    H140877   5.937   4.280   1.390
13644TIP3    H240878   6.012   4.240   1.264
13645TIP3   OH240879   6.781   3.635   1.197
13645TIP3    H140880   6.876   3.622   1.202
13645TIP3    H240881   6.753   3.642   1.288
13646TIP3   OH240882   6.207   1.333   6.760
13646TIP3    H140883   6.160   1.321   6.842
13646TIP3    H240884   6.145   1.307   6.692
13647TIP3   OH240885   0.340   3.927   0.627
13647TIP3    H140886   0.260   3.922   0.576
13647TIP3    H240887   0.389   3.848   0.603
13648TIP3   OH240888   7.427   0.236   1.878
13648TIP3    H140889   7.480   0.191   1.812
13648TIP3    H240890   7.490   0.260   1.946
13649TIP3   OH240891   0.805   5.358   0.936
13649TIP3    H140892   0.766   5.365   1.024
13649TIP3    H240893   0.732   5.373   0.877
13650TIP3   OH240894   0.246   3.166   1.603
13650TIP3    H140895   0.328   3.208   1.630
13650TIP3    H240896   0.189   3.177   1.679
13651TIP3   OH240897   3.192   6.017   3.969
13651TIP3    H140898   3.207   6.109   3.990
13651TIP3    H240899   3.166   5.978   4.053
13652TIP3   OH240900   4.730   5.336   4.546
13652TIP3    H140901   4.689   5.398   4.607
13652TIP3    H240902   4.797   5.292   4.597
13653TIP3   OH240903   0.479   6.103   4.805
13653TIP3    H140904   0.517   6.130   4.889
13653TIP3    H240905   0.494   6.008   4.802
13654TIP3   OH240906   1.028   2.959   2.984
13654TIP3    H140907   0.948   2.906   2.985
13654TIP3    H240908   1.012   3.027   3.050
13655TIP3   OH240909   3.797   5.602   4.167
13655TIP3    H140910   3.835   5.639   4.087
13655TIP3    H240911   3.831   5.658   4.237
13656TIP3   OH240912   6.247   7.437   3.023
13656TIP3    H140913   6.219   7.371   2.960
13656TIP3    H240914   6.336   7.411   3.047
13657TIP3   OH240915   6.085   5.635   5.669
13657TIP3    H140916   6.117   5.561   5.720
13657TIP3    H240917   6.070   5.704   5.733
13658TIP3   OH240918   5.809   1.224   0.721
13658TIP3    H140919   5.764   1.251   0.801
13658TIP3    H240920   5.830   1.306   0.676
13659TIP3   OH240921   1.138   7.264   0.869
13659TIP3    H140922   1.096   7.268   0.783
13659TIP3    H240923   1.169   7.353   0.885
13660TIP3   OH240924   4.392   4.612   1.009
13660TIP3    H140925   4.339   4.651   1.078
13660TIP3    H240926   4.421   4.686   0.956
13661TIP3   OH240927   7.689   4.335   1.159
13661TIP3    H140928   7.672   4.323   1.252
13661TIP3    H240929   7.603   4.355   1.121
13662TIP3   OH240930   5.438   4.276   1.714
13662TIP3    H140931   5.434   4.239   1.802
13662TIP3    H240932   5.396   4.209   1.659
13663TIP3   OH240933   4.495   4.389   4.184
13663TIP3    H140934   4.460   4.467   4.227
13663TIP3    H240935   4.590   4.399   4.191
13664TIP3   OH240936   5.686   6.902   1.258
13664TIP3    H140937   5.776   6.887   1.232
13664TIP3    H240938   5.639   6.916   1.176
13665TIP3   OH240939   4.225   3.525   2.682
13665TIP3    H140940   4.242   3.462   2.752
13665TIP3    H240941   4.130   3.521   2.669
13666TIP3   OH240942   6.552   5.178   4.590
13666TIP3    H140943   6.473   5.191   4.539
13666TIP3    H240944   6.610   5.127   4.533
13667TIP3   OH240945   6.950   0.302   6.657
13667TIP3    H140946   7.009   0.308   6.582
13667TIP3    H240947   6.892   0.377   6.648
13668TIP3   OH240948   7.132   4.378   5.020
13668TIP3    H140949   7.118   4.468   4.988
13668TIP3    H240950   7.142   4.389   5.115
13669TIP3   OH240951   4.621   5.646   4.968
13669TIP3    H140952   4.601   5.740   4.969
13669TIP3    H240953   4.536   5.603   4.956
13670TIP3   OH240954   6.132   4.056   3.018
13670TIP3    H140955   6.216   4.100   3.004
13670TIP3    H240956   6.117   4.063   3.113
13671TIP3   OH240957   1.547   0.283   4.664
13671TIP3    H140958   1.501   0.208   4.625
13671TIP3    H240959   1.523   0.279   4.757
13672TIP3   OH240960   1.865   0.329   1.106
13672TIP3    H140961   1.926   0.308   1.176
13672TIP3    H240962   1.908   0.300   1.026
13673TIP3   OH240963   3.293   2.744   2.066
13673TIP3    H140964   3.240   2.794   2.004
13673TIP3    H240965   3.377   2.791   2.069
13674TIP3   OH240966   6.088   4.564   3.567
13674TIP3    H140967   6.155   4.623   3.602
13674TIP3    H240968   6.011   4.619   3.556
13675TIP3   OH240969   2.872   6.979   1.135
13675TIP3    H140970   2.939   7.028   1.182
13675TIP3    H240971   2.828   7.044   1.080
13676TIP3   OH240972   6.688   2.388   3.407
13676TIP3    H140973   6.609   2.335   3.418
13676TIP3    H240974   6.693   2.440   3.488
13677TIP3   OH240975   4.370   0.388   1.400
13677TIP3    H140976   4.424   0.426   1.330
13677TIP3    H240977   4.404   0.300   1.412
13678TIP3   OH240978   5.083   7.472   5.260
13678TIP3    H140979   5.043   7.419   5.191
13678TIP3    H240980   5.021   7.465   5.334
13679TIP3   OH240981   3.180   7.281   2.968
13679TIP3    H140982   3.101   7.327   2.999
13679TIP3    H240983   3.153   7.190   2.962
13680TIP3   OH240984   5.781   5.122   4.981
13680TIP3    H140985   5.731   5.147   4.904
13680TIP3    H240986   5.867   5.096   4.947
13681TIP3   OH240987   6.326   7.080   0.512
13681TIP3    H140988   6.255   7.123   0.560
13681TIP3    H240989   6.354   7.145   0.447
13682TIP3   OH240990   1.901   5.370   3.723
13682TIP3    H140991   1.912   5.438   3.790
13682TIP3    H240992   1.989   5.341   3.703
13683TIP3   OH240993   3.976   4.920   3.582
13683TIP3    H140994   3.978   4.925   3.677
13683TIP3    H240995   4.040   4.853   3.559
13684TIP3   OH240996   0.618   3.490   3.124
13684TIP3    H140997   0.651   3.576   3.150
13684TIP3    H240998   0.687   3.453   3.069
13685TIP3   OH240999   2.354   4.007   5.397
13685TIP3    H141000   2.436   4.055   5.409
13685TIP3    H241001   2.376   3.917   5.418
13686TIP3   OH241002   6.816   0.964   4.949
13686TIP3    H141003   6.830   1.037   5.008
13686TIP3    H241004   6.812   1.004   4.862
13687TIP3   OH241005   1.990   2.149   0.355
13687TIP3    H141006   1.963   2.118   0.269
13687TIP3    H241007   1.984   2.073   0.412
13688TIP3   OH241008   0.779   5.008   5.762
13688TIP3    H141009   0.704   5.042   5.811
13688TIP3    H241010   0.850   5.006   5.827
13689TIP3   OH241011   4.849   1.518   4.356
13689TIP3    H141012   4.767   1.519   4.307
13689TIP3    H241013   4.826   1.554   4.442
13690TIP3   OH241014   1.925   5.627   6.634
13690TIP3    H141015   1.926   5.624   6.729
13690TIP3    H241016   2.017   5.621   6.608
13691TIP3   OH241017   1.384   1.384   2.782
13691TIP3    H141018   1.479   1.374   2.780
13691TIP3    H241019   1.369   1.468   2.825
13692TIP3   OH241020   6.228   3.896   2.609
13692TIP3    H141021   6.191   3.975   2.648
13692TIP3    H241022   6.270   3.851   2.682
13693TIP3   OH241023   4.121   5.830   6.029
13693TIP3    H141024   4.126   5.815   6.123
13693TIP3    H241025   4.080   5.751   5.994
13694TIP3   OH241026   5.129   1.791   1.074
13694TIP3    H141027   5.123   1.882   1.047
13694TIP3    H241028   5.046   1.752   1.046
13695TIP3   OH241029   6.752   3.332   3.425
13695TIP3    H141030   6.667   3.368   3.398
13695TIP3    H241031   6.735   3.238   3.435
13696TIP3   OH241032   3.667   2.563   6.546
13696TIP3    H141033   3.616   2.633   6.504
13696TIP3    H241034   3.648   2.485   6.494
13697TIP3   OH241035   6.224   7.049   4.004
13697TIP3    H141036   6.208   7.033   3.911
13697TIP3    H241037   6.156   7.111   4.030
13698TIP3   OH241038   6.921   0.420   1.138
13698TIP3    H141039   7.007   0.447   1.170
13698TIP3    H241040   6.860   0.485   1.174
13699TIP3   OH241041   7.924   1.577   3.429
13699TIP3    H141042   7.890   1.517   3.363
13699TIP3    H241043   7.883   1.548   3.511
13700TIP3   OH241044   5.013   0.524   5.836
13700TIP3    H141045   4.971   0.588   5.777
13700TIP3    H241046   5.049   0.577   5.907
13701TIP3   OH241047   5.399   2.349   2.643
13701TIP3    H141048   5.495   2.353   2.648
13701TIP3    H241049   5.382   2.278   2.581
13702TIP3   OH241050   3.219   1.370   2.278
13702TIP3    H141051   3.274   1.331   2.345
13702TIP3    H241052   3.150   1.305   2.262
13703TIP3   OH241053   4.684   4.644   2.690
13703TIP3    H141054   4.699   4.726   2.737
13703TIP3    H241055   4.734   4.653   2.608
13704TIP3   OH241056   3.748   7.320   6.276
13704TIP3    H141057   3.821   7.325   6.215
13704TIP3    H241058   3.684   7.382   6.243
13705TIP3   OH241059   6.874   6.994   2.349
13705TIP3    H141060   6.813   6.989   2.423
13705TIP3    H241061   6.819   7.004   2.272
13706TIP3   OH241062   2.946   3.357   0.173
13706TIP3    H141063   2.901   3.374   0.090
13706TIP3    H241064   2.960   3.444   0.211
13707TIP3   OH241065   6.924   0.081   0.832
13707TIP3    H141066   6.941   0.146   0.764
13707TIP3    H241067   6.886   0.131   0.905
13708TIP3   OH241068   2.032   0.218   2.232
13708TIP3    H141069   1.975   0.283   2.191
13708TIP3    H241070   2.013   0.137   2.185
13709TIP3   OH241071   1.644   4.545   4.461
13709TIP3    H141072   1.553   4.529   4.486
13709TIP3    H241073   1.673   4.616   4.519
13710TIP3   OH241074   1.790   0.485   4.846
13710TIP3    H141075   1.848   0.560   4.856
13710TIP3    H241076   1.846   0.409   4.860
13711TIP3   OH241077   0.992   0.525   1.612
13711TIP3    H141078   0.930   0.464   1.652
13711TIP3    H241079   1.060   0.469   1.574
13712TIP3   OH241080   1.618   6.564   5.782
13712TIP3    H141081   1.548   6.624   5.804
13712TIP3    H241082   1.574   6.481   5.763
13713TIP3   OH241083   3.085   0.312   1.520
13713TIP3    H141084   3.153   0.256   1.556
13713TIP3    H241085   3.060   0.270   1.437
13714TIP3   OH241086   4.138   7.763   5.558
13714TIP3    H141087   4.043   7.766   5.568
13714TIP3    H241088   4.171   7.774   5.648
13715TIP3   OH241089   5.338   0.032   2.298
13715TIP3    H141090   5.258   0.048   2.348
13715TIP3    H241091   5.387  -0.032   2.350
13716TIP3   OH241092   7.045   6.449   1.823
13716TIP3    H141093   7.030   6.356   1.839
13716TIP3    H241094   7.074   6.454   1.732
13717TIP3   OH241095   1.126   6.107   2.951
13717TIP3    H141096   1.145   6.199   2.929
13717TIP3    H241097   1.187   6.057   2.897
13718TIP3   OH241098   7.367   6.060   5.355
13718TIP3    H141099   7.438   6.025   5.302
13718TIP3    H241100   7.304   6.093   5.291
13719TIP3   OH241101   3.568   6.538   2.788
13719TIP3    H141102   3.511   6.471   2.827
13719TIP3    H241103   3.654   6.522   2.827
13720TIP3   OH241104   7.378   5.205   5.564
13720TIP3    H141105   7.362   5.271   5.631
13720TIP3    H241106   7.317   5.227   5.494
13721TIP3   OH241107   1.915   3.901   5.663
13721TIP3    H141108   1.912   3.982   5.714
13721TIP3    H241109   1.826   3.865   5.670
13722TIP3   OH241110   6.686   7.681   3.821
13722TIP3    H141111   6.594   7.671   3.845
13722TIP3    H241112   6.710   7.768   3.852
13723TIP3   OH241113   1.897   4.162   1.671
13723TIP3    H141114   1.927   4.136   1.758
13723TIP3    H241115   1.858   4.249   1.684
13724TIP3   OH241116   1.220   0.595   0.465
13724TIP3    H141117   1.276   0.578   0.541
13724TIP3    H241118   1.145   0.643   0.501
13725TIP3   OH241119   6.327   0.157   6.428
13725TIP3    H141120   6.234   0.139   6.415
13725TIP3    H241121   6.370   0.117   6.352
13726TIP3   OH241122   3.089   5.650   4.190
13726TIP3    H141123   3.116   5.572   4.239
13726TIP3    H241124   3.020   5.618   4.132
13727TIP3   OH241125   3.041   1.112   5.091
13727TIP3    H141126   2.964   1.102   5.147
13727TIP3    H241127   3.113   1.076   5.142
13728TIP3   OH241128   8.084   6.689   1.259
13728TIP3    H141129   8.017   6.708   1.193
13728TIP3    H241130   8.122   6.774   1.281
13729TIP3   OH241131   5.010   0.127   0.598
13729TIP3    H141132   5.039   0.041   0.629
13729TIP3    H241133   5.055   0.139   0.515
13730TIP3   OH241134   0.307   0.983   3.956
13730TIP3    H141135   0.251   0.951   3.885
13730TIP3    H241136   0.246   1.010   4.025
13731TIP3   OH241137   3.546   7.696   5.823
13731TIP3    H141138   3.581   7.655   5.902
13731TIP3    H241139   3.520   7.623   5.767
13732TIP3   OH241140   0.717   6.029   3.834
13732TIP3    H141141   0.634   6.042   3.881
13732TIP3    H241142   0.699   6.059   3.745
13733TIP3   OH241143   8.027   1.596   6.270
13733TIP3    H141144   7.942   1.555   6.284
13733TIP3    H241145   8.085   1.524   6.244
13734TIP3   OH241146   5.662   1.530   4.382
13734TIP3    H141147   5.741   1.530   4.436
13734TIP3    H241148   5.610   1.457   4.417
13735TIP3   OH241149   2.620   6.391   2.656
13735TIP3    H141150   2.707   6.353   2.660
13735TIP3    H241151   2.630   6.467   2.597
13736TIP3   OH241152   4.011   2.931   4.870
13736TIP3    H141153   4.020   2.994   4.799
13736TIP3    H241154   3.926   2.950   4.909
13737TIP3   OH241155   3.008   7.004   0.091
13737TIP3    H141156   2.921   7.006   0.050
13737TIP3    H241157   3.065   6.966   0.024
13738TIP3   OH241158   8.200   0.495   4.768
13738TIP3    H141159   8.296   0.497   4.767
13738TIP3    H241160   8.175   0.479   4.676
13739TIP3   OH241161   4.150   5.417   2.456
13739TIP3    H141162   4.063   5.417   2.418
13739TIP3    H241163   4.204   5.464   2.392
13740TIP3   OH241164   0.023   4.305   5.490
13740TIP3    H141165   0.099   4.301   5.548
13740TIP3    H241166   0.049   4.257   5.412
13741TIP3   OH241167   3.049   1.192   1.802
13741TIP3    H141168   2.973   1.229   1.757
13741TIP3    H241169   3.020   1.105   1.829
13742TIP3   OH241170   7.376   3.547   5.395
13742TIP3    H141171   7.446   3.535   5.330
13742TIP3    H241172   7.411   3.609   5.457
13743TIP3   OH241173   8.252   2.071   3.976
13743TIP3    H141174   8.197   2.115   3.911
13743TIP3    H241175   8.190   2.029   4.035
13744TIP3   OH241176   5.298   6.091   3.907
13744TIP3    H141177   5.230   6.108   3.972
13744TIP3    H241178   5.354   6.025   3.948
13745TIP3   OH241179   6.322   7.495   3.392
13745TIP3    H141180   6.377   7.513   3.315
13745TIP3    H241181   6.383   7.493   3.465
13746TIP3   OH241182   4.965   7.449   5.532
13746TIP3    H141183   4.940   7.486   5.617
13746TIP3    H241184   5.060   7.459   5.528
13747TIP3   OH241185   4.593   1.658   0.336
13747TIP3    H141186   4.614   1.581   0.390
13747TIP3    H241187   4.679   1.692   0.309
13748TIP3   OH241188   3.517   7.687   2.154
13748TIP3    H141189   3.434   7.653   2.121
13748TIP3    H241190   3.518   7.778   2.124
13749TIP3   OH241191   7.630   6.331   0.665
13749TIP3    H141192   7.644   6.277   0.742
13749TIP3    H241193   7.705   6.391   0.663
13750TIP3   OH241194   5.989   6.726   5.711
13750TIP3    H141195   5.933   6.731   5.633
13750TIP3    H241196   5.998   6.632   5.728
13751TIP3   OH241197   3.180   6.066   0.627
13751TIP3    H141198   3.187   5.971   0.628
13751TIP3    H241199   3.098   6.084   0.581
13752TIP3   OH241200   2.307   7.696   2.756
13752TIP3    H141201   2.292   7.605   2.782
13752TIP3    H241202   2.239   7.746   2.802
13753TIP3   OH241203   0.462   1.986   3.430
13753TIP3    H141204   0.400   1.946   3.491
13753TIP3    H241205   0.537   2.010   3.485
13754TIP3   OH241206   3.474   6.520   5.038
13754TIP3    H141207   3.397   6.569   5.069
13754TIP3    H241208   3.495   6.461   5.110
13755TIP3   OH241209   3.634   1.035   1.181
13755TIP3    H141210   3.642   0.940   1.174
13755TIP3    H241211   3.555   1.057   1.132
13756TIP3   OH241212   1.960   6.821   1.480
13756TIP3    H141213   1.968   6.916   1.490
13756TIP3    H241214   1.881   6.809   1.427
13757TIP3   OH241215   6.466   5.849   0.322
13757TIP3    H141216   6.390   5.902   0.300
13757TIP3    H241217   6.504   5.892   0.399
13758TIP3   OH241218   4.376   7.420   1.172
13758TIP3    H141219   4.412   7.508   1.176
13758TIP3    H241220   4.433   7.373   1.111
13759TIP3   OH241221   2.475   0.515   5.522
13759TIP3    H141222   2.443   0.588   5.575
13759TIP3    H241223   2.457   0.437   5.575
13760TIP3   OH241224   1.392   1.348   6.595
13760TIP3    H141225   1.463   1.284   6.604
13760TIP3    H241226   1.358   1.358   6.684
13761TIP3   OH241227   0.614   3.483   5.148
13761TIP3    H141228   0.553   3.411   5.132
13761TIP3    H241229   0.577   3.557   5.101
13762TIP3   OH241230   3.319   3.269   6.336
13762TIP3    H141231   3.357   3.330   6.273
13762TIP3    H241232   3.394   3.215   6.364
13763TIP3   OH241233   6.094   2.124   3.387
13763TIP3    H141234   6.126   2.142   3.476
13763TIP3    H241235   6.173   2.116   3.334
13764TIP3   OH241236   2.384   4.734   3.624
13764TIP3    H141237   2.465   4.697   3.658
13764TIP3    H241238   2.315   4.692   3.677
13765TIP3   OH241239   4.749   3.881   4.338
13765TIP3    H141240   4.676   3.927   4.296
13765TIP3    H241241   4.823   3.892   4.277
13766TIP3   OH241242   8.225   6.589   5.776
13766TIP3    H141243   8.134   6.602   5.747
13766TIP3    H241244   8.274   6.581   5.694
13767TIP3   OH241245   1.496   1.625   1.295
13767TIP3    H141246   1.433   1.677   1.244
13767TIP3    H241247   1.444   1.553   1.331
13768TIP3   OH241248   1.371   4.202   5.055
13768TIP3    H141249   1.299   4.257   5.088
13768TIP3    H241250   1.434   4.265   5.020
13769TIP3   OH241251   3.635   7.023   6.044
13769TIP3    H141252   3.618   7.109   6.004
13769TIP3    H241253   3.549   6.991   6.070
13770TIP3   OH241254   6.008   0.126   0.932
13770TIP3    H141255   6.039   0.056   0.989
13770TIP3    H241256   5.966   0.189   0.991
13771TIP3   OH241257   6.191   7.709   1.211
13771TIP3    H141258   6.182   7.644   1.281
13771TIP3    H241259   6.270   7.758   1.235
13772TIP3   OH241260   4.712   4.222   2.170
13772TIP3    H141261   4.723   4.128   2.155
13772TIP3    H241262   4.670   4.254   2.090
13773TIP3   OH241263   3.035   4.920   2.039
13773TIP3    H141264   2.960   4.862   2.056
13773TIP3    H241265   2.996   4.997   1.998
13774TIP3   OH241266   2.375   1.534   3.479
13774TIP3    H141267   2.412   1.488   3.554
13774TIP3    H241268   2.442   1.597   3.454
13775TIP3   OH241269   0.882   6.590   3.540
13775TIP3    H141270   0.968   6.586   3.583
13775TIP3    H241271   0.840   6.507   3.562
13776TIP3   OH241272   0.300   0.889   3.472
13776TIP3    H141273   0.250   0.892   3.553
13776TIP3    H241274   0.367   0.957   3.482
13777TIP3   OH241275   1.115   6.719   5.141
13777TIP3    H141276   1.130   6.658   5.214
13777TIP3    H241277   1.201   6.733   5.103
13778TIP3   OH241278   6.987   7.720   6.047
13778TIP3    H141279   6.946   7.645   6.090
13778TIP3    H241280   7.068   7.734   6.097
13779TIP3   OH241281   8.261   2.656   5.776
13779TIP3    H141282   8.235   2.673   5.685
13779TIP3    H241283   8.341   2.706   5.788
13780TIP3   OH241284   2.579   0.595   1.350
13780TIP3    H141285   2.524   0.593   1.428
13780TIP3    H241286   2.519   0.620   1.279
13781TIP3   OH241287   7.413   2.301   2.343
13781TIP3    H141288   7.488   2.281   2.399
13781TIP3    H241289   7.410   2.397   2.340
13782TIP3   OH241290   8.215   5.369   3.475
13782TIP3    H141291   8.262   5.442   3.517
13782TIP3    H241292   8.282   5.302   3.462
13783TIP3   OH241293   5.114   2.177   1.148
13783TIP3    H141294   5.118   2.272   1.140
13783TIP3    H241295   5.076   2.161   1.234
13784TIP3   OH241296   5.593   0.087   0.130
13784TIP3    H141297   5.507   0.045   0.122
13784TIP3    H241298   5.619   0.072   0.221
13785TIP3   OH241299   0.150   2.833   4.061
13785TIP3    H141300   0.143   2.891   4.137
13785TIP3    H241301   0.062   2.833   4.023
13786TIP3   OH241302   2.287   7.305   6.560
13786TIP3    H141303   2.256   7.371   6.622
13786TIP3    H241304   2.305   7.228   6.614
13787TIP3   OH241305   2.394   0.383   1.028
13787TIP3    H141306   2.322   0.370   0.966
13787TIP3    H241307   2.457   0.315   1.006
13788TIP3   OH241308   3.929   5.393   2.270
13788TIP3    H141309   3.894   5.395   2.181
13788TIP3    H241310   3.926   5.300   2.293
13789TIP3   OH241311   1.139   1.557   6.672
13789TIP3    H141312   1.202   1.593   6.735
13789TIP3    H241313   1.054   1.584   6.706
13790TIP3   OH241314   8.133   0.281   1.172
13790TIP3    H141315   8.062   0.344   1.181
13790TIP3    H241316   8.130   0.228   1.252
13791TIP3   OH241317   0.383   0.064   0.918
13791TIP3    H141318   0.309   0.064   0.978
13791TIP3    H241319   0.395  -0.028   0.893
13792TIP3   OH241320   3.114   1.483   3.474
13792TIP3    H141321   3.054   1.556   3.492
13792TIP3    H241322   3.197   1.510   3.514
13793TIP3   OH241323   0.734   5.703   0.487
13793TIP3    H141324   0.662   5.643   0.469
13793TIP3    H241325   0.700   5.761   0.556
13794TIP3   OH241326   0.159   1.146   5.958
13794TIP3    H141327   0.246   1.165   5.992
13794TIP3    H241328   0.146   1.210   5.888
13795TIP3   OH241329   4.135   3.605   2.996
13795TIP3    H141330   4.055   3.557   2.976
13795TIP3    H241331   4.152   3.657   2.918
13796TIP3   OH241332   6.167   7.237   2.842
13796TIP3    H141333   6.140   7.285   2.764
13796TIP3    H241334   6.086   7.200   2.878
13797TIP3   OH241335   1.456   3.938   0.799
13797TIP3    H141336   1.472   3.857   0.750
13797TIP3    H241337   1.372   3.969   0.767
13798TIP3   OH241338   6.562   0.283   2.762
13798TIP3    H141339   6.629   0.341   2.797
13798TIP3    H241340   6.553   0.213   2.827
13799TIP3   OH241341   3.861   7.010   2.050
13799TIP3    H141342   3.808   7.043   2.122
13799TIP3    H241343   3.810   7.031   1.971
13800TIP3   OH241344   1.467   0.897   6.547
13800TIP3    H141345   1.378   0.885   6.579
13800TIP3    H241346   1.473   0.841   6.470
13801TIP3   OH241347   7.788   3.891   4.213
13801TIP3    H141348   7.871   3.939   4.215
13801TIP3    H241349   7.729   3.944   4.267
13802TIP3   OH241350   0.303   1.495   0.375
13802TIP3    H141351   0.258   1.570   0.336
13802TIP3    H241352   0.396   1.515   0.364
13803TIP3   OH241353   1.990   3.203   3.270
13803TIP3    H141354   1.907   3.173   3.307
13803TIP3    H241355   1.964   3.261   3.198
13804TIP3   OH241356   5.686   0.032   3.362
13804TIP3    H141357   5.665  -0.058   3.385
13804TIP3    H241358   5.623   0.054   3.293
13805TIP3   OH241359   6.485   2.456   1.068
13805TIP3    H141360   6.570   2.466   1.110
13805TIP3    H241361   6.505   2.432   0.978
13806TIP3   OH241362   6.179   1.689   4.279
13806TIP3    H141363   6.127   1.712   4.356
13806TIP3    H241364   6.140   1.740   4.208
13807TIP3   OH241365   0.614   5.564   6.717
13807TIP3    H141366   0.548   5.528   6.659
13807TIP3    H241367   0.674   5.491   6.734
13808TIP3   OH241368   4.670   2.694   1.112
13808TIP3    H141369   4.698   2.686   1.204
13808TIP3    H241370   4.585   2.650   1.109
13809TIP3   OH241371   0.193   0.273   5.405
13809TIP3    H141372   0.195   0.270   5.501
13809TIP3    H241373   0.148   0.193   5.379
13810TIP3   OH241374   6.153   5.551   0.374
13810TIP3    H141375   6.178   5.600   0.296
13810TIP3    H241376   6.225   5.488   0.387
13811TIP3   OH241377   1.004   0.675   1.824
13811TIP3    H141378   1.040   0.614   1.888
13811TIP3    H241379   1.000   0.626   1.743
13812TIP3   OH241380   2.706   7.351   3.373
13812TIP3    H141381   2.768   7.308   3.432
13812TIP3    H241382   2.706   7.296   3.294
13813TIP3   OH241383   0.871   4.578   3.277
13813TIP3    H141384   0.860   4.493   3.234
13813TIP3    H241385   0.896   4.555   3.367
13814TIP3   OH241386   5.216   0.984   3.358
13814TIP3    H141387   5.189   1.020   3.442
13814TIP3    H241388   5.312   0.980   3.364
13815TIP3   OH241389   6.850   2.543   3.238
13815TIP3    H141390   6.788   2.479   3.272
13815TIP3    H241391   6.798   2.622   3.225
13816TIP3   OH241392   3.093   3.816   4.789
13816TIP3    H141393   3.133   3.741   4.745
13816TIP3    H241394   2.999   3.805   4.776
13817TIP3   OH241395   3.855  -0.014   4.909
13817TIP3    H141396   3.843   0.032   4.991
13817TIP3    H241397   3.786   0.021   4.852
13818TIP3   OH241398   0.957   1.760   1.885
13818TIP3    H141399   1.012   1.681   1.882
13818TIP3    H241400   0.965   1.797   1.797
13819TIP3   OH241401   1.136   4.073   1.705
13819TIP3    H141402   1.176   4.021   1.775
13819TIP3    H241403   1.053   4.102   1.741
13820TIP3   OH241404   3.960   0.914   1.026
13820TIP3    H141405   3.925   0.984   1.080
13820TIP3    H241406   3.884   0.860   1.005
13821TIP3   OH241407   7.608   2.103   3.767
13821TIP3    H141408   7.541   2.114   3.700
13821TIP3    H241409   7.666   2.178   3.756
13822TIP3   OH241410   4.423   5.975   1.929
13822TIP3    H141411   4.482   6.031   1.978
13822TIP3    H241412   4.371   5.930   1.995
13823TIP3   OH241413   4.573   6.548   3.308
13823TIP3    H141414   4.564   6.599   3.389
13823TIP3    H241415   4.497   6.575   3.255
13824TIP3   OH241416   1.876   7.161   4.555
13824TIP3    H141417   1.931   7.085   4.536
13824TIP3    H241418   1.936   7.235   4.549
13825TIP3   OH241419   6.950   3.557   6.649
13825TIP3    H141420   6.903   3.474   6.661
13825TIP3    H241421   7.042   3.533   6.653
13826TIP3   OH241422   1.923   7.773   2.146
13826TIP3    H141423   1.938   7.700   2.086
13826TIP3    H241424   1.991   7.836   2.124
13827TIP3   OH241425   5.501   4.908   6.476
13827TIP3    H141426   5.506   4.913   6.571
13827TIP3    H241427   5.567   4.843   6.451
13828TIP3   OH241428   4.919   6.726   5.581
13828TIP3    H141429   4.858   6.699   5.513
13828TIP3    H241430   4.992   6.665   5.574
13829TIP3   OH241431   2.412   0.224   1.376
13829TIP3    H141432   2.371   0.244   1.460
13829TIP3    H241433   2.446   0.135   1.386
13830TIP3   OH241434   7.932   7.502   4.456
13830TIP3    H141435   7.842   7.492   4.427
13830TIP3    H241436   7.954   7.592   4.433
13831TIP3   OH241437   7.952   6.504   4.472
13831TIP3    H141438   7.898   6.446   4.527
13831TIP3    H241439   7.892   6.534   4.404
13832TIP3   OH241440   8.029   2.521   2.787
13832TIP3    H141441   8.044   2.427   2.797
13832TIP3    H241442   8.031   2.536   2.693
13833TIP3   OH241443   2.934   6.927   2.149
13833TIP3    H141444   2.838   6.922   2.156
13833TIP3    H241445   2.959   6.845   2.105
13834TIP3   OH241446   6.265   4.500   1.582
13834TIP3    H141447   6.293   4.519   1.492
13834TIP3    H241448   6.204   4.571   1.604
13835TIP3   OH241449   2.226   2.054   1.081
13835TIP3    H141450   2.145   2.065   1.030
13835TIP3    H241451   2.290   2.020   1.019
13836TIP3   OH241452   6.282   6.939   4.239
13836TIP3    H141453   6.190   6.929   4.264
13836TIP3    H241454   6.280   6.988   4.157
13837TIP3   OH241455   4.167   2.497   4.557
13837TIP3    H141456   4.228   2.504   4.629
13837TIP3    H241457   4.092   2.550   4.582
13838TIP3   OH241458   2.353   2.142   5.875
13838TIP3    H141459   2.396   2.154   5.790
13838TIP3    H241460   2.278   2.085   5.856
13839TIP3   OH241461   3.956   0.859   2.610
13839TIP3    H141462   3.999   0.848   2.695
13839TIP3    H241463   3.977   0.948   2.584
13840TIP3   OH241464   5.012   6.235   6.693
13840TIP3    H141465   5.077   6.182   6.739
13840TIP3    H241466   5.052   6.251   6.607
13841TIP3   OH241467   7.921   4.256   4.615
13841TIP3    H141468   7.898   4.253   4.522
13841TIP3    H241469   7.956   4.344   4.628
13842TIP3   OH241470   2.484   1.984   6.672
13842TIP3    H141471   2.532   2.035   6.606
13842TIP3    H241472   2.406   1.953   6.627
13843TIP3   OH241473   1.731   2.908   0.689
13843TIP3    H141474   1.640   2.932   0.674
13843TIP3    H241475   1.757   2.958   0.766
13844TIP3   OH241476   6.786   5.492   6.312
13844TIP3    H141477   6.771   5.475   6.405
13844TIP3    H241478   6.765   5.584   6.301
13845TIP3   OH241479   1.529   5.852   6.268
13845TIP3    H141480   1.542   5.947   6.272
13845TIP3    H241481   1.444   5.837   6.308
13846TIP3   OH241482   4.295   4.823   6.581
13846TIP3    H141483   4.342   4.740   6.571
13846TIP3    H241484   4.213   4.799   6.624
13847TIP3   OH241485   2.161   2.858   3.363
13847TIP3    H141486   2.100   2.874   3.291
13847TIP3    H241487   2.107   2.864   3.442
13848TIP3   OH241488   4.644   6.599   4.748
13848TIP3    H141489   4.596   6.551   4.681
13848TIP3    H241490   4.705   6.535   4.785
13849TIP3   OH241491   1.744   5.824   6.520
13849TIP3    H141492   1.707   5.767   6.453
13849TIP3    H241493   1.802   5.767   6.570
13850TIP3   OH241494   4.736   3.659   0.898
13850TIP3    H141495   4.741   3.563   0.893
13850TIP3    H241496   4.827   3.686   0.906
13851TIP3   OH241497   7.197   3.238   0.737
13851TIP3    H141498   7.256   3.176   0.781
13851TIP3    H241499   7.254   3.309   0.708
13852TIP3   OH241500   4.458   3.390   6.428
13852TIP3    H141501   4.511   3.383   6.507
13852TIP3    H241502   4.370   3.365   6.455
13853TIP3   OH241503   0.012   6.043   6.400
13853TIP3    H141504  -0.047   6.000   6.338
13853TIP3    H241505   0.025   5.978   6.470
13854TIP3   OH241506   4.444   3.756   5.410
13854TIP3    H141507   4.431   3.674   5.363
13854TIP3    H241508   4.538   3.759   5.427
13855TIP3   OH241509   1.738   5.556   5.975
13855TIP3    H141510   1.717   5.479   6.028
13855TIP3    H241511   1.765   5.623   6.038
13856TIP3   OH241512   4.951   4.634   5.014
13856TIP3    H141513   5.011   4.637   5.088
13856TIP3    H241514   4.924   4.725   5.001
13857TIP3   OH241515   1.312   4.509   3.033
13857TIP3    H141516   1.384   4.470   2.984
13857TIP3    H241517   1.313   4.601   3.009
13858TIP3   OH241518   4.063   2.005   6.679
13858TIP3    H141519   4.035   2.072   6.616
13858TIP3    H241520   4.005   2.016   6.753
13859TIP3   OH241521   4.510   6.899   4.768
13859TIP3    H141522   4.467   6.981   4.746
13859TIP3    H241523   4.577   6.888   4.699
13860TIP3   OH241524   4.825   3.330   1.775
13860TIP3    H141525   4.918   3.312   1.789
13860TIP3    H241526   4.785   3.243   1.772
13861TIP3   OH241527   8.076   5.032   4.133
13861TIP3    H141528   8.092   5.118   4.093
13861TIP3    H241529   8.004   5.047   4.193
13862TIP3   OH241530   3.125   6.670   4.203
13862TIP3    H141531   3.178   6.747   4.225
13862TIP3    H241532   3.187   6.597   4.207
13863TIP3   OH241533   5.972   4.303   5.791
13863TIP3    H141534   5.978   4.232   5.855
13863TIP3    H241535   5.879   4.310   5.773
13864TIP3   OH241536   7.433   3.003   0.517
13864TIP3    H141537   7.498   3.049   0.464
13864TIP3    H241538   7.474   2.992   0.602
13865TIP3   OH241539   7.539   7.519   0.729
13865TIP3    H141540   7.476   7.452   0.755
13865TIP3    H241541   7.518   7.538   0.638
13866TIP3   OH241542   5.430   4.429   2.473
13866TIP3    H141543   5.360   4.484   2.438
13866TIP3    H241544   5.397   4.340   2.463
13867TIP3   OH241545   0.310   4.154   2.509
13867TIP3    H141546   0.367   4.145   2.433
13867TIP3    H241547   0.230   4.108   2.485
13868TIP3   OH241548   0.453   5.209   3.086
13868TIP3    H141549   0.522   5.212   3.152
13868TIP3    H241550   0.375   5.242   3.130
13869TIP3   OH241551   1.840   0.440   5.720
13869TIP3    H141552   1.781   0.397   5.781
13869TIP3    H241553   1.927   0.434   5.760
13870TIP3   OH241554   4.332   1.872   4.600
13870TIP3    H141555   4.264   1.885   4.533
13870TIP3    H241556   4.398   1.817   4.558
13871TIP3   OH241557   4.066   4.732   3.862
13871TIP3    H141558   4.047   4.645   3.827
13871TIP3    H241559   4.016   4.736   3.944
13872TIP3   OH241560   5.903   2.048   5.184
13872TIP3    H141561   5.960   2.109   5.137
13872TIP3    H241562   5.933   1.961   5.157
13873TIP3   OH241563   0.388   7.286   5.390
13873TIP3    H141564   0.309   7.232   5.399
13873TIP3    H241565   0.365   7.369   5.432
13874TIP3   OH241566   4.931   3.365   1.447
13874TIP3    H141567   4.852   3.312   1.458
13874TIP3    H241568   4.931   3.388   1.354
13875TIP3   OH241569   4.199   5.830   4.103
13875TIP3    H141570   4.292   5.843   4.086
13875TIP3    H241571   4.157   5.909   4.069
13876TIP3   OH241572   5.292   1.528   6.589
13876TIP3    H141573   5.205   1.490   6.581
13876TIP3    H241574   5.328   1.523   6.501
13877TIP3   OH241575   8.246   0.614   2.124
13877TIP3    H141576   8.160   0.656   2.123
13877TIP3    H241577   8.229   0.526   2.091
13878TIP3   OH241578   7.126   7.114   1.405
13878TIP3    H141579   7.205   7.142   1.452
13878TIP3    H241580   7.151   7.116   1.313
13879TIP3   OH241581   6.283   4.435   5.571
13879TIP3    H141582   6.330   4.501   5.622
13879TIP3    H241583   6.332   4.425   5.490
13880TIP3   OH241584   5.085   0.667   2.592
13880TIP3    H141585   5.151   0.619   2.640
13880TIP3    H241586   5.094   0.637   2.502
13881TIP3   OH241587   6.719   0.767   2.988
13881TIP3    H141588   6.626   0.766   2.965
13881TIP3    H241589   6.721   0.745   3.082
13882TIP3   OH241590   2.461   4.757   2.288
13882TIP3    H141591   2.456   4.710   2.204
13882TIP3    H241592   2.378   4.804   2.294
13883TIP3   OH241593   1.856   2.622   3.433
13883TIP3    H141594   1.826   2.543   3.389
13883TIP3    H241595   1.921   2.591   3.497
13884TIP3   OH241596   1.004   4.756   5.370
13884TIP3    H141597   0.945   4.823   5.336
13884TIP3    H241598   0.958   4.718   5.445
13885TIP3   OH241599   8.238   0.225   0.713
13885TIP3    H141600   8.154   0.181   0.725
13885TIP3    H241601   8.272   0.235   0.802
13886TIP3   OH241602   4.844   5.743   4.500
13886TIP3    H141603   4.788   5.689   4.443
13886TIP3    H241604   4.807   5.731   4.587
13887TIP3   OH241605   5.243   7.578   6.633
13887TIP3    H141606   5.202   7.565   6.548
13887TIP3    H241607   5.239   7.492   6.675
13888TIP3   OH241608   2.454   5.690   0.632
13888TIP3    H141609   2.445   5.747   0.556
13888TIP3    H241610   2.448   5.749   0.707
13889TIP3   OH241611   2.405   4.101   0.504
13889TIP3    H141612   2.408   4.058   0.590
13889TIP3    H241613   2.360   4.184   0.520
13890TIP3   OH241614   4.761   1.974   6.002
13890TIP3    H141615   4.693   1.909   5.987
13890TIP3    H241616   4.802   1.948   6.085
13891TIP3   OH241617   7.343   4.807   4.284
13891TIP3    H141618   7.372   4.897   4.267
13891TIP3    H241619   7.287   4.815   4.361
13892TIP3   OH241620   1.252   7.810   2.043
13892TIP3    H141621   1.210   7.878   2.096
13892TIP3    H241622   1.216   7.728   2.077
13893TIP3   OH241623   1.156   3.622   4.537
13893TIP3    H141624   1.215   3.692   4.565
13893TIP3    H241625   1.176   3.609   4.444
13894TIP3   OH241626   5.596   1.090   4.731
13894TIP3    H141627   5.682   1.087   4.773
13894TIP3    H241628   5.602   1.162   4.668
13895TIP3   OH241629   1.395   0.851   5.766
13895TIP3    H141630   1.319   0.829   5.819
13895TIP3    H241631   1.443   0.915   5.819
13896TIP3   OH241632   7.662   7.073   5.017
13896TIP3    H141633   7.718   7.043   5.089
13896TIP3    H241634   7.663   7.000   4.955
13897TIP3   OH241635   1.441   6.627   0.409
13897TIP3    H141636   1.472   6.671   0.331
13897TIP3    H241637   1.400   6.547   0.377
13898TIP3   OH241638   5.621   5.795   6.386
13898TIP3    H141639   5.556   5.862   6.370
13898TIP3    H241640   5.571   5.716   6.405
13899TIP3   OH241641   2.477   4.392   1.101
13899TIP3    H141642   2.542   4.434   1.045
13899TIP3    H241643   2.410   4.360   1.040
13900TIP3   OH241644   1.027   4.869   6.451
13900TIP3    H141645   1.023   4.962   6.471
13900TIP3    H241646   0.948   4.852   6.400
13901TIP3   OH241647   2.223   3.668   3.554
13901TIP3    H141648   2.242   3.605   3.624
13901TIP3    H241649   2.275   3.637   3.480
13902TIP3   OH241650   2.545   2.515   1.240
13902TIP3    H141651   2.572   2.496   1.330
13902TIP3    H241652   2.459   2.474   1.232
13903TIP3   OH241653   2.142   3.853   0.688
13903TIP3    H141654   2.183   3.913   0.750
13903TIP3    H241655   2.212   3.829   0.628
13904TIP3   OH241656   3.933   1.570   4.956
13904TIP3    H141657   3.991   1.497   4.934
13904TIP3    H241658   3.958   1.594   5.045
13905TIP3   OH241659   2.648   4.338   5.433
13905TIP3    H141660   2.598   4.412   5.397
13905TIP3    H241661   2.614   4.327   5.521
13906TIP3   OH241662   1.108   4.794   3.218
13906TIP3    H141663   1.164   4.763   3.288
13906TIP3    H241664   1.149   4.875   3.187
13907TIP3   OH241665   6.494   6.857   5.160
13907TIP3    H141666   6.536   6.880   5.077
13907TIP3    H241667   6.401   6.874   5.146
13908TIP3   OH241668   3.845   5.378   3.437
13908TIP3    H141669   3.909   5.309   3.457
13908TIP3    H241670   3.826   5.367   3.344
13909TIP3   OH241671   5.375   5.845   3.071
13909TIP3    H141672   5.367   5.771   3.131
13909TIP3    H241673   5.295   5.842   3.019
13910TIP3   OH241674   7.495   5.262   5.939
13910TIP3    H141675   7.416   5.312   5.958
13910TIP3    H241676   7.554   5.284   6.011
13911TIP3   OH241677   1.012   0.607   4.714
13911TIP3    H141678   0.967   0.662   4.650
13911TIP3    H241679   1.102   0.641   4.715
13912TIP3   OH241680   3.050   0.260   4.745
13912TIP3    H141681   3.044   0.287   4.837
13912TIP3    H241682   3.102   0.328   4.703
13913TIP3   OH241683   6.355   1.892   0.038
13913TIP3    H141684   6.294   1.819   0.030
13913TIP3    H241685   6.433   1.855   0.079
13914TIP3   OH241686   2.491   7.140   6.688
13914TIP3    H141687   2.570   7.099   6.722
13914TIP3    H241688   2.514   7.232   6.676
13915TIP3   OH241689   2.169   2.279   3.127
13915TIP3    H141690   2.225   2.222   3.075
13915TIP3    H241691   2.084   2.276   3.083
13916TIP3   OH241692   2.591   4.599   5.397
13916TIP3    H141693   2.685   4.614   5.401
13916TIP3    H241694   2.556   4.644   5.474
13917TIP3   OH241695   6.439   0.824   2.908
13917TIP3    H141696   6.409   0.889   2.972
13917TIP3    H241697   6.362   0.770   2.890
13918TIP3   OH241698   1.505   1.859   4.511
13918TIP3    H141699   1.445   1.921   4.471
13918TIP3    H241700   1.533   1.801   4.440
13919TIP3   OH241701   0.368   1.945   2.837
13919TIP3    H141702   0.323   1.908   2.761
13919TIP3    H241703   0.319   2.024   2.858
13920TIP3   OH241704   7.790   3.205   0.083
13920TIP3    H141705   7.878   3.235   0.062
13920TIP3    H241706   7.754   3.273   0.140
13921TIP3   OH241707   3.626   1.618   3.414
13921TIP3    H141708   3.670   1.632   3.330
13921TIP3    H241709   3.696   1.620   3.479
13922TIP3   OH241710   3.079   5.193   4.386
13922TIP3    H141711   3.021   5.267   4.370
13922TIP3    H241712   3.021   5.123   4.417
13923TIP3   OH241713   1.028   1.912   3.936
13923TIP3    H141714   0.940   1.929   3.900
13923TIP3    H241715   1.077   1.876   3.862
13924TIP3   OH241716   2.313   0.356   1.620
13924TIP3    H141717   2.373   0.338   1.693
13924TIP3    H241718   2.227   0.360   1.661
13925TIP3   OH241719   0.154   6.956   5.700
13925TIP3    H141720   0.186   7.040   5.733
13925TIP3    H241721   0.230   6.898   5.705
13926TIP3   OH241722   8.252   5.392   4.757
13926TIP3    H141723   8.192   5.317   4.763
13926TIP3    H241724   8.264   5.422   4.847
13927TIP3   OH241725   5.122   0.452   4.208
13927TIP3    H141726   5.075   0.535   4.218
13927TIP3    H241727   5.132   0.419   4.297
13928TIP3   OH241728   1.430   0.541   5.816
13928TIP3    H141729   1.344   0.510   5.787
13928TIP3    H241730   1.448   0.617   5.761
13929TIP3   OH241731   0.775   4.905   1.718
13929TIP3    H141732   0.824   4.911   1.636
13929TIP3    H241733   0.815   4.969   1.776
13930TIP3   OH241734   0.058   6.732   3.323
13930TIP3    H141735  -0.003   6.680   3.375
13930TIP3    H241736   0.140   6.730   3.373
13931TIP3   OH241737   4.307   1.538   4.789
13931TIP3    H141738   4.344   1.553   4.877
13931TIP3    H241739   4.356   1.463   4.755
13932TIP3   OH241740   5.330   7.510   4.671
13932TIP3    H141741   5.423   7.499   4.692
13932TIP3    H241742   5.287   7.514   4.756
13933TIP3   OH241743   1.741   2.776   0.439
13933TIP3    H141744   1.830   2.741   0.448
13933TIP3    H241745   1.731   2.835   0.514
13934TIP3   OH241746   4.009   6.681   2.785
13934TIP3    H141747   3.991   6.741   2.857
13934TIP3    H241748   4.103   6.662   2.793
13935TIP3   OH241749   7.505   3.906   2.614
13935TIP3    H141750   7.597   3.927   2.629
13935TIP3    H241751   7.459   3.989   2.622
13936TIP3   OH241752   5.228   0.386   4.455
13936TIP3    H141753   5.144   0.426   4.480
13936TIP3    H241754   5.273   0.372   4.539
13937TIP3   OH241755   3.683   1.951   4.154
13937TIP3    H141756   3.705   1.984   4.241
13937TIP3    H241757   3.697   1.857   4.160
13938TIP3   OH241758   3.228   5.795   1.856
13938TIP3    H141759   3.256   5.758   1.939
13938TIP3    H241760   3.288   5.759   1.791
13939TIP3   OH241761   7.061   4.576   4.693
13939TIP3    H141762   7.155   4.578   4.673
13939TIP3    H241763   7.036   4.484   4.686
13940TIP3   OH241764   7.842   5.368   4.235
13940TIP3    H141765   7.893   5.435   4.280
13940TIP3    H241766   7.757   5.368   4.280
13941TIP3   OH241767   0.617   3.626   4.064
13941TIP3    H141768   0.696   3.680   4.064
13941TIP3    H241769   0.556   3.673   4.121
13942TIP3   OH241770   3.995   2.384   0.486
13942TIP3    H141771   3.978   2.476   0.505
13942TIP3    H241772   3.954   2.336   0.557
13943TIP3   OH241773   3.722   6.286   5.612
13943TIP3    H141774   3.754   6.202   5.645
13943TIP3    H241775   3.627   6.282   5.624
13944TIP3   OH241776   3.699   5.630   4.662
13944TIP3    H141777   3.640   5.699   4.630
13944TIP3    H241778   3.640   5.560   4.691
13945TIP3   OH241779   5.798   7.266   1.192
13945TIP3    H141780   5.724   7.265   1.252
13945TIP3    H241781   5.849   7.188   1.215
13946TIP3   OH241782   4.703   7.331   3.842
13946TIP3    H141783   4.782   7.319   3.790
13946TIP3    H241784   4.688   7.426   3.841
13947TIP3   OH241785   7.257   1.549   4.825
13947TIP3    H141786   7.168   1.528   4.853
13947TIP3    H241787   7.303   1.466   4.827
13948TIP3   OH241788   7.178   1.404   4.092
13948TIP3    H141789   7.202   1.351   4.168
13948TIP3    H241790   7.101   1.452   4.119
13949TIP3   OH241791   3.822   4.480   6.517
13949TIP3    H141792   3.851   4.491   6.427
13949TIP3    H241793   3.760   4.407   6.513
13950TIP3   OH241794   2.739   4.114   6.624
13950TIP3    H141795   2.704   4.032   6.589
13950TIP3    H241796   2.792   4.087   6.699
13951TIP3   OH241797   3.215   7.691   4.043
13951TIP3    H141798   3.184   7.604   4.071
13951TIP3    H241799   3.238   7.679   3.951
13952TIP3   OH241800   2.105   7.132   4.830
13952TIP3    H141801   2.096   7.197   4.899
13952TIP3    H241802   2.072   7.051   4.869
13953TIP3   OH241803   0.505   4.300   4.260
13953TIP3    H141804   0.562   4.227   4.237
13953TIP3    H241805   0.493   4.348   4.178
13954TIP3   OH241806   4.975   7.024   2.531
13954TIP3    H141807   4.994   6.967   2.456
13954TIP3    H241808   4.882   7.011   2.547
13955TIP3   OH241809   6.040   3.920   4.683
13955TIP3    H141810   6.068   3.850   4.624
13955TIP3    H241811   5.958   3.952   4.646
13956TIP3   OH241812   2.593   3.133   1.834
13956TIP3    H141813   2.546   3.115   1.752
13956TIP3    H241814   2.604   3.047   1.875
13957TIP3   OH241815   1.769   4.960   5.880
13957TIP3    H141816   1.844   4.927   5.929
13957TIP3    H241817   1.696   4.958   5.942
13958TIP3   OH241818   0.018   1.878   3.605
13958TIP3    H141819  -0.030   1.942   3.552
13958TIP3    H241820   0.009   1.795   3.556
13959TIP3   OH241821   3.549   0.878   6.035
13959TIP3    H141822   3.525   0.966   6.008
13959TIP3    H241823   3.467   0.828   6.031
13960TIP3   OH241824   8.213   4.993   0.244
13960TIP3    H141825   8.151   4.956   0.308
13960TIP3    H241826   8.164   4.994   0.162
13961TIP3   OH241827   3.773   0.897   1.964
13961TIP3    H141828   3.825   0.869   1.890
13961TIP3    H241829   3.810   0.982   1.989
13962TIP3   OH241830   5.590   2.580   6.512
13962TIP3    H141831   5.631   2.517   6.453
13962TIP3    H241832   5.622   2.554   6.599
13963TIP3   OH241833   5.628   7.133   1.379
13963TIP3    H141834   5.673   7.052   1.357
13963TIP3    H241835   5.550   7.105   1.427
13964TIP3   OH241836   1.869   2.853   5.404
13964TIP3    H141837   1.931   2.833   5.333
13964TIP3    H241838   1.798   2.790   5.393
13965TIP3   OH241839   1.700   4.113   4.596
13965TIP3    H141840   1.785   4.123   4.639
13965TIP3    H241841   1.705   4.170   4.519
13966TIP3   OH241842   5.500   7.402   0.270
13966TIP3    H141843   5.595   7.409   0.277
13966TIP3    H241844   5.475   7.470   0.208
13967TIP3   OH241845   7.522   2.950   2.667
13967TIP3    H141846   7.464   3.022   2.645
13967TIP3    H241847   7.597   2.992   2.709
13968TIP3   OH241848   2.258   5.709   3.460
13968TIP3    H141849   2.240   5.653   3.535
13968TIP3    H241850   2.212   5.791   3.478
13969TIP3   OH241851   1.728   1.514   2.490
13969TIP3    H141852   1.709   1.420   2.489
13969TIP3    H241853   1.713   1.542   2.400
13970TIP3   OH241854   8.171   3.559   3.603
13970TIP3    H141855   8.113   3.484   3.615
13970TIP3    H241856   8.237   3.529   3.541
13971TIP3   OH241857   7.098   5.273   6.459
13971TIP3    H141858   7.126   5.338   6.394
13971TIP3    H241859   7.071   5.325   6.534
13972TIP3   OH241860   0.424   5.820   3.872
13972TIP3    H141861   0.418   5.914   3.860
13972TIP3    H241862   0.456   5.809   3.962
13973TIP3   OH241863   4.396   2.963   5.467
13973TIP3    H141864   4.352   3.048   5.465
13973TIP3    H241865   4.482   2.982   5.506
13974TIP3   OH241866   7.892   2.856   5.918
13974TIP3    H141867   7.872   2.810   5.999
13974TIP3    H241868   7.814   2.844   5.864
13975TIP3   OH241869   5.555   6.203   3.002
13975TIP3    H141870   5.648   6.217   3.020
13975TIP3    H241871   5.554   6.144   2.927
13976TIP3   OH241872   5.000   5.974   5.077
13976TIP3    H141873   4.966   5.894   5.037
13976TIP3    H241874   4.944   6.044   5.043
13977TIP3   OH241875   7.796   2.284   6.462
13977TIP3    H141876   7.822   2.235   6.540
13977TIP3    H241877   7.710   2.248   6.439
13978TIP3   OH241878   2.876   1.188   3.309
13978TIP3    H141879   2.946   1.198   3.374
13978TIP3    H241880   2.915   1.138   3.238
13979TIP3   OH241881   7.677   1.437   1.023
13979TIP3    H141882   7.594   1.430   0.976
13979TIP3    H241883   7.690   1.351   1.062
13980TIP3   OH241884   5.913   3.380   1.626
13980TIP3    H141885   5.929   3.442   1.555
13980TIP3    H241886   5.920   3.293   1.585
13981TIP3   OH241887   2.399   1.715   2.805
13981TIP3    H141888   2.386   1.804   2.771
13981TIP3    H241889   2.312   1.688   2.833
13982TIP3   OH241890   7.180   6.115   6.235
13982TIP3    H141891   7.175   6.076   6.322
13982TIP3    H241892   7.103   6.081   6.189
13983TIP3   OH241893   7.555   7.614   1.732
13983TIP3    H141894   7.486   7.676   1.709
13983TIP3    H241895   7.634   7.650   1.692
13984TIP3   OH241896   7.276   0.624   0.347
13984TIP3    H141897   7.320   0.709   0.355
13984TIP3    H241898   7.183   0.646   0.343
13985TIP3   OH241899   3.626   1.766   1.708
13985TIP3    H141900   3.562   1.718   1.656
13985TIP3    H241901   3.607   1.741   1.798
13986TIP3   OH241902   8.116   5.581   4.170
13986TIP3    H141903   8.037   5.625   4.202
13986TIP3    H241904   8.148   5.638   4.100
13987TIP3   OH241905   7.615   1.097   5.842
13987TIP3    H141906   7.696   1.076   5.889
13987TIP3    H241907   7.587   1.013   5.804
13988TIP3   OH241908   1.473   0.807   2.547
13988TIP3    H141909   1.547   0.802   2.608
13988TIP3    H241910   1.396   0.792   2.602
13989TIP3   OH241911   4.655   0.778   6.057
13989TIP3    H141912   4.633   0.713   6.123
13989TIP3    H241913   4.747   0.763   6.036
13990TIP3   OH241914   5.347   7.784   5.720
13990TIP3    H141915   5.382   7.826   5.799
13990TIP3    H241916   5.424   7.753   5.673
13991TIP3   OH241917   7.803   2.888   5.259
13991TIP3    H141918   7.844   2.814   5.216
13991TIP3    H241919   7.852   2.899   5.340
13992TIP3   OH241920   7.818   2.072   4.795
13992TIP3    H141921   7.809   1.979   4.816
13992TIP3    H241922   7.730   2.100   4.773
13993TIP3   OH241923   7.783   7.779   2.391
13993TIP3    H141924   7.690   7.770   2.411
13993TIP3    H241925   7.792   7.738   2.305
13994TIP3   OH241926   3.618   6.393   2.437
13994TIP3    H141927   3.685   6.358   2.496
13994TIP3    H241928   3.664   6.404   2.353
13995TIP3   OH241929   2.717   7.701   4.639
13995TIP3    H141930   2.775   7.625   4.636
13995TIP3    H241931   2.717   7.728   4.731
13996TIP3   OH241932   5.871   5.983   3.997
13996TIP3    H141933   5.816   5.905   3.996
13996TIP3    H241934   5.955   5.953   3.961
13997TIP3   OH241935   6.226   4.255   0.636
13997TIP3    H141936   6.213   4.278   0.728
13997TIP3    H241937   6.303   4.305   0.610
13998TIP3   OH241938   0.765   0.385   3.796
13998TIP3    H141939   0.681   0.430   3.796
13998TIP3    H241940   0.785   0.372   3.703
13999TIP3   OH241941   3.844   5.697   6.611
13999TIP3    H141942   3.860   5.705   6.705
13999TIP3    H241943   3.856   5.786   6.578
14000TIP3   OH241944   4.203   7.390   4.710
14000TIP3    H141945   4.271   7.401   4.643
14000TIP3    H241946   4.162   7.306   4.689
14001TIP3   OH241947   2.000   7.474   1.480
14001TIP3    H141948   2.076   7.468   1.422
14001TIP3    H241949   1.927   7.493   1.421
14002TIP3   OH241950   0.925   2.542   2.227
14002TIP3    H141951   0.999   2.529   2.286
14002TIP3    H241952   0.899   2.633   2.240
14003TIP3   OH241953   1.703   1.006   3.345
14003TIP3    H141954   1.710   0.964   3.431
14003TIP3    H241955   1.614   0.987   3.317
14004TIP3   OH241956   7.796   6.551   4.242
14004TIP3    H141957   7.749   6.617   4.191
14004TIP3    H241958   7.870   6.527   4.188
14005TIP3   OH241959   7.709   2.504   0.160
14005TIP3    H141960   7.687   2.562   0.086
14005TIP3    H241961   7.678   2.418   0.132
14006TIP3   OH241962   1.681   1.225   4.025
14006TIP3    H141963   1.731   1.304   4.003
14006TIP3    H241964   1.668   1.230   4.119
14007TIP3   OH241965   5.393   6.504   5.609
14007TIP3    H141966   5.424   6.580   5.658
14007TIP3    H241967   5.428   6.428   5.657
14008TIP3   OH241968   0.877   6.118   5.637
14008TIP3    H141969   0.936   6.085   5.705
14008TIP3    H241970   0.860   6.209   5.662
14009TIP3   OH241971   5.833   3.571   0.502
14009TIP3    H141972   5.895   3.507   0.468
14009TIP3    H241973   5.772   3.588   0.430
14010TIP3   OH241974   6.276   5.442   6.715
14010TIP3    H141975   6.307   5.408   6.799
14010TIP3    H241976   6.185   5.468   6.733
14011TIP3   OH241977   4.251   1.510   2.208
14011TIP3    H141978   4.200   1.461   2.143
14011TIP3    H241979   4.336   1.524   2.166
14012TIP3   OH241980   1.350   3.957   5.951
14012TIP3    H141981   1.418   4.023   5.943
14012TIP3    H241982   1.396   3.874   5.946
14013TIP3   OH241983   0.734   5.734   4.446
14013TIP3    H141984   0.768   5.693   4.367
14013TIP3    H241985   0.651   5.773   4.420
14014TIP3   OH241986   1.268   7.500   1.894
14014TIP3    H141987   1.274   7.408   1.868
14014TIP3    H241988   1.237   7.545   1.815
14015TIP3   OH241989   1.526   0.635   4.899
14015TIP3    H141990   1.617   0.630   4.869
14015TIP3    H241991   1.515   0.726   4.927
14016TIP3   OH241992   4.608   4.116   5.092
14016TIP3    H141993   4.537   4.054   5.109
14016TIP3    H241994   4.627   4.155   5.178
14017TIP3   OH241995   0.547   7.439   4.792
14017TIP3    H141996   0.632   7.410   4.758
14017TIP3    H241997   0.531   7.381   4.867
14018TIP3   OH241998   5.135   3.869   1.911
14018TIP3    H141999   5.173   3.854   1.824
14018TIP3    H242000   5.044   3.893   1.894
14019TIP3   OH242001   4.295   5.959   1.650
14019TIP3    H142002   4.374   5.993   1.608
14019TIP3    H242003   4.327   5.920   1.732
14020TIP3   OH242004   0.152   7.602   4.983
14020TIP3    H142005   0.213   7.578   5.052
14020TIP3    H242006   0.091   7.528   4.978
14021TIP3   OH242007   5.006   2.377   3.141
14021TIP3    H142008   5.035   2.410   3.226
14021TIP3    H242009   4.912   2.391   3.140
14022TIP3   OH242010   6.459   0.627   0.316
14022TIP3    H142011   6.528   0.638   0.381
14022TIP3    H242012   6.505   0.598   0.237
14023TIP3   OH242013   2.126   7.263   5.082
14023TIP3    H142014   2.099   7.192   5.139
14023TIP3    H242015   2.217   7.281   5.108
14024TIP3   OH242016   6.182   3.085   1.278
14024TIP3    H142017   6.189   3.116   1.369
14024TIP3    H242018   6.095   3.046   1.272
14025TIP3   OH242019   7.712   4.198   0.530
14025TIP3    H142020   7.768   4.276   0.536
14025TIP3    H242021   7.774   4.125   0.523
14026TIP3   OH242022   8.126   4.674   6.686
14026TIP3    H142023   8.154   4.709   6.602
14026TIP3    H242024   8.087   4.589   6.665
14027TIP3   OH242025   3.721   6.956   4.099
14027TIP3    H142026   3.799   6.948   4.044
14027TIP3    H242027   3.664   6.884   4.071
14028TIP3   OH242028   1.403   6.946   3.154
14028TIP3    H142029   1.315   6.974   3.181
14028TIP3    H242030   1.455   7.027   3.154
14029TIP3   OH242031   3.444   4.952   0.271
14029TIP3    H142032   3.367   4.898   0.258
14029TIP3    H242033   3.438   5.020   0.203
14030TIP3   OH242034   7.262   4.831   4.572
14030TIP3    H142035   7.222   4.869   4.651
14030TIP3    H242036   7.331   4.773   4.606
14031TIP3   OH242037   5.321   5.383   1.699
14031TIP3    H142038   5.293   5.299   1.735
14031TIP3    H242039   5.351   5.433   1.775
14032TIP3   OH242040   4.861   4.963   1.308
14032TIP3    H142041   4.779   4.959   1.259
14032TIP3    H242042   4.897   5.049   1.287
14033TIP3   OH242043   5.821   0.444   0.917
14033TIP3    H142044   5.727   0.445   0.902
14033TIP3    H242045   5.832   0.401   1.002
14034TIP3   OH242046   3.916   2.656   5.654
14034TIP3    H142047   3.998   2.703   5.638
14034TIP3    H242048   3.848   2.721   5.642
14035TIP3   OH242049   2.501   5.940   3.008
14035TIP3    H142050   2.576   5.957   2.951
14035TIP3    H242051   2.538   5.902   3.087
14036TIP3   OH242052   7.514   6.201   1.859
14036TIP3    H142053   7.439   6.143   1.843
14036TIP3    H242054   7.550   6.219   1.773
14037TIP3   OH242055   5.961   5.544   4.391
14037TIP3    H142056   5.928   5.577   4.307
14037TIP3    H242057   5.908   5.590   4.457
14038TIP3   OH242058   8.220   3.224   3.178
14038TIP3    H142059   8.204   3.204   3.270
14038TIP3    H242060   8.156   3.291   3.156
14039TIP3   OH242061   6.755   7.768   2.760
14039TIP3    H142062   6.784   7.753   2.670
14039TIP3    H242063   6.813   7.837   2.792
14040TIP3   OH242064   7.191   6.986   0.188
14040TIP3    H142065   7.262   6.921   0.188
14040TIP3    H242066   7.161   6.989   0.097
14041TIP3   OH242067   1.922   7.072   1.061
14041TIP3    H142068   1.862   7.134   1.102
14041TIP3    H242069   1.889   7.062   0.972
14042TIP3   OH242070   3.965   7.703   2.544
14042TIP3    H142071   3.986   7.674   2.455
14042TIP3    H242072   3.873   7.679   2.555
14043TIP3   OH242073   7.823   1.514   1.357
14043TIP3    H142074   7.873   1.459   1.296
14043TIP3    H242075   7.773   1.572   1.300
14044TIP3   OH242076   1.512   6.264   0.835
14044TIP3    H142077   1.420   6.263   0.808
14044TIP3    H242078   1.528   6.354   0.862
14045TIP3   OH242079   3.324   6.641   0.629
14045TIP3    H142080   3.395   6.673   0.684
14045TIP3    H242081   3.290   6.564   0.676
14046TIP3   OH242082   6.546   4.409   4.806
14046TIP3    H142083   6.513   4.494   4.777
14046TIP3    H242084   6.613   4.430   4.870
14047TIP3   OH242085   3.710   1.277   3.452
14047TIP3    H142086   3.801   1.304   3.457
14047TIP3    H242087   3.682   1.302   3.364
14048TIP3   OH242088   3.953   6.057   3.258
14048TIP3    H142089   4.008   5.979   3.250
14048TIP3    H242090   4.004   6.127   3.217
14049TIP3   OH242091   5.884   1.439   5.723
14049TIP3    H142092   5.814   1.416   5.785
14049TIP3    H242093   5.838   1.460   5.642
14050TIP3   OH242094   5.052   5.305   3.595
14050TIP3    H142095   4.989   5.241   3.628
14050TIP3    H242096   5.086   5.267   3.515
14051TIP3   OH242097   4.550   0.425   4.288
14051TIP3    H142098   4.479   0.480   4.321
14051TIP3    H242099   4.551   0.441   4.194
14052TIP3   OH242100   5.626   7.027   2.155
14052TIP3    H142101   5.564   7.085   2.112
14052TIP3    H242102   5.597   7.026   2.247
14053TIP3   OH242103   1.343   5.326   6.023
14053TIP3    H142104   1.410   5.381   5.982
14053TIP3    H242105   1.273   5.386   6.046
14054TIP3   OH242106   6.756   1.120   2.391
14054TIP3    H142107   6.759   1.047   2.452
14054TIP3    H242108   6.839   1.166   2.403
14055TIP3   OH242109   6.641   6.164   2.826
14055TIP3    H142110   6.731   6.139   2.805
14055TIP3    H242111   6.650   6.237   2.887
14056TIP3   OH242112   1.490   6.530   2.751
14056TIP3    H142113   1.461   6.518   2.842
14056TIP3    H242114   1.426   6.481   2.699
14057TIP3   OH242115   3.984   1.098   5.189
14057TIP3    H142116   3.976   1.193   5.185
14057TIP3    H242117   3.970   1.077   5.281
14058TIP3   OH242118   4.524   2.154   4.501
14058TIP3    H142119   4.576   2.211   4.444
14058TIP3    H242120   4.434   2.183   4.488
14059TIP3   OH242121   7.154   2.001   6.017
14059TIP3    H142122   7.111   2.061   6.078
14059TIP3    H242123   7.247   2.008   6.038
14060TIP3   OH242124   8.270   4.384   2.313
14060TIP3    H142125   8.299   4.421   2.229
14060TIP3    H242126   8.348   4.342   2.349
14061TIP3   OH242127   0.507   0.962   1.563
14061TIP3    H142128   0.542   0.888   1.513
14061TIP3    H242129   0.414   0.965   1.538
14062TIP3   OH242130   2.821   2.023   2.507
14062TIP3    H142131   2.915   2.036   2.516
14062TIP3    H242132   2.782   2.097   2.554
14063TIP3   OH242133   4.427   6.664   3.098
14063TIP3    H142134   4.455   6.755   3.094
14063TIP3    H242135   4.391   6.645   3.011
14064TIP3   OH242136   5.237   2.060  -0.015
14064TIP3    H142137   5.191   1.980  -0.041
14064TIP3    H242138   5.170   2.129  -0.020
14065TIP3   OH242139   5.408   2.825   0.260
14065TIP3    H142140   5.425   2.797   0.170
14065TIP3    H242141   5.483   2.880   0.283
14066TIP3   OH242142   2.958   7.777   4.895
14066TIP3    H142143   2.908   7.743   4.969
14066TIP3    H242144   3.016   7.705   4.870
14067TIP3   OH242145   6.941   1.242   1.516
14067TIP3    H142146   7.011   1.306   1.505
14067TIP3    H242147   6.890   1.249   1.435
14068TIP3   OH242148   2.341   5.482   4.746
14068TIP3    H142149   2.332   5.501   4.653
14068TIP3    H242150   2.395   5.403   4.750
14069TIP3   OH242151   6.329   6.413   0.401
14069TIP3    H142152   6.388   6.390   0.329
14069TIP3    H242153   6.285   6.493   0.371
14070TIP3   OH242154   3.805   2.131   6.401
14070TIP3    H142155   3.862   2.093   6.334
14070TIP3    H242156   3.751   2.057   6.431
14071TIP3   OH242157   1.525   7.762   3.984
14071TIP3    H142158   1.588   7.711   4.035
14071TIP3    H242159   1.543   7.853   4.007
14072TIP3   OH242160   7.240   5.177   0.018
14072TIP3    H142161   7.173   5.109   0.028
14072TIP3    H242162   7.288   5.175   0.100
14073TIP3   OH242163   2.208   2.885   1.096
14073TIP3    H142164   2.293   2.843   1.083
14073TIP3    H242165   2.225   2.978   1.085
14074TIP3   OH242166   1.089   3.158   1.080
14074TIP3    H142167   1.031   3.154   1.156
14074TIP3    H242168   1.170   3.116   1.109
14075TIP3   OH242169   6.551   4.989   6.574
14075TIP3    H142170   6.625   4.942   6.611
14075TIP3    H242171   6.505   4.924   6.520
14076TIP3   OH242172   3.817   2.870   3.828
14076TIP3    H142173   3.795   2.873   3.921
14076TIP3    H242174   3.913   2.873   3.826
14077TIP3   OH242175   0.744   5.247   5.296
14077TIP3    H142176   0.724   5.338   5.317
14077TIP3    H242177   0.674   5.197   5.337
14078TIP3   OH242178   3.906   6.779   2.194
14078TIP3    H142179   3.989   6.813   2.229
14078TIP3    H242180   3.877   6.847   2.133
14079TIP3   OH242181   5.055   4.037   5.909
14079TIP3    H142182   5.090   4.008   5.993
14079TIP3    H242183   4.973   4.083   5.931
14080TIP3   OH242184   6.340   1.400   5.815
14080TIP3    H142185   6.287   1.333   5.858
14080TIP3    H242186   6.425   1.358   5.800
14081TIP3   OH242187   3.151   5.994   3.303
14081TIP3    H142188   3.162   6.081   3.342
14081TIP3    H242189   3.215   5.940   3.348
14082TIP3   OH242190   1.780   6.883   6.711
14082TIP3    H142191   1.843   6.826   6.667
14082TIP3    H242192   1.834   6.946   6.759
14083TIP3   OH242193   1.667   3.513   4.349
14083TIP3    H142194   1.583   3.515   4.394
14083TIP3    H242195   1.731   3.536   4.416
14084TIP3   OH242196   4.291   4.160   0.232
14084TIP3    H142197   4.198   4.137   0.238
14084TIP3    H242198   4.293   4.254   0.249
14085TIP3   OH242199   2.647   3.695   5.343
14085TIP3    H142200   2.688   3.650   5.417
14085TIP3    H242201   2.700   3.671   5.267
14086TIP3   OH242202   5.470   1.814   5.228
14086TIP3    H142203   5.555   1.834   5.269
14086TIP3    H242204   5.406   1.836   5.296
14087TIP3   OH242205   2.743   3.640   5.622
14087TIP3    H142206   2.803   3.695   5.673
14087TIP3    H242207   2.690   3.595   5.688
14088TIP3   OH242208   6.467   1.328   6.651
14088TIP3    H142209   6.375   1.338   6.677
14088TIP3    H242210   6.516   1.353   6.730
14089TIP3   OH242211   6.257   3.802   1.868
14089TIP3    H142212   6.182   3.751   1.838
14089TIP3    H242213   6.286   3.849   1.790
14090TIP3   OH242214   6.512   0.959   5.799
14090TIP3    H142215   6.431   0.909   5.805
14090TIP3    H242216   6.551   0.953   5.886
14091TIP3   OH242217   7.135   3.314   3.596
14091TIP3    H142218   7.078   3.376   3.551
14091TIP3    H242219   7.216   3.363   3.611
14092TIP3   OH242220   4.518   4.648   4.289
14092TIP3    H142221   4.450   4.709   4.262
14092TIP3    H242222   4.482   4.605   4.367
14093TIP3   OH242223   7.462   3.439   5.736
14093TIP3    H142224   7.539   3.483   5.700
14093TIP3    H242225   7.400   3.510   5.754
14094TIP3   OH242226   5.133   0.719   5.288
14094TIP3    H142227   5.191   0.696   5.216
14094TIP3    H242228   5.045   0.698   5.257
14095TIP3   OH242229   5.762   5.197   4.482
14095TIP3    H142230   5.710   5.278   4.482
14095TIP3    H242231   5.852   5.227   4.474
14096TIP3   OH242232   1.749   0.606   4.594
14096TIP3    H142233   1.748   0.561   4.678
14096TIP3    H242234   1.814   0.675   4.604
14097TIP3   OH242235   2.016   1.823   6.560
14097TIP3    H142236   1.941   1.797   6.508
14097TIP3    H242237   2.009   1.918   6.566
14098TIP3   OH242238   6.085   6.109   2.290
14098TIP3    H142239   6.151   6.094   2.222
14098TIP3    H242240   6.047   6.194   2.268
14099TIP3   OH242241   3.206   7.078   1.209
14099TIP3    H142242   3.150   7.073   1.287
14099TIP3    H242243   3.214   7.172   1.192
14100TIP3   OH242244   7.627   1.689   4.279
14100TIP3    H142245   7.685   1.722   4.211
14100TIP3    H242246   7.684   1.636   4.336
14101TIP3   OH242247   4.626   2.290   0.155
14101TIP3    H142248   4.703   2.319   0.204
14101TIP3    H242249   4.558   2.276   0.222
14102TIP3   OH242250   7.258   4.258   0.299
14102TIP3    H142251   7.194   4.328   0.312
14102TIP3    H242252   7.279   4.227   0.387
14103TIP3   OH242253   2.611   7.225   4.446
14103TIP3    H142254   2.571   7.235   4.359
14103TIP3    H242255   2.574   7.296   4.498
14104TIP3   OH242256   7.588   3.531   3.120
14104TIP3    H142257   7.526   3.597   3.091
14104TIP3    H242258   7.666   3.581   3.147
14105TIP3   OH242259   0.602   2.678   1.742
14105TIP3    H142260   0.530   2.740   1.755
14105TIP3    H242261   0.663   2.697   1.813
14106TIP3   OH242262   7.534   7.236   3.759
14106TIP3    H142263   7.520   7.200   3.672
14106TIP3    H242264   7.552   7.329   3.745
14107TIP3   OH242265   7.400   4.780   1.160
14107TIP3    H142266   7.377   4.691   1.132
14107TIP3    H242267   7.377   4.835   1.086
14108TIP3   OH242268   6.789   1.255   4.184
14108TIP3    H142269   6.818   1.171   4.147
14108TIP3    H242270   6.703   1.270   4.145
14109TIP3   OH242271   2.352   0.658   0.030
14109TIP3    H142272   2.390   0.700   0.108
14109TIP3    H242273   2.292   0.592   0.066
14110TIP3   OH242274   4.053   3.026   1.955
14110TIP3    H142275   3.966   3.059   1.977
14110TIP3    H242276   4.068   2.954   2.017
14111TIP3   OH242277   3.228   4.444   2.616
14111TIP3    H142278   3.134   4.434   2.603
14111TIP3    H242279   3.238   4.446   2.712
14112TIP3   OH242280   6.564   0.605   6.478
14112TIP3    H142281   6.514   0.624   6.558
14112TIP3    H242282   6.573   0.510   6.478
14113TIP3   OH242283   3.827   3.063   6.501
14113TIP3    H142284   3.803   3.146   6.544
14113TIP3    H242285   3.922   3.059   6.508
14114TIP3   OH242286   3.124   1.389   5.105
14114TIP3    H142287   3.108   1.294   5.107
14114TIP3    H242288   3.212   1.398   5.141
14115TIP3   OH242289   2.399   0.988   3.901
14115TIP3    H142290   2.491   0.976   3.925
14115TIP3    H242291   2.397   0.978   3.806
14116TIP3   OH242292   6.723   3.058   3.484
14116TIP3    H142293   6.640   3.019   3.459
14116TIP3    H242294   6.789   2.997   3.450
14117TIP3   OH242295   0.522   2.828   3.600
14117TIP3    H142296   0.455   2.764   3.624
14117TIP3    H242297   0.582   2.829   3.675
14118TIP3   OH242298   0.747   6.493   2.112
14118TIP3    H142299   0.679   6.552   2.145
14118TIP3    H242300   0.700   6.412   2.092
14119TIP3   OH242301   1.669   3.047   1.492
14119TIP3    H142302   1.625   2.991   1.555
14119TIP3    H242303   1.683   3.130   1.538
14120TIP3   OH242304   3.839   6.438   1.199
14120TIP3    H142305   3.840   6.495   1.276
14120TIP3    H242306   3.888   6.487   1.132
14121TIP3   OH242307   3.077   4.119   4.783
14121TIP3    H142308   2.993   4.152   4.751
14121TIP3    H242309   3.084   4.031   4.745
14122TIP3   OH242310   0.617   6.852   4.872
14122TIP3    H142311   0.647   6.853   4.781
14122TIP3    H242312   0.558   6.776   4.877
14123TIP3   OH242313   2.642   1.051   2.313
14123TIP3    H142314   2.567   1.068   2.371
14123TIP3    H242315   2.604   1.052   2.225
14124TIP3   OH242316   1.677   1.275   1.036
14124TIP3    H142317   1.727   1.227   1.102
14124TIP3    H242318   1.600   1.221   1.021
14125TIP3   OH242319   2.985   2.335   1.935
14125TIP3    H142320   2.967   2.389   1.858
14125TIP3    H242321   3.038   2.391   1.992
14126TIP3   OH242322   0.578   0.958   4.037
14126TIP3    H142323   0.557   0.876   4.083
14126TIP3    H242324   0.495   0.983   3.996
14127TIP3   OH242325   5.628   4.135   3.771
14127TIP3    H142326   5.703   4.195   3.771
14127TIP3    H242327   5.659   4.058   3.724
14128TIP3   OH242328   0.497   0.179   1.885
14128TIP3    H142329   0.482   0.146   1.973
14128TIP3    H242330   0.411   0.178   1.843
14129TIP3   OH242331   3.937   1.151   6.472
14129TIP3    H142332   3.985   1.207   6.532
14129TIP3    H242333   3.981   1.160   6.388
14130TIP3   OH242334   5.574   5.613   4.213
14130TIP3    H142335   5.597   5.553   4.285
14130TIP3    H242336   5.613   5.696   4.240
14131TIP3   OH242337   0.552   2.879   0.169
14131TIP3    H142338   0.601   2.955   0.200
14131TIP3    H242339   0.461   2.897   0.194
14132TIP3   OH242340   2.545   7.047   6.375
14132TIP3    H142341   2.512   7.136   6.386
14132TIP3    H242342   2.493   6.995   6.437
14133TIP3   OH242343   2.046   2.864   1.751
14133TIP3    H142344   2.042   2.940   1.693
14133TIP3    H242345   1.986   2.885   1.823
14134TIP3   OH242346   2.487   1.223   0.361
14134TIP3    H142347   2.448   1.161   0.422
14134TIP3    H242348   2.421   1.234   0.292
14135TIP3   OH242349   1.971   0.429   6.208
14135TIP3    H142350   1.885   0.434   6.165
14135TIP3    H242351   1.950   0.403   6.298
14136TIP3   OH242352   7.391   5.171   0.246
14136TIP3    H142353   7.407   5.194   0.337
14136TIP3    H242354   7.386   5.075   0.246
14137TIP3   OH242355   4.349   5.288   1.545
14137TIP3    H142356   4.408   5.363   1.533
14137TIP3    H242357   4.272   5.325   1.586
14138TIP3   OH242358   8.166   2.182   0.252
14138TIP3    H142359   8.074   2.164   0.232
14138TIP3    H242360   8.190   2.253   0.191
14139TIP3   OH242361   1.192   0.857   6.545
14139TIP3    H142362   1.147   0.777   6.570
14139TIP3    H242363   1.148   0.886   6.465
14140TIP3   OH242364   1.851   0.972   0.318
14140TIP3    H142365   1.861   0.944   0.409
14140TIP3    H242366   1.789   1.045   0.322
14141TIP3   OH242367   7.670   0.934   0.497
14141TIP3    H142368   7.668   0.859   0.556
14141TIP3    H242369   7.733   0.994   0.536
14142TIP3   OH242370   5.998   4.999   4.590
14142TIP3    H142371   6.028   4.984   4.500
14142TIP3    H242372   5.909   4.963   4.591
14143TIP3   OH242373   0.398   1.698   2.360
14143TIP3    H142374   0.469   1.754   2.328
14143TIP3    H242375   0.395   1.625   2.298
14144TIP3   OH242376   7.863   7.430   2.402
14144TIP3    H142377   7.768   7.444   2.403
14144TIP3    H242378   7.874   7.341   2.369
14145TIP3   OH242379   7.245   6.105   2.837
14145TIP3    H142380   7.157   6.142   2.841
14145TIP3    H242381   7.256   6.078   2.746
14146TIP3   OH242382   6.207   2.190   2.363
14146TIP3    H142383   6.261   2.267   2.379
14146TIP3    H242384   6.132   2.223   2.314
14147TIP3   OH242385   3.474   7.668   5.136
14147TIP3    H142386   3.415   7.594   5.144
14147TIP3    H242387   3.442   7.717   5.060
14148TIP3   OH242388   7.843   0.461   3.273
14148TIP3    H142389   7.784   0.392   3.246
14148TIP3    H242390   7.890   0.486   3.193
14149TIP3   OH242391   4.504   6.663   6.474
14149TIP3    H142392   4.525   6.736   6.415
14149TIP3    H242393   4.580   6.605   6.469
14150TIP3   OH242394   6.368   3.645   5.131
14150TIP3    H142395   6.316   3.723   5.111
14150TIP3    H242396   6.459   3.675   5.126
14151TIP3   OH242397   2.985   5.193   2.593
14151TIP3    H142398   3.008   5.283   2.572
14151TIP3    H242399   3.069   5.150   2.609
14152TIP3   OH242400   5.684   2.547   0.677
14152TIP3    H142401   5.661   2.621   0.734
14152TIP3    H242402   5.754   2.502   0.723
14153TIP3   OH242403   1.329   0.477   6.710
14153TIP3    H142404   1.342   0.536   6.784
14153TIP3    H242405   1.305   0.534   6.637
14154TIP3   OH242406   3.489   6.640   2.523
14154TIP3    H142407   3.512   6.556   2.483
14154TIP3    H242408   3.526   6.634   2.612
14155TIP3   OH242409   0.972   6.324   5.479
14155TIP3    H142410   0.943   6.252   5.536
14155TIP3    H242411   1.056   6.294   5.445
14156TIP3   OH242412   4.513   0.488   0.729
14156TIP3    H142413   4.600   0.452   0.714
14156TIP3    H242414   4.497   0.545   0.654
14157TIP3   OH242415   1.903   0.795   3.752
14157TIP3    H142416   1.891   0.874   3.805
14157TIP3    H242417   1.863   0.725   3.805
14158TIP3   OH242418   5.344   1.651   1.161
14158TIP3    H142419   5.315   1.569   1.201
14158TIP3    H242420   5.265   1.689   1.124
14159TIP3   OH242421   0.431   0.609   2.790
14159TIP3    H142422   0.513   0.561   2.774
14159TIP3    H242423   0.419   0.663   2.712
14160TIP3   OH242424   7.552   1.598   1.426
14160TIP3    H142425   7.569   1.663   1.495
14160TIP3    H242426   7.639   1.563   1.405
14161TIP3   OH242427   4.321   5.555   0.092
14161TIP3    H142428   4.396   5.500   0.115
14161TIP3    H242429   4.319   5.554  -0.004
14162TIP3   OH242430   5.988   6.493   3.844
14162TIP3    H142431   5.976   6.575   3.892
14162TIP3    H242432   5.908   6.443   3.863
14163TIP3   OH242433   3.590   0.066   5.520
14163TIP3    H142434   3.544   0.053   5.603
14163TIP3    H242435   3.531   0.119   5.468
14164TIP3   OH242436   0.671   7.587   0.945
14164TIP3    H142437   0.656   7.535   0.867
14164TIP3    H242438   0.754   7.555   0.981
14165TIP3   OH242439   3.374   2.348   3.359
14165TIP3    H142440   3.321   2.373   3.434
14165TIP3    H242441   3.449   2.407   3.361
14166TIP3   OH242442   1.182   7.030   2.524
14166TIP3    H142443   1.125   7.098   2.488
14166TIP3    H242444   1.173   6.957   2.462
14167TIP3   OH242445   8.047   2.131   0.640
14167TIP3    H142446   8.142   2.134   0.630
14167TIP3    H242447   8.014   2.182   0.565
14168TIP3   OH242448   7.080   3.223   4.741
14168TIP3    H142449   7.137   3.200   4.814
14168TIP3    H242450   7.114   3.307   4.709
14169TIP3   OH242451   3.375   2.374   0.336
14169TIP3    H142452   3.431   2.318   0.282
14169TIP3    H242453   3.323   2.423   0.273
14170TIP3   OH242454   5.164   0.719   1.026
14170TIP3    H142455   5.201   0.803   0.998
14170TIP3    H242456   5.078   0.716   0.986
14171TIP3   OH242457   2.747   2.680   0.385
14171TIP3    H142458   2.722   2.716   0.300
14171TIP3    H242459   2.711   2.742   0.449
14172TIP3   OH242460   6.320   7.389   5.959
14172TIP3    H142461   6.372   7.468   5.971
14172TIP3    H242462   6.375   7.318   5.992
14173TIP3   OH242463   6.743   5.335   4.666
14173TIP3    H142464   6.824   5.285   4.659
14173TIP3    H242465   6.674   5.273   4.645
14174TIP3   OH242466   8.332   3.124   6.707
14174TIP3    H142467   8.267   3.073   6.659
14174TIP3    H242468   8.326   3.212   6.671
14175TIP3   OH242469   2.472   4.844   2.753
14175TIP3    H142470   2.426   4.761   2.768
14175TIP3    H242471   2.542   4.844   2.818
14176TIP3   OH242472   6.248   2.191   5.096
14176TIP3    H142473   6.301   2.194   5.016
14176TIP3    H242474   6.163   2.226   5.070
14177TIP3   OH242475   4.131   6.335   2.905
14177TIP3    H142476   4.210   6.388   2.915
14177TIP3    H242477   4.114   6.335   2.810
14178TIP3   OH242478   3.473   4.148   2.635
14178TIP3    H142479   3.508   4.236   2.631
14178TIP3    H242480   3.503   4.113   2.719
14179TIP3   OH242481   3.526   3.129   3.749
14179TIP3    H142482   3.437   3.151   3.720
14179TIP3    H242483   3.583   3.171   3.684
14180TIP3   OH242484   0.451   5.707   2.728
14180TIP3    H142485   0.494   5.622   2.740
14180TIP3    H242486   0.492   5.743   2.649
14181TIP3   OH242487   5.839   6.022   2.909
14181TIP3    H142488   5.914   5.999   2.854
14181TIP3    H242489   5.771   5.959   2.885
14182TIP3   OH242490   1.384   0.877   1.163
14182TIP3    H142491   1.340   0.918   1.237
14182TIP3    H242492   1.315   0.868   1.097
14183TIP3   OH242493   5.210   0.433   0.580
14183TIP3    H142494   5.180   0.381   0.506
14183TIP3    H242495   5.186   0.523   0.558
14184TIP3   OH242496   7.623   0.532   0.904
14184TIP3    H142497   7.594   0.510   0.992
14184TIP3    H242498   7.640   0.627   0.908
14185TIP3   OH242499   1.414   4.000   0.414
14185TIP3    H142500   1.503   3.973   0.437
14185TIP3    H242501   1.361   3.922   0.425
14186TIP3   OH242502   2.433   2.520   2.318
14186TIP3    H142503   2.413   2.586   2.251
14186TIP3    H242504   2.499   2.464   2.278
14187TIP3   OH242505   2.817   3.933   6.272
14187TIP3    H142506   2.812   3.913   6.365
14187TIP3    H242507   2.726   3.939   6.244
14188TIP3   OH242508   4.890   4.269   0.921
14188TIP3    H142509   4.799   4.291   0.938
14188TIP3    H242510   4.914   4.208   0.991
14189TIP3   OH242511   2.024   4.146   2.996
14189TIP3    H142512   1.934   4.116   3.008
14189TIP3    H242513   2.017   4.223   2.940
14190TIP3   OH242514   7.385   3.430   0.695
14190TIP3    H142515   7.361   3.518   0.724
14190TIP3    H242516   7.429   3.444   0.611
14191TIP3   OH242517   2.489   1.923   5.540
14191TIP3    H142518   2.439   1.887   5.614
14191TIP3    H242519   2.568   1.869   5.536
14192TIP3   OH242520   6.597   7.435   1.539
14192TIP3    H142521   6.636   7.508   1.586
14192TIP3    H242522   6.650   7.359   1.564
14193TIP3   OH242523   3.706   6.391   4.898
14193TIP3    H142524   3.717   6.460   4.833
14193TIP3    H242525   3.646   6.428   4.963
14194TIP3   OH242526   1.772   6.390   2.512
14194TIP3    H142527   1.826   6.395   2.591
14194TIP3    H242528   1.785   6.301   2.480
14195TIP3   OH242529   3.462   6.748   6.690
14195TIP3    H142530   3.491   6.824   6.639
14195TIP3    H242531   3.433   6.785   6.773
14196TIP3   OH242532   5.056   0.476   2.907
14196TIP3    H142533   5.135   0.483   2.854
14196TIP3    H242534   5.074   0.405   2.968
14197TIP3   OH242535   5.779   2.555   3.272
14197TIP3    H142536   5.762   2.463   3.295
14197TIP3    H242537   5.773   2.601   3.356
14198TIP3   OH242538   2.768   3.063   1.062
14198TIP3    H142539   2.848   3.013   1.042
14198TIP3    H242540   2.795   3.123   1.131
14199TIP3   OH242541   4.672   2.249   1.298
14199TIP3    H142542   4.741   2.282   1.240
14199TIP3    H242543   4.715   2.239   1.383
14200TIP3   OH242544   4.411   1.737   4.256
14200TIP3    H142545   4.462   1.735   4.175
14200TIP3    H242546   4.320   1.732   4.226
14201TIP3   OH242547   7.028   1.276   0.177
14201TIP3    H142548   7.085   1.205   0.205
14201TIP3    H242549   7.083   1.332   0.123
14202TIP3   OH242550   1.424   4.603   5.400
14202TIP3    H142551   1.454   4.605   5.309
14202TIP3    H242552   1.503   4.618   5.452
14203TIP3   OH242553   3.232   1.536   5.396
14203TIP3    H142554   3.293   1.498   5.332
14203TIP3    H242555   3.231   1.629   5.374
14204TIP3   OH242556   7.052   0.904   5.127
14204TIP3    H142557   6.999   0.948   5.060
14204TIP3    H242558   6.989   0.879   5.194
14205TIP3   OH242559   4.225   6.834   6.121
14205TIP3    H142560   4.144   6.783   6.118
14205TIP3    H242561   4.251   6.844   6.030
14206TIP3   OH242562   4.670   0.409   5.962
14206TIP3    H142563   4.713   0.432   6.044
14206TIP3    H242564   4.581   0.442   5.970
14207TIP3   OH242565   4.205   6.600   6.328
14207TIP3    H142566   4.230   6.508   6.339
14207TIP3    H242567   4.272   6.636   6.269
14208TIP3   OH242568   3.622   0.730   6.626
14208TIP3    H142569   3.636   0.823   6.642
14208TIP3    H242570   3.570   0.727   6.546
14209TIP3   OH242571   6.667   3.169   1.141
14209TIP3    H142572   6.655   3.104   1.072
14209TIP3    H242573   6.681   3.117   1.220
14210TIP3   OH242574   6.039   6.608   3.137
14210TIP3    H142575   6.076   6.689   3.101
14210TIP3    H242576   5.952   6.633   3.168
14211TIP3   OH242577   3.628   4.366   3.934
14211TIP3    H142578   3.644   4.323   3.850
14211TIP3    H242579   3.571   4.306   3.982
14212TIP3   OH242580   0.540   5.907   4.341
14212TIP3    H142581   0.533   5.847   4.267
14212TIP3    H242582   0.466   5.967   4.330
14213TIP3   OH242583   4.992   6.800   4.189
14213TIP3    H142584   4.915   6.826   4.139
14213TIP3    H242585   5.047   6.879   4.191
14214TIP3   OH242586   0.678   4.223   0.318
14214TIP3    H142587   0.769   4.223   0.287
14214TIP3    H242588   0.675   4.153   0.383
14215TIP3   OH242589   8.209   4.834   6.071
14215TIP3    H142590   8.254   4.913   6.103
14215TIP3    H242591   8.133   4.867   6.024
14216TIP3   OH242592   4.175   0.669   1.239
14216TIP3    H142593   4.271   0.674   1.240
14216TIP3    H242594   4.152   0.670   1.146
14217TIP3   OH242595   0.038   6.667   1.938
14217TIP3    H142596   0.043   6.762   1.923
14217TIP3    H242597  -0.049   6.642   1.906
14218TIP3   OH242598   1.076   4.706   4.530
14218TIP3    H142599   1.017   4.745   4.595
14218TIP3    H242600   1.026   4.633   4.494
14219TIP3   OH242601   1.537   5.752   0.482
14219TIP3    H142602   1.589   5.697   0.423
14219TIP3    H242603   1.600   5.786   0.545
14220TIP3   OH242604   4.078   0.156   4.890
14220TIP3    H142605   4.172   0.169   4.896
14220TIP3    H242606   4.063   0.068   4.926
14221TIP3   OH242607   4.019   0.260   0.719
14221TIP3    H142608   3.966   0.299   0.649
14221TIP3    H242609   4.094   0.320   0.728
14222TIP3   OH242610   4.858   7.497   5.047
14222TIP3    H142611   4.797   7.451   5.105
14222TIP3    H242612   4.805   7.563   5.003
14223TIP3   OH242613   3.104   7.096   3.936
14223TIP3    H142614   3.126   7.007   3.909
14223TIP3    H242615   3.009   7.101   3.928
14224TIP3   OH242616   8.206   0.729   6.012
14224TIP3    H142617   8.269   0.797   5.986
14224TIP3    H242618   8.137   0.734   5.945
14225TIP3   OH242619   5.953   3.789   1.559
14225TIP3    H142620   6.035   3.808   1.605
14225TIP3    H242621   5.964   3.700   1.526
14226TIP3   OH242622   7.520   1.842   3.385
14226TIP3    H142623   7.471   1.826   3.465
14226TIP3    H242624   7.610   1.855   3.414
14227TIP3   OH242625   3.614   6.984   2.887
14227TIP3    H142626   3.665   6.916   2.842
14227TIP3    H242627   3.665   7.003   2.966
14228TIP3   OH242628   0.383   2.397   0.099
14228TIP3    H142629   0.450   2.357   0.043
14228TIP3    H242630   0.431   2.426   0.177
14229TIP3   OH242631   2.436   1.019   6.574
14229TIP3    H142632   2.432   1.088   6.507
14229TIP3    H242633   2.371   0.955   6.546
14230TIP3   OH242634   7.535   0.437   4.925
14230TIP3    H142635   7.505   0.498   4.858
14230TIP3    H242636   7.470   0.443   4.994
14231TIP3   OH242637   0.466   0.697   5.624
14231TIP3    H142638   0.525   0.761   5.663
14231TIP3    H242639   0.477   0.619   5.678
14232TIP3   OH242640   4.418   2.658   2.971
14232TIP3    H142641   4.343   2.598   2.966
14232TIP3    H242642   4.491   2.602   2.997
14233TIP3   OH242643   1.023   6.038   0.409
14233TIP3    H142644   0.964   6.085   0.468
14233TIP3    H242645   1.078   5.985   0.466
14234TIP3   OH242646   5.509   0.844   4.695
14234TIP3    H142647   5.546   0.932   4.688
14234TIP3    H242648   5.414   0.859   4.703
14235TIP3   OH242649   3.682   2.837   4.394
14235TIP3    H142650   3.684   2.885   4.311
14235TIP3    H242651   3.676   2.745   4.368
14236TIP3   OH242652   1.177   5.896   3.176
14236TIP3    H142653   1.148   5.871   3.088
14236TIP3    H242654   1.161   5.818   3.229
14237TIP3   OH242655   6.318   5.639   4.875
14237TIP3    H142656   6.247   5.687   4.916
14237TIP3    H242657   6.286   5.549   4.868
14238TIP3   OH242658   3.737   1.168   2.587
14238TIP3    H142659   3.708   1.195   2.500
14238TIP3    H242660   3.827   1.136   2.573
14239TIP3   OH242661   0.600   2.806   2.321
14239TIP3    H142662   0.618   2.750   2.396
14239TIP3    H242663   0.587   2.893   2.358
14240TIP3   OH242664   7.409   2.087   4.874
14240TIP3    H142665   7.470   2.154   4.843
14240TIP3    H242666   7.400   2.026   4.801
14241TIP3   OH242667   8.226   6.509   0.757
14241TIP3    H142668   8.299   6.448   0.767
14241TIP3    H242669   8.240   6.550   0.672
14242TIP3   OH242670   7.361   7.474   4.551
14242TIP3    H142671   7.376   7.548   4.493
14242TIP3    H242672   7.396   7.398   4.504
14243TIP3   OH242673   1.951   0.145   1.289
14243TIP3    H142674   1.948   0.127   1.383
14243TIP3    H242675   2.043   0.137   1.266
14244TIP3   OH242676   6.146   1.719   2.956
14244TIP3    H142677   6.166   1.753   3.043
14244TIP3    H242678   6.051   1.726   2.949
14245TIP3   OH242679   3.563   6.711   3.501
14245TIP3    H142680   3.477   6.697   3.541
14245TIP3    H242681   3.617   6.746   3.571
14246TIP3   OH242682   5.573   5.817   0.429
14246TIP3    H142683   5.485   5.783   0.410
14246TIP3    H242684   5.572   5.906   0.395
14247TIP3   OH242685   1.002   2.929   5.774
14247TIP3    H142686   1.004   2.886   5.860
14247TIP3    H242687   1.083   2.981   5.772
14248TIP3   OH242688   5.185   1.455   1.273
14248TIP3    H142689   5.158   1.364   1.259
14248TIP3    H242690   5.127   1.487   1.342
14249TIP3   OH242691   4.694   4.774   2.120
14249TIP3    H142692   4.678   4.697   2.175
14249TIP3    H242693   4.658   4.847   2.171
14250TIP3   OH242694   7.594   1.466   4.901
14250TIP3    H142695   7.538   1.412   4.846
14250TIP3    H242696   7.669   1.410   4.921
14251TIP3   OH242697   8.220   7.493   1.508
14251TIP3    H142698   8.249   7.584   1.516
14251TIP3    H242699   8.300   7.441   1.513
14252TIP3   OH242700   6.280   7.199   1.126
14252TIP3    H142701   6.309   7.175   1.214
14252TIP3    H242702   6.205   7.143   1.109
14253TIP3   OH242703   6.192   4.786   1.493
14253TIP3    H142704   6.155   4.741   1.418
14253TIP3    H242705   6.123   4.846   1.522
14254TIP3   OH242706   7.219   7.244   4.787
14254TIP3    H142707   7.310   7.264   4.768
14254TIP3    H242708   7.169   7.310   4.738
14255TIP3   OH242709   6.358   5.505   5.266
14255TIP3    H142710   6.300   5.430   5.256
14255TIP3    H242711   6.406   5.510   5.183
14256TIP3   OH242712   2.921   0.737   6.742
14256TIP3    H142713   2.900   0.812   6.796
14256TIP3    H242714   2.844   0.726   6.685
14257TIP3   OH242715   0.663   6.281   1.924
14257TIP3    H142716   0.585   6.248   1.968
14257TIP3    H242717   0.630   6.334   1.852
14258TIP3   OH242718   3.603   5.187   4.504
14258TIP3    H142719   3.636   5.252   4.443
14258TIP3    H242720   3.512   5.211   4.519
14259TIP3   OH242721   2.032   3.660   4.499
14259TIP3    H142722   2.126   3.641   4.505
14259TIP3    H242723   2.026   3.755   4.511
14260TIP3   OH242724   5.262   4.767   4.967
14260TIP3    H142725   5.231   4.760   4.877
14260TIP3    H242726   5.267   4.676   4.997
14261TIP3   OH242727   4.208   4.486   0.717
14261TIP3    H142728   4.296   4.453   0.697
14261TIP3    H242729   4.151   4.438   0.657
14262TIP3   OH242730   7.377   4.320   6.517
14262TIP3    H142731   7.445   4.278   6.569
14262TIP3    H242732   7.396   4.414   6.524
14263TIP3   OH242733   3.367   7.482   0.327
14263TIP3    H142734   3.402   7.396   0.350
14263TIP3    H242735   3.313   7.466   0.250
14264TIP3   OH242736   8.113   1.873   1.091
14264TIP3    H142737   8.029   1.906   1.058
14264TIP3    H242738   8.132   1.797   1.037
14265TIP3   OH242739   5.837   4.548   4.643
14265TIP3    H142740   5.837   4.510   4.555
14265TIP3    H242741   5.930   4.550   4.668
14266TIP3   OH242742   6.825   2.116   3.354
14266TIP3    H142743   6.798   2.207   3.348
14266TIP3    H242744   6.744   2.067   3.367
14267TIP3   OH242745   0.451   7.652   4.606
14267TIP3    H142746   0.492   7.606   4.679
14267TIP3    H242747   0.469   7.596   4.529
14268TIP3   OH242748   0.942   3.346   4.962
14268TIP3    H142749   1.036   3.344   4.947
14268TIP3    H242750   0.906   3.391   4.885
14269TIP3   OH242751   4.742   7.071   1.132
14269TIP3    H142752   4.740   6.975   1.126
14269TIP3    H242753   4.686   7.100   1.059
14270TIP3   OH242754   6.878   6.553   3.501
14270TIP3    H142755   6.858   6.481   3.442
14270TIP3    H242756   6.864   6.518   3.588
14271TIP3   OH242757   2.602   4.705   4.414
14271TIP3    H142758   2.688   4.674   4.388
14271TIP3    H242759   2.618   4.790   4.454
14272TIP3   OH242760   6.189   0.859   0.683
14272TIP3    H142761   6.240   0.892   0.609
14272TIP3    H242762   6.154   0.775   0.652
14273TIP3   OH242763   5.423   5.293   3.710
14273TIP3    H142764   5.387   5.319   3.625
14273TIP3    H242765   5.406   5.369   3.767
14274TIP3   OH242766   5.082   0.236   3.001
14274TIP3    H142767   5.007   0.180   3.020
14274TIP3    H242768   5.158   0.184   3.027
14275TIP3   OH242769   1.761   0.883   6.457
14275TIP3    H142770   1.840   0.937   6.450
14275TIP3    H242771   1.739   0.861   6.366
14276TIP3   OH242772   5.331   7.773   4.993
14276TIP3    H142773   5.338   7.810   5.081
14276TIP3    H242774   5.300   7.846   4.939
14277TIP3   OH242775   1.902   2.270   3.605
14277TIP3    H142776   1.987   2.265   3.563
14277TIP3    H242777   1.840   2.287   3.534
14278TIP3   OH242778   5.075   5.885   0.147
14278TIP3    H142779   5.147   5.893   0.086
14278TIP3    H242780   5.068   5.790   0.164
14279TIP3   OH242781   7.439   7.123   6.538
14279TIP3    H142782   7.400   7.210   6.522
14279TIP3    H242783   7.387   7.063   6.485
14280TIP3   OH242784   4.466   3.763   0.228
14280TIP3    H142785   4.481   3.753   0.322
14280TIP3    H242786   4.553   3.778   0.192
14281TIP3   OH242787   0.080   0.856   0.956
14281TIP3    H142788   0.038   0.938   0.932
14281TIP3    H242789   0.012   0.790   0.945
14282TIP3   OH242790   3.747   0.959   0.124
14282TIP3    H142791   3.834   0.965   0.085
14282TIP3    H242792   3.742   1.036   0.182
14283TIP3   OH242793   1.093   0.127   0.582
14283TIP3    H142794   1.109   0.088   0.668
14283TIP3    H242795   1.082   0.051   0.524
14284TIP3   OH242796   3.771   0.695   0.263
14284TIP3    H142797   3.749   0.722   0.174
14284TIP3    H242798   3.767   0.776   0.314
14285TIP3   OH242799   2.723   0.135   0.584
14285TIP3    H142800   2.702   0.045   0.560
14285TIP3    H242801   2.722   0.135   0.680
14286TIP3   OH242802   0.843   1.337   4.937
14286TIP3    H142803   0.852   1.298   5.024
14286TIP3    H242804   0.787   1.277   4.889
14287TIP3   OH242805   1.988   5.806   4.408
14287TIP3    H142806   2.030   5.814   4.494
14287TIP3    H242807   1.911   5.861   4.414
14288TIP3   OH242808   4.191   2.413   6.225
14288TIP3    H142809   4.275   2.446   6.194
14288TIP3    H242810   4.140   2.491   6.246
14289TIP3   OH242811   4.483   7.415   6.736
14289TIP3    H142812   4.428   7.477   6.785
14289TIP3    H242813   4.565   7.411   6.786
14290TIP3   OH242814   4.196   4.403   6.012
14290TIP3    H142815   4.113   4.451   6.015
14290TIP3    H242816   4.212   4.388   5.919
14291TIP3   OH242817   5.944   1.185   5.032
14291TIP3    H142818   5.919   1.257   5.090
14291TIP3    H242819   6.009   1.223   4.973
14292TIP3   OH242820   1.979   3.983   6.673
14292TIP3    H142821   1.936   4.045   6.615
14292TIP3    H242822   1.957   3.897   6.638
14293TIP3   OH242823   0.387   6.433   1.900
14293TIP3    H142824   0.405   6.370   1.970
14293TIP3    H242825   0.471   6.443   1.855
14294TIP3   OH242826   2.960   5.147   4.731
14294TIP3    H142827   2.873   5.139   4.770
14294TIP3    H242828   2.966   5.239   4.704
14295TIP3   OH242829   0.329   3.273   2.804
14295TIP3    H142830   0.235   3.257   2.796
14295TIP3    H242831   0.341   3.363   2.774
14296TIP3   OH242832   0.486   3.689   0.633
14296TIP3    H142833   0.548   3.700   0.561
14296TIP3    H242834   0.462   3.596   0.630
14297TIP3   OH242835   0.128   5.366   2.322
14297TIP3    H142836   0.052   5.377   2.379
14297TIP3    H242837   0.203   5.389   2.377
14298TIP3   OH242838   4.492   7.323   5.448
14298TIP3    H142839   4.459   7.258   5.510
14298TIP3    H242840   4.462   7.407   5.481
14299TIP3   OH242841   5.882   6.347   2.589
14299TIP3    H142842   5.802   6.302   2.561
14299TIP3    H242843   5.868   6.365   2.682
14300TIP3   OH242844   7.612   0.408   2.946
14300TIP3    H142845   7.537   0.467   2.945
14300TIP3    H242846   7.584   0.332   2.895
14301TIP3   OH242847   2.103   4.829   4.245
14301TIP3    H142848   2.110   4.812   4.339
14301TIP3    H242849   2.009   4.830   4.227
14302TIP3   OH242850   1.244   6.389   1.637
14302TIP3    H142851   1.234   6.300   1.670
14302TIP3    H242852   1.222   6.382   1.544
14303TIP3   OH242853   3.983   1.593   2.109
14303TIP3    H142854   3.892   1.606   2.134
14303TIP3    H242855   4.024   1.552   2.185
14304TIP3   OH242856   5.941   0.678   0.343
14304TIP3    H142857   5.922   0.772   0.339
14304TIP3    H242858   5.876   0.639   0.285
14305TIP3   OH242859   6.521   0.420   4.687
14305TIP3    H142860   6.466   0.390   4.760
14305TIP3    H242861   6.549   0.508   4.714
14306TIP3   OH242862   3.109   5.614   4.887
14306TIP3    H142863   3.172   5.677   4.852
14306TIP3    H242864   3.154   5.576   4.963
14307TIP3   OH242865   6.221   3.446   4.771
14307TIP3    H142866   6.206   3.362   4.813
14307TIP3    H242867   6.145   3.460   4.715
14308TIP3   OH242868   6.628   3.467   4.864
14308TIP3    H142869   6.720   3.484   4.885
14308TIP3    H242870   6.606   3.388   4.913
14309TIP3   OH242871   0.340   6.712   4.787
14309TIP3    H142872   0.277   6.705   4.716
14309TIP3    H242873   0.382   6.626   4.791
14310TIP3   OH242874   4.362   1.198   3.060
14310TIP3    H142875   4.409   1.224   3.139
14310TIP3    H242876   4.366   1.103   3.060
14311TIP3   OH242877   0.830   2.883   6.269
14311TIP3    H142878   0.818   2.788   6.280
14311TIP3    H242879   0.925   2.896   6.279
14312TIP3   OH242880   7.628   5.554   1.336
14312TIP3    H142881   7.681   5.582   1.411
14312TIP3    H242882   7.691   5.517   1.275
14313TIP3   OH242883   7.503   4.864   2.420
14313TIP3    H142884   7.467   4.860   2.509
14313TIP3    H242885   7.566   4.937   2.423
14314TIP3   OH242886   1.422   5.602   1.344
14314TIP3    H142887   1.461   5.689   1.331
14314TIP3    H242888   1.410   5.596   1.439
14315TIP3   OH242889   1.881   7.561   3.401
14315TIP3    H142890   1.960   7.609   3.375
14315TIP3    H242891   1.897   7.471   3.371
14316TIP3   OH242892   3.072   4.908   6.122
14316TIP3    H142893   3.093   4.913   6.029
14316TIP3    H242894   3.080   4.998   6.153
14317TIP3   OH242895   6.647   4.760   3.838
14317TIP3    H142896   6.561   4.777   3.877
14317TIP3    H242897   6.628   4.739   3.746
14318TIP3   OH242898   0.473   1.271   6.722
14318TIP3    H142899   0.494   1.179   6.736
14318TIP3    H242900   0.507   1.290   6.634
14319TIP3   OH242901   7.312   3.680   0.818
14319TIP3    H142902   7.395   3.728   0.817
14319TIP3    H242903   7.247   3.744   0.789
14320TIP3   OH242904   0.873   4.120   2.725
14320TIP3    H142905   0.857   4.202   2.773
14320TIP3    H242906   0.901   4.058   2.793
14321TIP3   OH242907   3.892   0.845   2.234
14321TIP3    H142908   3.848   0.859   2.151
14321TIP3    H242909   3.957   0.776   2.216
14322TIP3   OH242910   7.695   2.838   2.181
14322TIP3    H142911   7.730   2.862   2.095
14322TIP3    H242912   7.630   2.907   2.200
14323TIP3   OH242913   1.148   5.638   6.323
14323TIP3    H142914   1.198   5.709   6.364
14323TIP3    H242915   1.066   5.636   6.371
14324TIP3   OH242916   6.575   4.425   4.208
14324TIP3    H142917   6.596   4.358   4.273
14324TIP3    H242918   6.597   4.508   4.251
14325TIP3   OH242919   7.525   6.863   0.284
14325TIP3    H142920   7.555   6.806   0.213
14325TIP3    H242921   7.445   6.822   0.315
14326TIP3   OH242922   6.960   2.117   2.673
14326TIP3    H142923   7.011   2.047   2.715
14326TIP3    H242924   6.873   2.080   2.663
14327TIP3   OH242925   5.493   2.995   6.572
14327TIP3    H142926   5.537   2.921   6.613
14327TIP3    H242927   5.556   3.067   6.577
14328TIP3   OH242928   4.088   5.852   3.129
14328TIP3    H142929   4.125   5.764   3.120
14328TIP3    H242930   4.024   5.859   3.058
14329TIP3   OH242931   3.190   5.128   0.471
14329TIP3    H142932   3.143   5.105   0.391
14329TIP3    H242933   3.232   5.212   0.450
14330TIP3   OH242934   5.272   0.507   3.962
14330TIP3    H142935   5.328   0.573   4.002
14330TIP3    H242936   5.197   0.499   4.020
14331TIP3   OH242937   6.150   5.380   2.550
14331TIP3    H142938   6.232   5.426   2.569
14331TIP3    H242939   6.176   5.305   2.496
14332TIP3   OH242940   3.316   2.230   2.132
14332TIP3    H142941   3.275   2.150   2.100
14332TIP3    H242942   3.250   2.298   2.118
14333TIP3   OH242943   0.445   1.928   6.577
14333TIP3    H142944   0.394   2.009   6.584
14333TIP3    H242945   0.380   1.858   6.571
14334TIP3   OH242946   4.659   0.774   4.932
14334TIP3    H142947   4.617   0.710   4.876
14334TIP3    H242948   4.621   0.759   5.019
14335TIP3   OH242949   5.892   1.705   1.950
14335TIP3    H142950   5.894   1.775   2.016
14335TIP3    H242951   5.985   1.688   1.931
14336TIP3   OH242952   0.122   7.815   3.736
14336TIP3    H142953   0.179   7.863   3.797
14336TIP3    H242954   0.175   7.740   3.708
14337TIP3   OH242955   2.357   2.746   6.104
14337TIP3    H142956   2.369   2.785   6.017
14337TIP3    H242957   2.445   2.723   6.133
14338TIP3   OH242958   4.257   0.746   5.027
14338TIP3    H142959   4.167   0.741   5.058
14338TIP3    H242960   4.307   0.691   5.087
14339TIP3   OH242961   0.084   1.323   4.569
14339TIP3    H142962   0.037   1.406   4.577
14339TIP3    H242963   0.167   1.338   4.613
14340TIP3   OH242964   1.720   0.641   5.553
14340TIP3    H142965   1.758   0.624   5.467
14340TIP3    H242966   1.758   0.574   5.610
14341TIP3   OH242967   4.411   1.040   3.486
14341TIP3    H142968   4.420   0.945   3.489
14341TIP3    H242969   4.411   1.067   3.578
14342TIP3   OH242970   6.896   5.709   4.688
14342TIP3    H142971   6.975   5.735   4.736
14342TIP3    H242972   6.929   5.667   4.609
14343TIP3   OH242973   0.127   3.880   0.197
14343TIP3    H142974   0.142   3.945   0.265
14343TIP3    H242975   0.036   3.893   0.172
14344TIP3   OH242976   6.539   0.963   4.667
14344TIP3    H142977   6.622   1.001   4.639
14344TIP3    H242978   6.472   1.017   4.624
14345TIP3   OH242979   4.113   4.657   5.834
14345TIP3    H142980   4.024   4.644   5.801
14345TIP3    H242981   4.101   4.691   5.923
14346TIP3   OH242982   1.947   7.081   2.798
14346TIP3    H142983   1.934   7.141   2.724
14346TIP3    H242984   2.041   7.084   2.814
14347TIP3   OH242985   5.707   0.099   5.800
14347TIP3    H142986   5.620   0.074   5.770
14347TIP3    H242987   5.691   0.160   5.872
14348TIP3   OH242988   3.392   0.621   5.346
14348TIP3    H142989   3.458   0.661   5.288
14348TIP3    H242990   3.311   0.667   5.324
14349TIP3   OH242991   2.155   4.792   4.873
14349TIP3    H142992   2.099   4.808   4.797
14349TIP3    H242993   2.224   4.734   4.841
14350TIP3   OH242994   7.309   7.052   4.432
14350TIP3    H142995   7.379   7.086   4.377
14350TIP3    H242996   7.243   7.122   4.432
14351TIP3   OH242997   8.124   1.579   2.716
14351TIP3    H142998   8.188   1.597   2.647
14351TIP3    H242999   8.057   1.526   2.672
14352TIP3   OH243000   4.452   5.374   0.469
14352TIP3    H143001   4.395   5.318   0.416
14352TIP3    H243002   4.396   5.447   0.495
14353TIP3   OH243003   8.208   5.207   5.583
14353TIP3    H143004   8.275   5.271   5.607
14353TIP3    H243005   8.184   5.230   5.493
14354TIP3   OH243006   4.639   4.034   0.446
14354TIP3    H143007   4.595   4.073   0.370
14354TIP3    H243008   4.732   4.042   0.425
14355TIP3   OH243009   5.419   6.553   5.345
14355TIP3    H143010   5.424   6.530   5.437
14355TIP3    H243011   5.504   6.590   5.323
14356TIP3   OH243012   1.296   6.175   4.384
14356TIP3    H143013   1.355   6.114   4.428
14356TIP3    H243014   1.234   6.201   4.453
14357TIP3   OH243015   1.565   2.807   4.339
14357TIP3    H143016   1.521   2.859   4.271
14357TIP3    H243017   1.566   2.718   4.304
14358TIP3   OH243018   1.986   4.526   6.094
14358TIP3    H143019   2.071   4.531   6.049
14358TIP3    H243020   2.005   4.480   6.176
14359TIP3   OH243021   2.285   0.827   2.115
14359TIP3    H143022   2.377   0.815   2.091
14359TIP3    H243023   2.276   0.922   2.125
14360TIP3   OH243024   3.426   7.600   6.726
14360TIP3    H143025   3.517   7.592   6.752
14360TIP3    H243026   3.424   7.672   6.663
14361TIP3   OH243027   1.503   6.005   6.576
14361TIP3    H143028   1.510   6.063   6.501
14361TIP3    H243029   1.582   5.951   6.572
14362TIP3   OH243030   7.056   1.258   5.957
14362TIP3    H143031   7.089   1.348   5.966
14362TIP3    H243032   6.964   1.264   5.983
14363TIP3   OH243033   2.189   6.084   2.478
14363TIP3    H143034   2.189   6.165   2.426
14363TIP3    H243035   2.250   6.102   2.549
14364TIP3   OH243036   0.494   2.174   2.170
14364TIP3    H143037   0.448   2.149   2.250
14364TIP3    H243038   0.455   2.120   2.101
14365TIP3   OH243039   0.192   5.994   3.053
14365TIP3    H143040   0.225   5.954   3.134
14365TIP3    H243041   0.264   5.985   2.991
14366TIP3   OH243042   7.115   4.552   1.311
14366TIP3    H143043   7.031   4.543   1.357
14366TIP3    H243044   7.128   4.647   1.305
14367TIP3   OH243045   5.261   0.686   3.759
14367TIP3    H143046   5.285   0.605   3.803
14367TIP3    H243047   5.206   0.732   3.822
14368TIP3   OH243048   0.715   4.120   3.427
14368TIP3    H143049   0.799   4.103   3.470
14368TIP3    H243050   0.691   4.208   3.455
14369TIP3   OH243051   1.584   4.983   3.721
14369TIP3    H143052   1.638   5.053   3.758
14369TIP3    H243053   1.630   4.956   3.642
14370TIP3   OH243054   3.508   5.730   1.419
14370TIP3    H143055   3.473   5.783   1.349
14370TIP3    H243056   3.594   5.701   1.387
14371TIP3   OH243057   7.999   6.405   1.261
14371TIP3    H143058   8.013   6.353   1.340
14371TIP3    H243059   8.060   6.479   1.269
14372TIP3   OH243060   0.053   7.148   6.380
14372TIP3    H143061   0.073   7.144   6.286
14372TIP3    H243062   0.073   7.239   6.404
14373TIP3   OH243063   5.407   0.404   1.536
14373TIP3    H143064   5.476   0.424   1.599
14373TIP3    H243065   5.452   0.398   1.452
14374TIP3   OH243066   1.165   7.705   1.704
14374TIP3    H143067   1.100   7.688   1.635
14374TIP3    H243068   1.115   7.750   1.773
14375TIP3   OH243069   5.219   3.077   1.664
14375TIP3    H143070   5.205   3.068   1.569
14375TIP3    H243071   5.313   3.066   1.675
14376TIP3   OH243072   1.850   4.681   2.794
14376TIP3    H143073   1.819   4.746   2.732
14376TIP3    H243074   1.912   4.627   2.744
14377TIP3   OH243075   5.611   0.360   3.247
14377TIP3    H143076   5.571   0.443   3.225
14377TIP3    H243077   5.702   0.368   3.218
14378TIP3   OH243078   4.813   1.562   2.987
14378TIP3    H143079   4.838   1.568   2.895
14378TIP3    H243080   4.892   1.530   3.031
14379TIP3   OH243081   0.659   7.451   1.720
14379TIP3    H143082   0.659   7.366   1.763
14379TIP3    H243083   0.661   7.514   1.792
14380TIP3   OH243084   1.757   7.556   1.391
14380TIP3    H143085   1.678   7.551   1.337
14380TIP3    H243086   1.747   7.487   1.456
14381TIP3   OH243087   1.558   2.499   3.942
14381TIP3    H143088   1.614   2.423   3.924
14381TIP3    H243089   1.509   2.512   3.861
14382TIP3   OH243090   4.657   6.049   4.099
14382TIP3    H143091   4.682   6.043   4.191
14382TIP3    H243092   4.702   6.127   4.067
14383TIP3   OH243093   6.311   2.457   5.491
14383TIP3    H143094   6.228   2.477   5.534
14383TIP3    H243095   6.377   2.492   5.551
14384TIP3   OH243096   0.818   5.631   2.650
14384TIP3    H143097   0.856   5.602   2.567
14384TIP3    H243098   0.748   5.568   2.668
14385TIP3   OH243099   6.372   5.384   0.400
14385TIP3    H143100   6.459   5.353   0.375
14385TIP3    H243101   6.318   5.304   0.400
14386TIP3   OH243102   5.787   2.918   5.104
14386TIP3    H143103   5.757   2.987   5.044
14386TIP3    H243104   5.725   2.846   5.091
14387TIP3   OH243105   4.030   4.154   3.128
14387TIP3    H143106   4.048   4.061   3.118
14387TIP3    H243107   4.051   4.192   3.042
14388TIP3   OH243108   3.887   6.248   2.986
14388TIP3    H143109   3.976   6.275   2.964
14388TIP3    H243110   3.888   6.236   3.081
14389TIP3   OH243111   2.993   4.045   0.792
14389TIP3    H143112   2.904   4.069   0.766
14389TIP3    H243113   2.984   3.959   0.832
14390TIP3   OH243114   7.112   1.397   6.425
14390TIP3    H143115   7.131   1.485   6.456
14390TIP3    H243116   7.022   1.402   6.394
14391TIP3   OH243117   0.881   3.260   1.257
14391TIP3    H143118   0.796   3.280   1.217
14391TIP3    H243119   0.875   3.297   1.345
14392TIP3   OH243120   3.478   7.531   1.160
14392TIP3    H143121   3.458   7.451   1.208
14392TIP3    H243122   3.494   7.596   1.229
14393TIP3   OH243123   3.787   7.222   0.597
14393TIP3    H143124   3.773   7.316   0.583
14393TIP3    H243125   3.700   7.185   0.607
14394TIP3   OH243126   4.206   1.350   4.594
14394TIP3    H143127   4.222   1.267   4.639
14394TIP3    H243128   4.292   1.376   4.561
14395TIP3   OH243129   7.322   4.154   3.954
14395TIP3    H143130   7.418   4.161   3.961
14395TIP3    H243131   7.293   4.135   4.043
14396TIP3   OH243132   0.532   5.866   5.258
14396TIP3    H143133   0.603   5.894   5.316
14396TIP3    H243134   0.513   5.943   5.204
14397TIP3   OH243135   3.238   6.291   0.156
14397TIP3    H143136   3.325   6.292   0.117
14397TIP3    H243137   3.205   6.380   0.142
14398TIP3   OH243138   6.211   1.114   2.701
14398TIP3    H143139   6.231   1.040   2.644
14398TIP3    H243140   6.297   1.144   2.732
14399TIP3   OH243141   2.404   2.026   3.777
14399TIP3    H143142   2.367   2.006   3.691
14399TIP3    H243143   2.339   1.992   3.839
14400TIP3   OH243144   0.633   1.146   5.852
14400TIP3    H143145   0.576   1.219   5.876
14400TIP3    H243146   0.721   1.176   5.875
14401TIP3   OH243147   5.946   4.130   5.985
14401TIP3    H143148   5.852   4.115   5.993
14401TIP3    H243149   5.963   4.206   6.042
14402TIP3   OH243150   7.412   6.394   5.478
14402TIP3    H143151   7.431   6.487   5.471
14402TIP3    H243152   7.491   6.356   5.516
14403TIP3   OH243153   1.978   0.435   2.783
14403TIP3    H143154   1.935   0.366   2.732
14403TIP3    H243155   2.042   0.389   2.837
14404TIP3   OH243156   6.670   1.616   6.725
14404TIP3    H143157   6.684   1.571   6.808
14404TIP3    H243158   6.683   1.708   6.745
14405TIP3   OH243159   2.439   1.104   2.510
14405TIP3    H143160   2.382   1.171   2.546
14405TIP3    H243161   2.395   1.021   2.529
14406TIP3   OH243162   6.443   7.785   1.738
14406TIP3    H143163   6.460   7.710   1.795
14406TIP3    H243164   6.402   7.850   1.795
14407TIP3   OH243165   5.253   6.780   1.133
14407TIP3    H143166   5.205   6.726   1.071
14407TIP3    H243167   5.334   6.731   1.150
14408TIP3   OH243168   3.386   5.545   3.014
14408TIP3    H143169   3.311   5.531   2.957
14408TIP3    H243170   3.357   5.610   3.077
14409TIP3   OH243171   5.142   2.723   4.013
14409TIP3    H143172   5.095   2.806   4.020
14409TIP3    H243173   5.188   2.714   4.097
14410TIP3   OH243174   1.117   5.977   0.677
14410TIP3    H143175   1.035   5.952   0.719
14410TIP3    H243176   1.170   5.897   0.678
14411TIP3   OH243177   7.110   5.400   6.714
14411TIP3    H143178   7.022   5.395   6.752
14411TIP3    H243179   7.147   5.481   6.748
14412TIP3   OH243180   2.804   1.002   2.872
14412TIP3    H143181   2.732   0.984   2.812
14412TIP3    H243182   2.869   1.048   2.819
14413TIP3   OH243183   0.326   5.550   5.770
14413TIP3    H143184   0.363   5.638   5.771
14413TIP3    H243185   0.381   5.502   5.707
14414TIP3   OH243186   8.016   5.147   2.704
14414TIP3    H143187   8.083   5.092   2.662
14414TIP3    H243188   8.049   5.162   2.793
14415TIP3   OH243189   1.413   5.390   6.351
14415TIP3    H143190   1.403   5.454   6.280
14415TIP3    H243191   1.324   5.378   6.385
14416TIP3   OH243192   0.155   5.032   1.962
14416TIP3    H143193   0.203   5.111   1.988
14416TIP3    H243194   0.065   5.049   1.989
14417TIP3   OH243195   2.689   0.810   6.544
14417TIP3    H143196   2.769   0.798   6.493
14417TIP3    H243197   2.625   0.841   6.480
14418TIP3   OH243198   7.899   6.267   2.955
14418TIP3    H143199   7.873   6.218   2.877
14418TIP3    H243200   7.858   6.353   2.943
14419TIP3   OH243201   7.088   2.911   2.065
14419TIP3    H143202   7.086   2.866   1.980
14419TIP3    H243203   7.146   2.857   2.118
14420TIP3   OH243204   5.304   6.339   2.932
14420TIP3    H143205   5.276   6.380   3.014
14420TIP3    H243206   5.390   6.301   2.953
14421TIP3   OH243207   3.122   6.835   2.489
14421TIP3    H143208   3.042   6.789   2.465
14421TIP3    H243209   3.104   6.926   2.467
14422TIP3   OH243210   8.079   1.673   1.760
14422TIP3    H143211   8.115   1.623   1.687
14422TIP3    H243212   8.070   1.762   1.726
14423TIP3   OH243213   5.051   4.691   3.406
14423TIP3    H143214   5.032   4.604   3.440
14423TIP3    H243215   5.003   4.750   3.464
14424TIP3   OH243216   3.686   4.830   4.062
14424TIP3    H143217   3.655   4.866   3.979
14424TIP3    H243218   3.634   4.750   4.074
14425TIP3   OH243219   3.942   1.737   6.392
14425TIP3    H143220   3.872   1.801   6.404
14425TIP3    H243221   4.011   1.786   6.346
14426TIP3   OH243222   0.401   5.608   5.277
14426TIP3    H143223   0.473   5.671   5.274
14426TIP3    H243224   0.350   5.633   5.354
14427TIP3   OH243225   4.762   0.479   2.367
14427TIP3    H143226   4.667   0.468   2.364
14427TIP3    H243227   4.784   0.523   2.285
14428TIP3   OH243228   6.387   7.247   3.827
14428TIP3    H143229   6.302   7.275   3.859
14428TIP3    H243230   6.371   7.161   3.787
14429TIP3   OH243231   5.087   6.279   4.423
14429TIP3    H143232   5.094   6.187   4.449
14429TIP3    H243233   5.104   6.328   4.503
14430TIP3   OH243234   5.601   3.249   1.979
14430TIP3    H143235   5.684   3.230   1.935
14430TIP3    H243236   5.625   3.304   2.053
14431TIP3   OH243237   3.424   3.130   1.105
14431TIP3    H143238   3.388   3.068   1.042
14431TIP3    H243239   3.432   3.212   1.056
14432TIP3   OH243240   3.889   0.628   4.493
14432TIP3    H143241   3.794   0.638   4.493
14432TIP3    H243242   3.908   0.577   4.572
14433TIP3   OH243243   5.602   5.408   0.618
14433TIP3    H143244   5.673   5.349   0.592
14433TIP3    H243245   5.647   5.481   0.662
14434TIP3   OH243246   4.047   0.779   3.458
14434TIP3    H143247   3.971   0.831   3.431
14434TIP3    H243248   4.082   0.825   3.534
14435TIP3   OH243249   0.585   0.711   0.112
14435TIP3    H143250   0.528   0.714   0.035
14435TIP3    H243251   0.528   0.738   0.185
14436TIP3   OH243252   4.431   0.974   6.533
14436TIP3    H143253   4.410   0.990   6.441
14436TIP3    H243254   4.347   0.946   6.572
14437TIP3   OH243255   2.746   6.604   6.046
14437TIP3    H143256   2.699   6.688   6.045
14437TIP3    H243257   2.728   6.566   5.960
14438TIP3   OH243258   4.065   2.722   6.360
14438TIP3    H143259   4.152   2.762   6.362
14438TIP3    H243260   4.010   2.785   6.314
14439TIP3   OH243261   4.069   3.722   3.285
14439TIP3    H143262   4.121   3.645   3.263
14439TIP3    H243263   4.103   3.750   3.370
14440TIP3   OH243264   1.185   1.355   3.036
14440TIP3    H143265   1.214   1.385   2.949
14440TIP3    H243266   1.222   1.419   3.096
14441TIP3   OH243267   0.255   5.847   2.087
14441TIP3    H143268   0.223   5.900   2.160
14441TIP3    H243269   0.239   5.901   2.010
14442TIP3   OH243270   3.581   5.465   4.031
14442TIP3    H143271   3.646   5.505   4.089
14442TIP3    H243272   3.632   5.413   3.970
14443TIP3   OH243273   6.116   3.414   3.092
14443TIP3    H143274   6.157   3.332   3.064
14443TIP3    H243275   6.083   3.453   3.011
14444TIP3   OH243276   7.170   6.100   2.309
14444TIP3    H143277   7.076   6.094   2.330
14444TIP3    H243278   7.174   6.161   2.236
14445TIP3   OH243279   0.268   7.230   5.793
14445TIP3    H143280   0.207   7.292   5.755
14445TIP3    H243281   0.330   7.284   5.843
14446TIP3   OH243282   4.300   0.043   3.033
14446TIP3    H143283   4.259   0.105   2.973
14446TIP3    H243284   4.311  -0.037   2.982
14447TIP3   OH243285   0.603   4.412   0.126
14447TIP3    H143286   0.527   4.465   0.150
14447TIP3    H243287   0.612   4.350   0.198
14448TIP3   OH243288   8.027   2.551   1.183
14448TIP3    H143289   8.097   2.518   1.127
14448TIP3    H243290   8.005   2.637   1.147
14449TIP3   OH243291   5.850   4.613   4.920
14449TIP3    H143292   5.820   4.619   4.829
14449TIP3    H243293   5.791   4.549   4.960
14450TIP3   OH243294   3.106   4.603   0.750
14450TIP3    H143295   3.201   4.590   0.760
14450TIP3    H243296   3.098   4.673   0.686
14451TIP3   OH243297   5.791   6.594   3.307
14451TIP3    H143298   5.744   6.589   3.391
14451TIP3    H243299   5.746   6.532   3.250
14452TIP3   OH243300   3.816   3.531   0.246
14452TIP3    H143301   3.840   3.442   0.269
14452TIP3    H243302   3.892   3.564   0.197
14453TIP3   OH243303   4.630   6.323   4.415
14453TIP3    H143304   4.665   6.325   4.326
14453TIP3    H243305   4.681   6.389   4.462
14454TIP3   OH243306   2.222   6.785   5.592
14454TIP3    H143307   2.300   6.731   5.604
14454TIP3    H243308   2.253   6.875   5.598
14455TIP3   OH243309   5.547   2.254   2.171
14455TIP3    H143310   5.577   2.344   2.180
14455TIP3    H243311   5.624   2.206   2.141
14456TIP3   OH243312   5.736   1.068   1.125
14456TIP3    H143313   5.722   1.045   1.217
14456TIP3    H243314   5.716   1.162   1.120
14457TIP3   OH243315   7.816   7.481   0.130
14457TIP3    H143316   7.794   7.503   0.221
14457TIP3    H243317   7.731   7.477   0.085
14458TIP3   OH243318   0.119   0.917   6.280
14458TIP3    H143319   0.143   0.859   6.208
14458TIP3    H243320   0.035   0.884   6.311
14459TIP3   OH243321   2.473   5.841   3.572
14459TIP3    H143322   2.396   5.805   3.529
14459TIP3    H243323   2.511   5.767   3.620
14460TIP3   OH243324   0.648   1.903   3.183
14460TIP3    H143325   0.597   1.860   3.114
14460TIP3    H243326   0.583   1.930   3.248
14461TIP3   OH243327   3.295   1.931   5.952
14461TIP3    H143328   3.304   1.862   5.885
14461TIP3    H243329   3.270   2.009   5.902
14462TIP3   OH243330   3.354   2.179   4.538
14462TIP3    H143331   3.301   2.223   4.471
14462TIP3    H243332   3.385   2.099   4.494
14463TIP3   OH243333   7.670   4.931   5.834
14463TIP3    H143334   7.581   4.956   5.808
14463TIP3    H243335   7.711   5.013   5.862
14464TIP3   OH243336   2.558   5.085   3.232
14464TIP3    H143337   2.554   5.180   3.238
14464TIP3    H243338   2.526   5.064   3.145
14465TIP3   OH243339   2.962   5.452   2.155
14465TIP3    H143340   2.917   5.499   2.225
14465TIP3    H243341   2.893   5.401   2.111
14466TIP3   OH243342   6.767   6.559   2.861
14466TIP3    H143343   6.752   6.629   2.924
14466TIP3    H243344   6.831   6.501   2.905
14467TIP3   OH243345   0.528   1.879   4.478
14467TIP3    H143346   0.472   1.949   4.444
14467TIP3    H243347   0.612   1.893   4.436
14468TIP3   OH243348   2.832   3.383   0.784
14468TIP3    H143349   2.802   3.297   0.756
14468TIP3    H243350   2.769   3.409   0.851
14469TIP3   OH243351   4.515   4.248   5.758
14469TIP3    H143352   4.567   4.320   5.794
14469TIP3    H243353   4.430   4.288   5.741
14470TIP3   OH243354   4.652   1.107   6.253
14470TIP3    H143355   4.624   1.174   6.191
14470TIP3    H243356   4.706   1.155   6.316
14471TIP3   OH243357   4.089   6.912   1.709
14471TIP3    H143358   4.115   6.909   1.617
14471TIP3    H243359   4.139   6.842   1.750
14472TIP3   OH243360   0.117   1.890   1.940
14472TIP3    H143361   0.191   1.917   1.886
14472TIP3    H243362   0.121   1.794   1.941
14473TIP3   OH243363   6.267   1.340   1.851
14473TIP3    H143364   6.329   1.413   1.846
14473TIP3    H243365   6.186   1.376   1.815
14474TIP3   OH243366   1.883   6.973   5.764
14474TIP3    H143367   1.937   7.036   5.716
14474TIP3    H243368   1.871   7.012   5.850
14475TIP3   OH243369   3.680   7.057   0.945
14475TIP3    H143370   3.609   7.053   1.010
14475TIP3    H243371   3.741   7.122   0.980
14476TIP3   OH243372   2.144   6.365   4.317
14476TIP3    H143373   2.149   6.435   4.381
14476TIP3    H243374   2.197   6.396   4.243
14477TIP3   OH243375   8.076   6.444   6.234
14477TIP3    H143376   8.145   6.401   6.183
14477TIP3    H243377   8.069   6.531   6.196
14478TIP3   OH243378   7.144   1.703   5.934
14478TIP3    H143379   7.172   1.697   6.026
14478TIP3    H243380   7.119   1.795   5.923
14479TIP3   OH243381   0.848   2.382   4.134
14479TIP3    H143382   0.780   2.326   4.172
14479TIP3    H243383   0.864   2.449   4.200
14480TIP3   OH243384   2.680   0.581   1.778
14480TIP3    H143385   2.588   0.597   1.802
14480TIP3    H243386   2.709   0.663   1.738
14481TIP3   OH243387   7.376   5.342   0.473
14481TIP3    H143388   7.297   5.351   0.419
14481TIP3    H243389   7.429   5.418   0.449
14482TIP3   OH243390   6.794   4.515   2.986
14482TIP3    H143391   6.847   4.504   3.064
14482TIP3    H243392   6.793   4.429   2.945
14483TIP3   OH243393   5.804   5.404   4.720
14483TIP3    H143394   5.780   5.487   4.678
14483TIP3    H243395   5.740   5.394   4.790
14484TIP3   OH243396   6.613   2.042   1.975
14484TIP3    H143397   6.687   2.102   1.986
14484TIP3    H243398   6.537   2.100   1.967
14485TIP3   OH243399   3.461   4.179   4.005
14485TIP3    H143400   3.373   4.214   4.021
14485TIP3    H243401   3.446   4.098   3.957
14486TIP3   OH243402   2.278   7.695   0.731
14486TIP3    H143403   2.319   7.719   0.814
14486TIP3    H243404   2.282   7.600   0.729
14487TIP3   OH243405   8.204   4.838   5.228
14487TIP3    H143406   8.270   4.780   5.191
14487TIP3    H243407   8.240   4.866   5.313
14488TIP3   OH243408   6.756   5.281   3.509
14488TIP3    H143409   6.807   5.313   3.583
14488TIP3    H243410   6.765   5.186   3.513
14489TIP3   OH243411   4.206   1.003   2.803
14489TIP3    H143412   4.217   1.098   2.806
14489TIP3    H243413   4.291   0.969   2.775
14490TIP3   OH243414   0.993   0.672   6.572
14490TIP3    H143415   0.918   0.657   6.515
14490TIP3    H243416   0.960   0.654   6.660
14491TIP3   OH243417   2.861   4.979   0.662
14491TIP3    H143418   2.832   4.897   0.702
14491TIP3    H243419   2.837   5.046   0.726
14492TIP3   OH243420   8.268   4.271   2.699
14492TIP3    H143421   8.325   4.253   2.624
14492TIP3    H243422   8.323   4.260   2.775
14493TIP3   OH243423   0.230   0.252   3.218
14493TIP3    H143424   0.205   0.190   3.150
14493TIP3    H243425   0.260   0.329   3.171
14494TIP3   OH243426   5.875   4.611   2.680
14494TIP3    H143427   5.825   4.665   2.742
14494TIP3    H243428   5.933   4.559   2.735
14495TIP3   OH243429   6.721   7.313   6.171
14495TIP3    H143430   6.739   7.220   6.182
14495TIP3    H243431   6.652   7.332   6.235
14496TIP3   OH243432   5.855   4.145   1.633
14496TIP3    H143433   5.899   4.172   1.713
14496TIP3    H243434   5.779   4.094   1.662
14497TIP3   OH243435   7.162   5.117   4.322
14497TIP3    H143436   7.179   5.096   4.414
14497TIP3    H243437   7.083   5.067   4.300
14498TIP3   OH243438   0.418   3.863   3.060
14498TIP3    H143439   0.380   3.793   3.113
14498TIP3    H243440   0.479   3.819   3.001
14499TIP3   OH243441   6.069   0.776   2.411
14499TIP3    H143442   6.031   0.821   2.335
14499TIP3    H243443   6.000   0.779   2.477
14500TIP3   OH243444   0.524   5.973   1.360
14500TIP3    H143445   0.606   5.954   1.406
14500TIP3    H243446   0.457   5.972   1.428
14501TIP3   OH243447   7.320   6.940   5.627
14501TIP3    H143448   7.327   7.024   5.672
14501TIP3    H243449   7.241   6.900   5.664
14502TIP3   OH243450   7.872   1.283   2.953
14502TIP3    H143451   7.831   1.368   2.969
14502TIP3    H243452   7.961   1.294   2.986
14503TIP3   OH243453   0.101   5.824   4.561
14503TIP3    H143454   0.125   5.750   4.506
14503TIP3    H243455   0.138   5.803   4.647
14504TIP3   OH243456   0.866   4.925   1.991
14504TIP3    H143457   0.892   4.949   2.080
14504TIP3    H243458   0.806   4.851   2.002
14505TIP3   OH243459   7.464   4.908   2.706
14505TIP3    H143460   7.388   4.962   2.683
14505TIP3    H243461   7.484   4.931   2.797
14506TIP3   OH243462   0.900   0.222   2.145
14506TIP3    H143463   0.882   0.315   2.131
14506TIP3    H243464   0.848   0.199   2.222
14507TIP3   OH243465   6.029   7.802   0.027
14507TIP3    H143466   6.078   7.841  -0.045
14507TIP3    H243467   6.080   7.823   0.106
14508TIP3   OH243468   7.416   6.920   3.177
14508TIP3    H143469   7.496   6.927   3.228
14508TIP3    H243470   7.348   6.958   3.232
14509TIP3   OH243471   6.315   5.731   4.011
14509TIP3    H143472   6.331   5.644   4.047
14509TIP3    H243473   6.388   5.784   4.042
14510TIP3   OH243474   1.963   7.337   1.723
14510TIP3    H143475   2.011   7.384   1.655
14510TIP3    H243476   2.029   7.314   1.788
14511TIP3   OH243477   1.623   5.121   4.081
14511TIP3    H143478   1.643   5.177   4.006
14511TIP3    H243479   1.686   5.147   4.148
14512TIP3   OH243480   6.400   6.321   6.412
14512TIP3    H143481   6.409   6.318   6.317
14512TIP3    H243482   6.319   6.370   6.427
14513TIP3   OH243483   4.708   4.102   5.572
14513TIP3    H143484   4.733   4.195   5.575
14513TIP3    H243485   4.615   4.101   5.592
14514TIP3   OH243486   6.210   0.402   6.401
14514TIP3    H143487   6.295   0.373   6.369
14514TIP3    H243488   6.228   0.438   6.488
14515TIP3   OH243489   8.001   1.761   2.985
14515TIP3    H143490   7.939   1.727   2.921
14515TIP3    H243491   8.000   1.696   3.055
14516TIP3   OH243492   2.933   2.041   4.222
14516TIP3    H143493   2.916   1.948   4.210
14516TIP3    H243494   2.942   2.076   4.133
14517TIP3   OH243495   2.337   1.409   0.964
14517TIP3    H143496   2.270   1.342   0.978
14517TIP3    H243497   2.408   1.362   0.919
14518TIP3   OH243498   7.759   1.611   6.577
14518TIP3    H143499   7.773   1.558   6.499
14518TIP3    H243500   7.727   1.549   6.643
14519TIP3   OH243501   1.991   1.307   6.283
14519TIP3    H143502   2.009   1.291   6.190
14519TIP3    H243503   2.076   1.328   6.321
14520TIP3   OH243504   2.560   5.961   3.299
14520TIP3    H143505   2.640   6.009   3.278
14520TIP3    H243506   2.566   5.943   3.392
14521TIP3   OH243507   6.725   5.705   2.040
14521TIP3    H143508   6.798   5.764   2.056
14521TIP3    H243509   6.755   5.647   1.970
14522TIP3   OH243510   3.656   2.959   4.821
14522TIP3    H143511   3.612   2.888   4.868
14522TIP3    H243512   3.677   3.023   4.889
14523TIP3   OH243513   4.324   5.376   1.946
14523TIP3    H143514   4.286   5.300   1.903
14523TIP3    H243515   4.248   5.427   1.975
14524TIP3   OH243516   6.763   4.888   6.746
14524TIP3    H143517   6.846   4.908   6.704
14524TIP3    H243518   6.748   4.795   6.727
14525TIP3   OH243519   7.600   1.208   3.708
14525TIP3    H143520   7.676   1.151   3.695
14525TIP3    H243521   7.538   1.182   3.640
14526TIP3   OH243522   6.305   7.721   6.285
14526TIP3    H143523   6.222   7.754   6.319
14526TIP3    H243524   6.295   7.626   6.282
14527TIP3   OH243525   7.672   2.596   5.768
14527TIP3    H143526   7.642   2.687   5.765
14527TIP3    H243527   7.764   2.600   5.742
14528TIP3   OH243528   5.392   6.020   5.245
14528TIP3    H143529   5.364   6.098   5.293
14528TIP3    H243530   5.421   5.959   5.312
14529TIP3   OH243531   2.512   3.719   4.720
14529TIP3    H143532   2.473   3.802   4.747
14529TIP3    H243533   2.551   3.684   4.800
14530TIP3   OH243534   3.663   5.527   2.986
14530TIP3    H143535   3.576   5.562   3.005
14530TIP3    H243536   3.685   5.563   2.900
14531TIP3   OH243537   3.773   3.692   4.184
14531TIP3    H143538   3.832   3.738   4.125
14531TIP3    H243539   3.766   3.749   4.261
14532TIP3   OH243540   0.457   5.695   4.146
14532TIP3    H143541   0.537   5.659   4.110
14532TIP3    H243542   0.415   5.621   4.191
14533TIP3   OH243543   3.737   6.759   5.975
14533TIP3    H143544   3.708   6.849   5.991
14533TIP3    H243545   3.833   6.765   5.976
14534TIP3   OH243546   5.999   1.009   0.825
14534TIP3    H143547   6.069   0.988   0.763
14534TIP3    H243548   5.959   1.088   0.789
14535TIP3   OH243549   0.093   7.792   4.131
14535TIP3    H143550   0.053   7.725   4.186
14535TIP3    H243551   0.152   7.840   4.191
14536TIP3   OH243552   4.626   2.219   6.015
14536TIP3    H143553   4.705   2.216   5.962
14536TIP3    H243554   4.658   2.219   6.106
14537TIP3   OH243555   0.682   6.254   5.312
14537TIP3    H143556   0.639   6.307   5.380
14537TIP3    H243557   0.719   6.319   5.251
14538TIP3   OH243558   2.622   1.933   1.804
14538TIP3    H143559   2.620   1.839   1.824
14538TIP3    H243560   2.587   1.939   1.715
14539TIP3   OH243561   6.659   4.128   6.374
14539TIP3    H143562   6.709   4.196   6.329
14539TIP3    H243563   6.583   4.113   6.318
14540TIP3   OH243564   7.398   0.216   5.280
14540TIP3    H143565   7.329   0.282   5.272
14540TIP3    H243566   7.410   0.183   5.191
14541TIP3   OH243567   7.234   5.515   6.258
14541TIP3    H143568   7.296   5.442   6.261
14541TIP3    H243569   7.262   5.574   6.327
14542TIP3   OH243570   1.432   3.797   3.123
14542TIP3    H143571   1.421   3.702   3.116
14542TIP3    H243572   1.510   3.809   3.177
14543TIP3   OH243573   1.339   2.075   4.380
14543TIP3    H143574   1.278   2.088   4.308
14543TIP3    H243575   1.425   2.099   4.343
14544TIP3   OH243576   6.250   4.336   3.568
14544TIP3    H143577   6.200   4.417   3.575
14544TIP3    H243578   6.330   4.362   3.522
14545TIP3   OH243579   3.005   7.169   1.656
14545TIP3    H143580   2.939   7.148   1.722
14545TIP3    H243581   2.964   7.238   1.603
14546TIP3   OH243582   2.550   5.926   1.384
14546TIP3    H143583   2.491   5.972   1.444
14546TIP3    H243584   2.608   5.994   1.351
14547TIP3   OH243585   0.652   0.414   1.868
14547TIP3    H143586   0.659   0.468   1.947
14547TIP3    H243587   0.594   0.342   1.893
14548TIP3   OH243588   0.127   3.521   1.387
14548TIP3    H143589   0.218   3.547   1.377
14548TIP3    H243590   0.086   3.594   1.434
14549TIP3   OH243591   7.126   6.870   4.299
14549TIP3    H143592   7.047   6.835   4.340
14549TIP3    H243593   7.169   6.921   4.367
14550TIP3   OH243594   6.024   6.953   2.783
14550TIP3    H143595   5.967   7.026   2.757
14550TIP3    H243596   5.995   6.879   2.731
14551TIP3   OH243597   3.608   1.886   0.643
14551TIP3    H143598   3.581   1.971   0.677
14551TIP3    H243599   3.703   1.890   0.641
14552TIP3   OH243600   5.247   4.250   5.337
14552TIP3    H143601   5.298   4.276   5.414
14552TIP3    H243602   5.310   4.251   5.265
14553TIP3   OH243603   3.380   4.690   5.119
14553TIP3    H143604   3.358   4.710   5.028
14553TIP3    H243605   3.295   4.679   5.161
14554TIP3   OH243606   7.733   7.357   1.643
14554TIP3    H143607   7.746   7.343   1.737
14554TIP3    H243608   7.816   7.395   1.612
14555TIP3   OH243609   5.723   1.318   6.342
14555TIP3    H143610   5.750   1.231   6.374
14555TIP3    H243611   5.637   1.303   6.303
14556TIP3   OH243612   4.522   0.498   0.031
14556TIP3    H143613   4.496   0.412   0.064
14556TIP3    H243614   4.494   0.498  -0.061
14557TIP3   OH243615   6.576   5.697   6.692
14557TIP3    H143616   6.572   5.630   6.760
14557TIP3    H243617   6.500   5.679   6.636
14558TIP3   OH243618   8.207   5.948   2.348
14558TIP3    H143619   8.215   6.037   2.316
14558TIP3    H243620   8.155   5.902   2.282
14559TIP3   OH243621   1.723   3.275   6.152
14559TIP3    H143622   1.746   3.183   6.150
14559TIP3    H243623   1.798   3.319   6.110
14560TIP3   OH243624   4.108   6.984   3.299
14560TIP3    H143625   4.019   7.007   3.326
14560TIP3    H243626   4.145   6.936   3.373
14561TIP3   OH243627   4.716   5.891   2.818
14561TIP3    H143628   4.750   5.825   2.757
14561TIP3    H243629   4.714   5.846   2.903
14562TIP3   OH243630   4.232   7.376   0.726
14562TIP3    H143631   4.285   7.376   0.805
14562TIP3    H243632   4.162   7.439   0.744
14563TIP3   OH243633   0.662   7.327   2.704
14563TIP3    H143634   0.609   7.296   2.778
14563TIP3    H243635   0.750   7.292   2.721
14564TIP3   OH243636   6.438   1.526   4.888
14564TIP3    H143637   6.499   1.554   4.957
14564TIP3    H243638   6.416   1.436   4.911
14565TIP3   OH243639   2.783   7.606   5.781
14565TIP3    H143640   2.840   7.665   5.733
14565TIP3    H243641   2.702   7.656   5.794
14566TIP3   OH243642   2.627   3.879   1.980
14566TIP3    H143643   2.693   3.815   2.008
14566TIP3    H243644   2.552   3.863   2.037
14567TIP3   OH243645   5.969   0.533   6.350
14567TIP3    H143646   6.048   0.478   6.347
14567TIP3    H243647   5.898   0.473   6.368
14568TIP3   OH243648   1.487   2.920   0.385
14568TIP3    H143649   1.510   3.008   0.354
14568TIP3    H243650   1.502   2.864   0.308
14569TIP3   OH243651   2.487   4.536   5.168
14569TIP3    H143652   2.394   4.519   5.179
14569TIP3    H243653   2.521   4.543   5.257
14570TIP3   OH243654   3.525   3.399   6.581
14570TIP3    H143655   3.484   3.426   6.663
14570TIP3    H243656   3.536   3.479   6.531
14571TIP3   OH243657   1.054   5.775   5.038
14571TIP3    H143658   1.000   5.698   5.054
14571TIP3    H243659   1.143   5.742   5.029
14572TIP3   OH243660   0.659   5.917   3.226
14572TIP3    H143661   0.742   5.962   3.208
14572TIP3    H243662   0.684   5.828   3.251
14573TIP3   OH243663   5.198   2.605   5.114
14573TIP3    H143664   5.155   2.609   5.200
14573TIP3    H243665   5.183   2.515   5.084
14574TIP3   OH243666   1.334   1.526   1.630
14574TIP3    H143667   1.260   1.498   1.684
14574TIP3    H243668   1.409   1.476   1.663
14575TIP3   OH243669   6.936   3.957   4.691
14575TIP3    H143670   7.023   3.935   4.725
14575TIP3    H243671   6.903   4.023   4.751
14576TIP3   OH243672   2.976   3.587   0.608
14576TIP3    H143673   2.928   3.533   0.671
14576TIP3    H243674   3.068   3.565   0.623
14577TIP3   OH243675   1.137   4.856   0.410
14577TIP3    H143676   1.135   4.813   0.495
14577TIP3    H243677   1.207   4.921   0.418
14578TIP3   OH243678   4.356   5.068   6.659
14578TIP3    H143679   4.365   4.979   6.626
14578TIP3    H243680   4.283   5.105   6.609
14579TIP3   OH243681   6.053   2.356   4.547
14579TIP3    H143682   5.986   2.316   4.603
14579TIP3    H243683   6.045   2.309   4.464
14580TIP3   OH243684   0.711   6.124   0.914
14580TIP3    H143685   0.797   6.164   0.904
14580TIP3    H243686   0.671   6.130   0.827
14581TIP3   OH243687   0.991   0.542   3.900
14581TIP3    H143688   1.001   0.463   3.955
14581TIP3    H243689   0.918   0.520   3.841
14582TIP3   OH243690   1.461   3.438   5.165
14582TIP3    H143691   1.389   3.381   5.141
14582TIP3    H243692   1.496   3.469   5.081
14583TIP3   OH243693   8.186   0.836   5.653
14583TIP3    H143694   8.275   0.842   5.687
14583TIP3    H243695   8.135   0.797   5.723
14584TIP3   OH243696   5.663   6.063   6.449
14584TIP3    H143697   5.723   6.006   6.401
14584TIP3    H243698   5.585   6.069   6.394
14585TIP3   OH243699   6.961   3.861   6.077
14585TIP3    H143700   6.972   3.780   6.027
14585TIP3    H243701   6.871   3.858   6.108
14586TIP3   OH243702   6.086   4.976   6.301
14586TIP3    H143703   6.143   4.961   6.376
14586TIP3    H243704   6.111   5.062   6.267
14587TIP3   OH243705   6.551   5.716   4.268
14587TIP3    H143706   6.538   5.766   4.348
14587TIP3    H243707   6.517   5.772   4.199
14588TIP3   OH243708   4.551   2.975   5.791
14588TIP3    H143709   4.611   3.049   5.802
14588TIP3    H243710   4.609   2.900   5.779
14589TIP3   OH243711   2.247   1.679   5.477
14589TIP3    H143712   2.253   1.645   5.388
14589TIP3    H243713   2.262   1.773   5.469
14590TIP3   OH243714   5.232   4.392   3.782
14590TIP3    H143715   5.203   4.308   3.746
14590TIP3    H243716   5.312   4.372   3.830
14591TIP3   OH243717   6.138   7.362   3.915
14591TIP3    H143718   6.060   7.320   3.879
14591TIP3    H243719   6.133   7.345   4.009
14592TIP3   OH243720   2.460   6.668   2.256
14592TIP3    H143721   2.486   6.604   2.189
14592TIP3    H243722   2.369   6.689   2.234
14593TIP3   OH243723   3.422   0.869   0.053
14593TIP3    H143724   3.421   0.800   0.120
14593TIP3    H243725   3.445   0.949   0.101
14594TIP3   OH243726   1.495   4.661   1.263
14594TIP3    H143727   1.400   4.655   1.259
14594TIP3    H243728   1.526   4.575   1.235
14595TIP3   OH243729  -0.010   2.488   1.054
14595TIP3    H143730   0.025   2.539   1.127
14595TIP3    H243731  -0.008   2.398   1.085
14596TIP3   OH243732   6.670   1.957   0.310
14596TIP3    H143733   6.765   1.970   0.309
14596TIP3    H243734   6.647   1.955   0.403
14597TIP3   OH243735   6.552   1.102   3.712
14597TIP3    H143736   6.587   1.110   3.801
14597TIP3    H243737   6.464   1.067   3.725
14598TIP3   OH243738   7.256   0.092   5.531
14598TIP3    H143739   7.318   0.072   5.461
14598TIP3    H243740   7.280   0.033   5.602
14599TIP3   OH243741   6.306   2.426   3.964
14599TIP3    H143742   6.280   2.473   3.885
14599TIP3    H243743   6.315   2.335   3.936
14600TIP3   OH243744   2.042   3.340   4.322
14600TIP3    H143745   2.043   3.250   4.355
14600TIP3    H243746   2.017   3.393   4.399
14601TIP3   OH243747   2.545   2.438   5.671
14601TIP3    H143748   2.460   2.482   5.674
14601TIP3    H243749   2.525   2.351   5.636
14602TIP3   OH243750   3.153   7.323   2.266
14602TIP3    H143751   3.085   7.373   2.311
14602TIP3    H243752   3.233   7.373   2.280
14603TIP3   OH243753   3.276   4.173   5.175
14603TIP3    H143754   3.196   4.128   5.202
14603TIP3    H243755   3.247   4.258   5.143
14604TIP3   OH243756   1.598   1.602   6.578
14604TIP3    H143757   1.522   1.586   6.521
14604TIP3    H243758   1.657   1.529   6.560
14605TIP3   OH243759   6.722   1.633   4.922
14605TIP3    H143760   6.649   1.625   4.984
14605TIP3    H243761   6.798   1.653   4.976
14606TIP3   OH243762   8.078   1.515  -0.024
14606TIP3    H143763   8.016   1.585  -0.044
14606TIP3    H243764   8.033   1.462   0.043
14607TIP3   OH243765   7.073   6.595   0.334
14607TIP3    H143766   7.029   6.517   0.368
14607TIP3    H243767   7.097   6.572   0.244
14608TIP3   OH243768   7.649   3.376   6.692
14608TIP3    H143769   7.650   3.310   6.761
14608TIP3    H243770   7.610   3.453   6.732
14609TIP3   OH243771   7.234   7.779   5.548
14609TIP3    H143772   7.193   7.709   5.497
14609TIP3    H243773   7.207   7.860   5.504
14610TIP3   OH243774   7.427   2.681   1.267
14610TIP3    H143775   7.474   2.762   1.246
14610TIP3    H243776   7.493   2.612   1.259
14611TIP3   OH243777   2.939   3.874   6.543
14611TIP3    H143778   2.982   3.951   6.581
14611TIP3    H243779   3.008   3.807   6.541
14612TIP3   OH243780   6.310   5.637   3.089
14612TIP3    H143781   6.300   5.602   3.177
14612TIP3    H243782   6.297   5.731   3.098
14613TIP3   OH243783   1.369   1.321   2.499
14613TIP3    H143784   1.366   1.341   2.593
14613TIP3    H243785   1.458   1.288   2.484
14614TIP3   OH243786   6.571   1.454   1.770
14614TIP3    H143787   6.598   1.368   1.739
14614TIP3    H243788   6.529   1.437   1.855
14615TIP3   OH243789   2.521   4.528   3.093
14615TIP3    H143790   2.585   4.598   3.083
14615TIP3    H243791   2.442   4.561   3.050
14616TIP3   OH243792   8.284   6.865   0.110
14616TIP3    H143793   8.236   6.829   0.185
14616TIP3    H243794   8.258   6.957   0.107
14617TIP3   OH243795   3.207   2.010   2.856
14617TIP3    H143796   3.233   1.957   2.932
14617TIP3    H243797   3.202   1.947   2.784
14618TIP3   OH243798   3.812   0.012   6.686
14618TIP3    H143799   3.726   0.048   6.664
14618TIP3    H243800   3.816   0.017   6.782
14619TIP3   OH243801   0.352   5.406   2.496
14619TIP3    H143802   0.414   5.474   2.469
14619TIP3    H243803   0.395   5.324   2.476
14620TIP3   OH243804   0.065   3.175   2.745
14620TIP3    H143805   0.046   3.182   2.652
14620TIP3    H243806  -0.019   3.192   2.788
14621TIP3   OH243807   1.426   2.542   6.293
14621TIP3    H143808   1.518   2.525   6.272
14621TIP3    H243809   1.411   2.494   6.375
14622TIP3   OH243810   8.008   6.705   5.644
14622TIP3    H143811   8.007   6.800   5.631
14622TIP3    H243812   7.922   6.676   5.616
14623TIP3   OH243813   2.753   2.141   6.707
14623TIP3    H143814   2.701   2.211   6.746
14623TIP3    H243815   2.739   2.149   6.613
14624TIP3   OH243816   0.340   7.508   2.970
14624TIP3    H143817   0.307   7.514   3.059
14624TIP3    H243818   0.431   7.538   2.977
14625TIP3   OH243819   3.955   0.988   4.120
14625TIP3    H143820   3.868   0.987   4.079
14625TIP3    H243821   3.995   1.070   4.089
14626TIP3   OH243822   7.188   1.879   3.381
14626TIP3    H143823   7.277   1.844   3.390
14626TIP3    H243824   7.147   1.822   3.316
14627TIP3   OH243825   0.774   4.019   3.130
14627TIP3    H143826   0.700   4.080   3.120
14627TIP3    H243827   0.797   4.025   3.223
14628TIP3   OH243828   4.931   5.452   3.175
14628TIP3    H143829   4.867   5.454   3.245
14628TIP3    H243830   4.989   5.527   3.192
14629TIP3   OH243831   4.486   3.763   0.506
14629TIP3    H143832   4.553   3.832   0.507
14629TIP3    H243833   4.480   3.734   0.597
14630TIP3   OH243834   5.196   5.362   6.321
14630TIP3    H143835   5.238   5.282   6.351
14630TIP3    H243836   5.106   5.336   6.300
14631TIP3   OH243837   6.332   1.845   6.350
14631TIP3    H143838   6.297   1.778   6.409
14631TIP3    H243839   6.425   1.849   6.372
14632TIP3   OH243840   1.839   6.668   0.440
14632TIP3    H143841   1.909   6.727   0.414
14632TIP3    H243842   1.884   6.596   0.484
14633TIP3   OH243843   6.327   0.316   1.211
14633TIP3    H143844   6.401   0.377   1.211
14633TIP3    H243845   6.355   0.243   1.156
14634TIP3   OH243846   4.122   7.761   6.102
14634TIP3    H143847   4.175   7.737   6.178
14634TIP3    H243848   4.060   7.689   6.091
14635TIP3   OH243849   1.992   0.836   5.850
14635TIP3    H143850   1.931   0.893   5.899
14635TIP3    H243851   1.979   0.861   5.759
14636TIP3   OH243852   1.054   2.501   6.639
14636TIP3    H143853   1.018   2.567   6.698
14636TIP3    H243854   0.996   2.425   6.649
14637TIP3   OH243855   1.703   6.180   4.296
14637TIP3    H143856   1.649   6.190   4.217
14637TIP3    H243857   1.717   6.086   4.304
14638TIP3   OH243858   5.428   0.274   6.364
14638TIP3    H143859   5.506   0.235   6.403
14638TIP3    H243860   5.399   0.210   6.298
14639TIP3   OH243861   1.603   0.168   4.168
14639TIP3    H143862   1.545   0.153   4.243
14639TIP3    H243863   1.585   0.095   4.109
14640TIP3   OH243864   6.753   5.954   1.824
14640TIP3    H143865   6.699   5.983   1.751
14640TIP3    H243866   6.797   5.875   1.793
14641TIP3   OH243867   6.847   0.581   6.464
14641TIP3    H143868   6.845   0.567   6.369
14641TIP3    H243869   6.761   0.618   6.484
14642TIP3   OH243870   6.462   1.202   1.218
14642TIP3    H143871   6.407   1.212   1.296
14642TIP3    H243872   6.401   1.206   1.145
14643TIP3   OH243873   3.165   1.755   6.804
14643TIP3    H143874   3.114   1.768   6.725
14643TIP3    H243875   3.106   1.779   6.876
14644TIP3   OH243876   1.056   6.994   5.158
14644TIP3    H143877   1.122   7.049   5.115
14644TIP3    H243878   1.084   6.904   5.138
14645TIP3   OH243879   6.397   5.407   4.546
14645TIP3    H143880   6.458   5.480   4.542
14645TIP3    H243881   6.335   5.424   4.475
14646TIP3   OH243882   8.015   1.970   5.837
14646TIP3    H143883   8.053   2.055   5.857
14646TIP3    H243884   7.924   1.978   5.864
14647TIP3   OH243885   5.654   6.653   0.639
14647TIP3    H143886   5.665   6.723   0.704
14647TIP3    H243887   5.660   6.572   0.690
14648TIP3   OH243888   1.115   0.635   5.242
14648TIP3    H143889   1.195   0.618   5.193
14648TIP3    H243890   1.060   0.558   5.225
14649TIP3   OH243891   7.020   0.234   2.215
14649TIP3    H143892   6.991   0.166   2.276
14649TIP3    H243893   7.114   0.244   2.233
14650TIP3   OH243894   7.235   1.285   0.541
14650TIP3    H143895   7.161   1.267   0.599
14650TIP3    H243896   7.289   1.206   0.547
14651TIP3   OH243897   2.814   4.390   2.210
14651TIP3    H143898   2.795   4.477   2.245
14651TIP3    H243899   2.905   4.374   2.235
14652TIP3   OH243900   3.054   5.071   2.328
14652TIP3    H143901   3.073   5.159   2.362
14652TIP3    H243902   2.979   5.084   2.270
14653TIP3   OH243903   2.115   5.419   5.422
14653TIP3    H143904   2.088   5.384   5.337
14653TIP3    H243905   2.036   5.412   5.476
14654TIP3   OH243906   7.760   5.954   1.362
14654TIP3    H143907   7.797   5.877   1.319
14654TIP3    H243908   7.728   5.921   1.446
14655TIP3   OH243909   2.648   3.371   1.919
14655TIP3    H143910   2.664   3.419   1.838
14655TIP3    H243911   2.642   3.280   1.893
14656TIP3   OH243912   7.312   1.619   1.046
14656TIP3    H143913   7.221   1.594   1.032
14656TIP3    H243914   7.340   1.657   0.963
14657TIP3   OH243915   6.760   0.850   5.636
14657TIP3    H143916   6.679   0.883   5.674
14657TIP3    H243917   6.803   0.803   5.708
14658TIP3   OH243918   4.506   3.796   4.903
14658TIP3    H143919   4.538   3.706   4.907
14658TIP3    H243920   4.491   3.821   4.995
14659TIP3   OH243921   1.726   4.345   0.292
14659TIP3    H143922   1.668   4.299   0.353
14659TIP3    H243923   1.806   4.291   0.292
14660TIP3   OH243924   2.082   5.882   5.282
14660TIP3    H143925   2.177   5.893   5.281
14660TIP3    H243926   2.066   5.831   5.362
14661TIP3   OH243927   7.048   6.824   1.361
14661TIP3    H143928   7.079   6.912   1.383
14661TIP3    H243929   6.958   6.822   1.393
14662TIP3   OH243930   6.080   6.720   3.984
14662TIP3    H143931   6.042   6.790   3.931
14662TIP3    H243932   6.174   6.737   3.983
14663TIP3   OH243933   8.242   1.697   2.221
14663TIP3    H143934   8.197   1.778   2.197
14663TIP3    H243935   8.207   1.632   2.161
14664TIP3   OH243936   0.583   7.240   4.213
14664TIP3    H143937   0.497   7.264   4.180
14664TIP3    H243938   0.638   7.232   4.134
14665TIP3   OH243939   4.100   4.074   5.530
14665TIP3    H143940   4.036   4.136   5.494
14665TIP3    H243941   4.073   3.989   5.498
14666TIP3   OH243942   0.134   3.377   2.432
14666TIP3    H143943   0.076   3.452   2.424
14666TIP3    H243944   0.173   3.367   2.345
14667TIP3   OH243945   1.550   2.189   2.626
14667TIP3    H143946   1.487   2.144   2.683
14667TIP3    H243947   1.509   2.187   2.540
14668TIP3   OH243948   6.974   6.914   4.678
14668TIP3    H143949   7.066   6.901   4.704
14668TIP3    H243950   6.929   6.835   4.709
14669TIP3   OH243951   7.091   6.271   1.018
14669TIP3    H143952   7.014   6.272   0.962
14669TIP3    H243953   7.136   6.190   0.995
14670TIP3   OH243954   4.106   6.864   0.981
14670TIP3    H143955   4.076   6.803   0.914
14670TIP3    H243956   4.053   6.942   0.968
14671TIP3   OH243957   0.896   1.494   4.706
14671TIP3    H143958   0.811   1.527   4.736
14671TIP3    H243959   0.915   1.422   4.766
14672TIP3   OH243960   1.300   4.523   0.017
14672TIP3    H143961   1.231   4.464  -0.012
14672TIP3    H243962   1.267   4.560   0.099
14673TIP3   OH243963   2.456   0.422   4.144
14673TIP3    H143964   2.362   0.406   4.152
14673TIP3    H243965   2.474   0.414   4.050
14674TIP3   OH243966   4.251   7.458   2.870
14674TIP3    H143967   4.166   7.475   2.831
14674TIP3    H243968   4.237   7.382   2.927
14675TIP3   OH243969   6.548   1.567   5.129
14675TIP3    H143970   6.514   1.654   5.151
14675TIP3    H243971   6.560   1.524   5.213
14676TIP3   OH243972   4.064   1.601   1.840
14676TIP3    H143973   4.048   1.513   1.804
14676TIP3    H243974   4.033   1.596   1.930
14677TIP3   OH243975   5.266   3.516   6.282
14677TIP3    H143976   5.249   3.423   6.298
14677TIP3    H243977   5.279   3.522   6.188
14678TIP3   OH243978   0.217   7.682   6.532
14678TIP3    H143979   0.305   7.650   6.515
14678TIP3    H243980   0.215   7.769   6.493
14679TIP3   OH243981   2.892   2.211   3.547
14679TIP3    H143982   2.971   2.167   3.578
14679TIP3    H243983   2.901   2.301   3.580
14680TIP3   OH243984   4.834   4.173   5.937
14680TIP3    H143985   4.750   4.135   5.966
14680TIP3    H243986   4.809   4.246   5.881
14681TIP3   OH243987   3.717   0.438   0.184
14681TIP3    H143988   3.727   0.532   0.196
14681TIP3    H243989   3.677   0.428   0.098
14682TIP3   OH243990   1.438   1.021   2.378
14682TIP3    H143991   1.462   0.950   2.438
14682TIP3    H243992   1.521   1.053   2.343
14683TIP3   OH243993   7.007   7.048   5.273
14683TIP3    H143994   6.970   6.965   5.244
14683TIP3    H243995   6.958   7.070   5.352
14684TIP3   OH243996   8.299   3.403   6.704
14684TIP3    H143997   8.237   3.421   6.633
14684TIP3    H243998   8.250   3.425   6.784
14685TIP3   OH243999   2.737   3.584   0.239
14685TIP3    H144000   2.799   3.657   0.238
14685TIP3    H244001   2.740   3.549   0.150
14686TIP3   OH244002   3.141   7.019   2.899
14686TIP3    H144003   3.223   7.064   2.876
14686TIP3    H244004   3.167   6.927   2.911
14687TIP3   OH244005   3.111   2.642   0.975
14687TIP3    H144006   3.111   2.622   0.881
14687TIP3    H244007   3.031   2.694   0.988
14688TIP3   OH244008   7.942   4.128   0.858
14688TIP3    H144009   7.995   4.056   0.894
14688TIP3    H244010   7.974   4.139   0.769
14689TIP3   OH244011   6.561   7.660   6.247
14689TIP3    H144012   6.469   7.677   6.267
14689TIP3    H244013   6.607   7.736   6.282
14690TIP3   OH244014   7.892   5.775   1.205
14690TIP3    H144015   7.980   5.739   1.208
14690TIP3    H244016   7.837   5.703   1.173
14691TIP3   OH244017   3.943   1.719   4.390
14691TIP3    H144018   3.989   1.700   4.471
14691TIP3    H244019   3.850   1.711   4.411
14692TIP3   OH244020   2.405   3.644   1.917
14692TIP3    H144021   2.454   3.699   1.855
14692TIP3    H244022   2.470   3.615   1.980
14693TIP3   OH244023   7.628   0.637   1.350
14693TIP3    H144024   7.547   0.639   1.401
14693TIP3    H244025   7.617   0.562   1.291
14694TIP3   OH244026   3.603   1.678   0.841
14694TIP3    H144027   3.530   1.698   0.899
14694TIP3    H244028   3.611   1.754   0.785
14695TIP3   OH244029   4.837   3.591   1.227
14695TIP3    H144030   4.745   3.565   1.231
14695TIP3    H244031   4.884   3.509   1.210
14696TIP3   OH244032   3.180   3.718   0.830
14696TIP3    H144033   3.237   3.675   0.766
14696TIP3    H244034   3.136   3.787   0.780
14697TIP3   OH244035   0.091   5.376   1.516
14697TIP3    H144036   0.053   5.325   1.588
14697TIP3    H244037   0.184   5.357   1.520
14698TIP3   OH244038   7.164   6.375   5.675
14698TIP3    H144039   7.163   6.446   5.611
14698TIP3    H244040   7.193   6.299   5.626
14699TIP3   OH244041   2.526   0.363   0.583
14699TIP3    H144042   2.486   0.338   0.500
14699TIP3    H244043   2.457   0.346   0.648
14700TIP3   OH244044   0.588   5.780   2.482
14700TIP3    H144045   0.575   5.871   2.454
14700TIP3    H244046   0.680   5.776   2.509
14701TIP3   OH244047   2.848   1.599   6.753
14701TIP3    H144048   2.781   1.610   6.685
14701TIP3    H244049   2.828   1.667   6.817
14702TIP3   OH244050   0.659   0.778   1.448
14702TIP3    H144051   0.646   0.777   1.353
14702TIP3    H244052   0.752   0.759   1.459
14703TIP3   OH244053   8.069   6.788   4.277
14703TIP3    H144054   8.094   6.717   4.218
14703TIP3    H244055   8.144   6.796   4.337
14704TIP3   OH244056   2.096   6.791   1.822
14704TIP3    H144057   2.045   6.787   1.741
14704TIP3    H244058   2.187   6.792   1.793
14705TIP3   OH244059   0.908   6.835   5.943
14705TIP3    H144060   0.913   6.766   6.009
14705TIP3    H244061   0.978   6.896   5.966
14706TIP3   OH244062   4.666   7.651   6.083
14706TIP3    H144063   4.640   7.577   6.029
14706TIP3    H244064   4.586   7.702   6.095
14707TIP3   OH244065   0.628   3.327   6.155
14707TIP3    H144066   0.621   3.258   6.222
14707TIP3    H244067   0.682   3.288   6.087
14708TIP3   OH244068   6.888   1.856   4.206
14708TIP3    H144069   6.856   1.946   4.216
14708TIP3    H244070   6.934   1.857   4.122
14709TIP3   OH244071   0.455   2.135   4.755
14709TIP3    H144072   0.376   2.165   4.709
14709TIP3    H244073   0.525   2.142   4.691
14710TIP3   OH244074   6.132   2.546   1.669
14710TIP3    H144075   6.128   2.452   1.684
14710TIP3    H244076   6.219   2.562   1.633
14711TIP3   OH244077   4.169   6.191   3.129
14711TIP3    H144078   4.168   6.232   3.042
14711TIP3    H244079   4.256   6.153   3.137
14712TIP3   OH244080   4.940   1.423   2.145
14712TIP3    H144081   4.898   1.358   2.089
14712TIP3    H244082   4.961   1.495   2.085
14713TIP3   OH244083   6.768   0.493   1.713
14713TIP3    H144084   6.851   0.534   1.691
14713TIP3    H244085   6.781   0.457   1.800
14714TIP3   OH244086   6.238   6.280   1.596
14714TIP3    H144087   6.236   6.352   1.659
14714TIP3    H244088   6.274   6.206   1.645
14715TIP3   OH244089   2.810   5.254   3.398
14715TIP3    H144090   2.831   5.179   3.453
14715TIP3    H244091   2.893   5.278   3.357
14716TIP3   OH244092   6.260   0.340   3.233
14716TIP3    H144093   6.343   0.300   3.208
14716TIP3    H244094   6.239   0.400   3.161
14717TIP3   OH244095   3.255   6.961   0.863
14717TIP3    H144096   3.178   6.909   0.886
14717TIP3    H244097   3.221   7.046   0.837
14718TIP3   OH244098   4.069   4.631   1.351
14718TIP3    H144099   4.053   4.667   1.438
14718TIP3    H244100   4.052   4.704   1.291
14719TIP3   OH244101   8.184   0.503   2.750
14719TIP3    H144102   8.276   0.508   2.723
14719TIP3    H244103   8.142   0.453   2.680
14720TIP3   OH244104   7.495   4.930   1.936
14720TIP3    H144105   7.416   4.932   1.990
14720TIP3    H244106   7.464   4.900   1.850
14721TIP3   OH244107   0.258   3.198   1.013
14721TIP3    H144108   0.173   3.193   1.057
14721TIP3    H244109   0.258   3.124   0.953
14722TIP3   OH244110   1.000   0.564   4.291
14722TIP3    H144111   0.963   0.486   4.333
14722TIP3    H244112   1.038   0.614   4.364
14723TIP3   OH244113   2.429   0.641   1.128
14723TIP3    H144114   2.414   0.553   1.092
14723TIP3    H244115   2.455   0.694   1.052
14724TIP3   OH244116   8.199   1.802   3.838
14724TIP3    H144117   8.219   1.825   3.747
14724TIP3    H244118   8.267   1.847   3.889
14725TIP3   OH244119   4.805   2.248   4.428
14725TIP3    H144120   4.825   2.172   4.484
14725TIP3    H244121   4.820   2.217   4.339
14726TIP3   OH244122   2.195   6.135   3.510
14726TIP3    H144123   2.177   6.065   3.573
14726TIP3    H244124   2.230   6.206   3.563
14727TIP3   OH244125   6.775   2.840   1.207
14727TIP3    H144126   6.800   2.793   1.287
14727TIP3    H244127   6.844   2.817   1.144
14728TIP3   OH244128   4.361   7.373   6.273
14728TIP3    H144129   4.397   7.358   6.360
14728TIP3    H244130   4.400   7.304   6.219
14729TIP3   OH244131   5.973   5.842   1.311
14729TIP3    H144132   5.965   5.804   1.223
14729TIP3    H244133   6.042   5.792   1.353
14730TIP3   OH244134   5.834   3.918   1.248
14730TIP3    H144135   5.927   3.896   1.254
14730TIP3    H244136   5.831   3.997   1.194
14731TIP3   OH244137   5.760   5.246   6.253
14731TIP3    H144138   5.732   5.239   6.162
14731TIP3    H244139   5.763   5.156   6.284
14732TIP3   OH244140   5.735   7.204   5.598
14732TIP3    H144141   5.714   7.187   5.690
14732TIP3    H244142   5.753   7.117   5.562
14733TIP3   OH244143   1.225   0.717   0.214
14733TIP3    H144144   1.212   0.658   0.289
14733TIP3    H244145   1.155   0.782   0.223
14734TIP3   OH244146   0.411   0.015   0.603
14734TIP3    H144147   0.379   0.090   0.653
14734TIP3    H244148   0.505   0.028   0.598
14735TIP3   OH244149   3.546   6.240   4.099
14735TIP3    H144150   3.562   6.148   4.081
14735TIP3    H244151   3.459   6.257   4.062
14736TIP3   OH244152   8.137   3.552   2.778
14736TIP3    H144153   8.206   3.539   2.843
14736TIP3    H244154   8.129   3.647   2.770
14737TIP3   OH244155   1.151   6.190   1.835
14737TIP3    H144156   1.237   6.148   1.848
14737TIP3    H244157   1.088   6.119   1.848
14738TIP3   OH244158   1.050   6.925   1.871
14738TIP3    H144159   1.069   6.834   1.851
14738TIP3    H244160   0.958   6.926   1.897
14739TIP3   OH244161   7.628   5.874   6.021
14739TIP3    H144162   7.701   5.890   5.962
14739TIP3    H244163   7.602   5.961   6.051
14740TIP3   OH244164   1.338   5.447   2.743
14740TIP3    H144165   1.330   5.509   2.671
14740TIP3    H244166   1.311   5.496   2.821
14741TIP3   OH244167   6.733   1.103   6.487
14741TIP3    H144168   6.793   1.038   6.450
14741TIP3    H244169   6.745   1.180   6.431
14742TIP3   OH244170   0.537   4.554   3.545
14742TIP3    H144171   0.454   4.569   3.592
14742TIP3    H244172   0.551   4.459   3.551
14743TIP3   OH244173   6.984   4.638   5.304
14743TIP3    H144174   7.032   4.555   5.297
14743TIP3    H244175   6.921   4.623   5.375
14744TIP3   OH244176   1.973   6.752   5.447
14744TIP3    H144177   1.899   6.812   5.456
14744TIP3    H244178   2.038   6.786   5.509
14745TIP3   OH244179   0.216   4.479   4.330
14745TIP3    H144180   0.259   4.403   4.368
14745TIP3    H244181   0.122   4.462   4.341
14746TIP3   OH244182   7.550   2.841   4.637
14746TIP3    H144183   7.474   2.831   4.693
14746TIP3    H244184   7.521   2.900   4.567
14747TIP3   OH244185   7.723   7.114   5.776
14747TIP3    H144186   7.703   7.086   5.687
14747TIP3    H244187   7.655   7.073   5.830
14748TIP3   OH244188   7.416   0.791   4.083
14748TIP3    H144189   7.434   0.838   4.001
14748TIP3    H244190   7.345   0.841   4.124
14749TIP3   OH244191   5.445   5.390   6.134
14749TIP3    H144192   5.490   5.365   6.215
14749TIP3    H244193   5.495   5.465   6.101
14750TIP3   OH244194   0.026   1.468   5.124
14750TIP3    H144195  -0.023   1.415   5.062
14750TIP3    H244196   0.070   1.404   5.180
14751TIP3   OH244197   7.244   5.582   3.160
14751TIP3    H144198   7.289   5.658   3.199
14751TIP3    H244199   7.156   5.585   3.197
14752TIP3   OH244200   4.776   6.847   0.336
14752TIP3    H144201   4.852   6.799   0.303
14752TIP3    H244202   4.812   6.913   0.394
14753TIP3   OH244203   0.936   6.334   3.849
14753TIP3    H144204   0.900   6.331   3.937
14753TIP3    H244205   0.975   6.421   3.842
14754TIP3   OH244206   4.044   6.651   3.450
14754TIP3    H144207   4.062   6.660   3.356
14754TIP3    H244208   4.021   6.558   3.460
14755TIP3   OH244209   0.377   5.036   0.363
14755TIP3    H144210   0.290   5.001   0.382
14755TIP3    H244211   0.423   5.031   0.447
14756TIP3   OH244212   0.923   0.294   1.100
14756TIP3    H144213   1.010   0.332   1.088
14756TIP3    H244214   0.938   0.205   1.131
14757TIP3   OH244215   6.797   4.811   5.911
14757TIP3    H144216   6.821   4.899   5.880
14757TIP3    H244217   6.880   4.774   5.942
14758TIP3   OH244218   7.118   7.365   6.774
14758TIP3    H144219   7.081   7.285   6.809
14758TIP3    H244220   7.048   7.403   6.720
14759TIP3   OH244221   6.034   7.185   1.356
14759TIP3    H144222   6.056   7.163   1.265
14759TIP3    H244223   6.075   7.271   1.369
14760TIP3   OH244224   2.322   4.111   2.007
14760TIP3    H144225   2.415   4.122   2.025
14760TIP3    H244226   2.281   4.098   2.092
14761TIP3   OH244227   1.950   0.899   1.252
14761TIP3    H144228   1.925   0.829   1.313
14761TIP3    H244229   2.026   0.940   1.293
14762TIP3   OH244230   8.154   6.879   2.567
14762TIP3    H144231   8.216   6.856   2.498
14762TIP3    H244232   8.204   6.935   2.626
14763TIP3   OH244233   0.771   5.045   0.640
14763TIP3    H144234   0.773   5.011   0.550
14763TIP3    H244235   0.863   5.053   0.665
14764TIP3   OH244236   3.856   4.210   2.518
14764TIP3    H144237   3.906   4.278   2.473
14764TIP3    H244238   3.806   4.168   2.448
14765TIP3   OH244239   7.275   1.078   2.923
14765TIP3    H144240   7.334   1.012   2.887
14765TIP3    H244241   7.299   1.084   3.015
14766TIP3   OH244242   8.226   5.595   5.331
14766TIP3    H144243   8.274   5.601   5.413
14766TIP3    H244244   8.135   5.612   5.354
14767TIP3   OH244245   2.900   6.668   2.432
14767TIP3    H144246   2.806   6.670   2.449
14767TIP3    H244247   2.926   6.577   2.450
14768TIP3   OH244248   8.173   4.907   3.654
14768TIP3    H144249   8.146   4.881   3.742
14768TIP3    H244250   8.118   4.982   3.633
14769TIP3   OH244251   6.281   1.784   3.367
14769TIP3    H144252   6.218   1.807   3.298
14769TIP3    H244253   6.228   1.746   3.437
14770TIP3   OH244254   1.404   3.524   2.417
14770TIP3    H144255   1.440   3.496   2.333
14770TIP3    H244256   1.374   3.443   2.458
14771TIP3   OH244257   6.482   0.113   3.942
14771TIP3    H144258   6.441   0.046   3.996
14771TIP3    H244259   6.408   0.164   3.907
14772TIP3   OH244260   2.406   0.648   1.826
14772TIP3    H144261   2.369   0.569   1.866
14772TIP3    H244262   2.393   0.717   1.892
14773TIP3   OH244263   0.666   4.107   5.931
14773TIP3    H144264   0.683   4.074   5.843
14773TIP3    H244265   0.748   4.093   5.978
14774TIP3   OH244266   3.431   7.671   0.803
14774TIP3    H144267   3.482   7.598   0.839
14774TIP3    H244268   3.438   7.660   0.708
14775TIP3   OH244269   0.313   7.502   2.692
14775TIP3    H144270   0.300   7.510   2.787
14775TIP3    H244271   0.373   7.428   2.681
14776TIP3   OH244272   3.271   4.849   0.012
14776TIP3    H144273   3.200   4.791  -0.017
14776TIP3    H244274   3.338   4.789   0.046
14777TIP3   OH244275   4.703   6.657   2.238
14777TIP3    H144276   4.685   6.581   2.182
14777TIP3    H244277   4.694   6.625   2.327
14778TIP3   OH244278   0.814   4.351   1.539
14778TIP3    H144279   0.794   4.370   1.630
14778TIP3    H244280   0.729   4.334   1.499
14779TIP3   OH244281   7.468   2.638   5.121
14779TIP3    H144282   7.470   2.733   5.110
14779TIP3    H244283   7.386   2.621   5.166
14780TIP3   OH244284   2.048   2.238   2.430
14780TIP3    H144285   1.957   2.210   2.424
14780TIP3    H244286   2.050   2.304   2.499
14781TIP3   OH244287   3.624   0.165   4.963
14781TIP3    H144288   3.691   0.220   5.003
14781TIP3    H244289   3.570   0.225   4.911
14782TIP3   OH244290   6.663   0.647   3.761
14782TIP3    H144291   6.724   0.590   3.714
14782TIP3    H244292   6.576   0.610   3.742
14783TIP3   OH244293   4.906   2.658   0.470
14783TIP3    H144294   4.875   2.658   0.379
14783TIP3    H244295   4.941   2.571   0.484
14784TIP3   OH244296   8.049   4.905   1.799
14784TIP3    H144297   8.032   4.948   1.883
14784TIP3    H244298   8.139   4.931   1.777
14785TIP3   OH244299   7.977   5.094   0.052
14785TIP3    H144300   8.053   5.144   0.083
14785TIP3    H244301   7.910   5.159   0.034
14786TIP3   OH244302   4.829   6.137   4.612
14786TIP3    H144303   4.753   6.163   4.663
14786TIP3    H244304   4.838   6.204   4.545
14787TIP3   OH244305   4.793   0.042   5.398
14787TIP3    H144306   4.718   0.097   5.418
14787TIP3    H244307   4.845   0.094   5.336
14788TIP3   OH244308   1.991   1.946   1.987
14788TIP3    H144309   2.004   2.026   2.038
14788TIP3    H244310   1.958   1.882   2.049
14789TIP3   OH244311   1.921   4.688   6.474
14789TIP3    H144312   1.878   4.650   6.550
14789TIP3    H244313   1.850   4.729   6.424
14790TIP3   OH244314   3.612   1.696   6.584
14790TIP3    H144315   3.651   1.625   6.634
14790TIP3    H244316   3.632   1.775   6.634
14791TIP3   OH244317   4.028   2.708   3.935
14791TIP3    H144318   3.968   2.661   3.994
14791TIP3    H244319   4.112   2.664   3.947
14792TIP3   OH244320   3.820   1.118   4.988
14792TIP3    H144321   3.872   1.103   4.909
14792TIP3    H244322   3.882   1.109   5.060
14793TIP3   OH244323   5.419   4.757   5.614
14793TIP3    H144324   5.375   4.788   5.693
14793TIP3    H244325   5.354   4.701   5.572
14794TIP3   OH244326   1.530   6.467   5.112
14794TIP3    H144327   1.605   6.521   5.086
14794TIP3    H244328   1.567   6.402   5.171
14795TIP3   OH244329   1.540   0.364   6.364
14795TIP3    H144330   1.579   0.434   6.415
14795TIP3    H244331   1.583   0.370   6.278
14796TIP3   OH244332   2.164   4.766   5.148
14796TIP3    H144333   2.186   4.807   5.064
14796TIP3    H244334   2.076   4.731   5.136
14797TIP3   OH244335   0.240   0.899   5.293
14797TIP3    H144336   0.316   0.935   5.339
14797TIP3    H244337   0.165   0.947   5.329
14798TIP3   OH244338   6.204   5.195   4.014
14798TIP3    H144339   6.229   5.102   4.017
14798TIP3    H244340   6.205   5.216   3.921
14799TIP3   OH244341   2.658   1.248   1.581
14799TIP3    H144342   2.612   1.280   1.503
14799TIP3    H244343   2.616   1.292   1.654
14800TIP3   OH244344   5.597   2.999   4.238
14800TIP3    H144345   5.624   2.924   4.291
14800TIP3    H244346   5.639   3.074   4.281
14801TIP3   OH244347   3.925   7.581   6.287
14801TIP3    H144348   3.978   7.501   6.283
14801TIP3    H244349   3.850   7.562   6.230
14802TIP3   OH244350   1.763   4.542   2.427
14802TIP3    H144351   1.839   4.501   2.471
14802TIP3    H244352   1.800   4.619   2.384
14803TIP3   OH244353   3.709   4.672   0.319
14803TIP3    H144354   3.686   4.605   0.383
14803TIP3    H244355   3.791   4.642   0.280
14804TIP3   OH244356   4.458   2.547   0.075
14804TIP3    H144357   4.454   2.544  -0.021
14804TIP3    H244358   4.491   2.461   0.100
14805TIP3   OH244359   0.294   4.889   0.598
14805TIP3    H144360   0.377   4.936   0.597
14805TIP3    H244361   0.238   4.940   0.656
14806TIP3   OH244362   0.102   4.843   3.509
14806TIP3    H144363   0.172   4.887   3.556
14806TIP3    H244364   0.021   4.880   3.546
14807TIP3   OH244365   2.402   3.114   0.528
14807TIP3    H144366   2.408   3.197   0.481
14807TIP3    H244367   2.371   3.138   0.615
14808TIP3   OH244368   5.525   6.029   3.682
14808TIP3    H144369   5.508   6.118   3.710
14808TIP3    H244370   5.446   5.981   3.706
14809TIP3   OH244371   5.612   5.796   3.456
14809TIP3    H144372   5.670   5.811   3.531
14809TIP3    H244373   5.531   5.764   3.495
14810TIP3   OH244374   1.717   1.762   1.398
14810TIP3    H144375   1.651   1.695   1.381
14810TIP3    H244376   1.677   1.844   1.366
14811TIP3   OH244377   5.500   1.228  -0.002
14811TIP3    H144378   5.573   1.202  -0.058
14811TIP3    H244379   5.533   1.213   0.087
14812TIP3   OH244380   6.842   7.267   1.890
14812TIP3    H144381   6.841   7.310   1.805
14812TIP3    H244382   6.856   7.174   1.870
14813TIP3   OH244383  -0.020   0.331   4.318
14813TIP3    H144384   0.054   0.311   4.260
14813TIP3    H244385   0.011   0.404   4.371
14814TIP3   OH244386   2.519   1.499   2.151
14814TIP3    H144387   2.488   1.577   2.105
14814TIP3    H244388   2.487   1.510   2.241
14815TIP3   OH244389   8.164   2.958   3.927
14815TIP3    H144390   8.123   2.948   3.841
14815TIP3    H244391   8.183   2.868   3.955
14816TIP3   OH244392   2.011   3.794   4.951
14816TIP3    H144393   1.982   3.875   4.993
14816TIP3    H244394   1.978   3.800   4.861
14817TIP3   OH244395   4.115   3.096   6.478
14817TIP3    H144396   4.135   3.181   6.438
14817TIP3    H244397   4.141   3.032   6.412
14818TIP3   OH244398   3.418   1.654   0.519
14818TIP3    H144399   3.469   1.586   0.565
14818TIP3    H244400   3.461   1.736   0.544
14819TIP3   OH244401   2.523   2.820   1.231
14819TIP3    H144402   2.601   2.821   1.286
14819TIP3    H244403   2.459   2.769   1.281
14820TIP3   OH244404   2.916   7.484   4.282
14820TIP3    H144405   2.957   7.571   4.287
14820TIP3    H244406   2.930   7.447   4.370
14821TIP3   OH244407   0.559   7.691   3.477
14821TIP3    H144408   0.646   7.651   3.480
14821TIP3    H244409   0.546   7.727   3.564
14822TIP3   OH244410   0.964   2.064   0.811
14822TIP3    H144411   0.886   2.119   0.805
14822TIP3    H244412   0.995   2.056   0.720
14823TIP3   OH244413   4.150   3.375   5.176
14823TIP3    H144414   4.112   3.292   5.205
14823TIP3    H244415   4.193   3.355   5.093
14824TIP3   OH244416   4.814   6.505   2.454
14824TIP3    H144417   4.888   6.468   2.406
14824TIP3    H244418   4.848   6.585   2.493
14825TIP3   OH244419   5.757   4.331   5.378
14825TIP3    H144420   5.828   4.324   5.314
14825TIP3    H244421   5.748   4.424   5.395
14826TIP3   OH244422   2.397   3.064   1.629
14826TIP3    H144423   2.371   3.003   1.560
14826TIP3    H244424   2.337   3.046   1.701
14827TIP3   OH244425   0.664   0.925   2.241
14827TIP3    H144426   0.678   0.899   2.332
14827TIP3    H244427   0.638   0.845   2.196
14828TIP3   OH244428   2.046   3.703   1.515
14828TIP3    H144429   2.057   3.782   1.462
14828TIP3    H244430   1.959   3.670   1.492
14829TIP3   OH244431   2.334   0.518   5.998
14829TIP3    H144432   2.324   0.589   6.062
14829TIP3    H244433   2.424   0.488   6.010
14830TIP3   OH244434   3.620   7.786   0.940
14830TIP3    H144435   3.535   7.761   0.903
14830TIP3    H244436   3.613   7.765   1.033
14831TIP3   OH244437   8.106   6.505   1.519
14831TIP3    H144438   8.024   6.499   1.568
14831TIP3    H244439   8.091   6.576   1.457
14832TIP3   OH244440   6.268   0.290   5.653
14832TIP3    H144441   6.216   0.330   5.722
14832TIP3    H244442   6.219   0.307   5.573
14833TIP3   OH244443   3.992   2.242   6.560
14833TIP3    H144444   3.922   2.203   6.508
14833TIP3    H244445   3.982   2.336   6.547
14834TIP3   OH244446   1.788   4.334   1.038
14834TIP3    H144447   1.826   4.383   0.966
14834TIP3    H244448   1.831   4.248   1.034
14835TIP3   OH244449   1.363   2.940   4.133
14835TIP3    H144450   1.393   3.028   4.109
14835TIP3    H244451   1.274   2.953   4.167
14836TIP3   OH244452   1.693   1.002   4.500
14836TIP3    H144453   1.619   1.001   4.561
14836TIP3    H244454   1.759   0.947   4.541
14837TIP3   OH244455   1.884   6.023   1.035
14837TIP3    H144456   1.973   6.013   1.071
14837TIP3    H244457   1.892   5.999   0.943
14838TIP3   OH244458   7.105   4.844   1.436
14838TIP3    H144459   7.168   4.912   1.411
14838TIP3    H244460   7.148   4.797   1.508
14839TIP3   OH244461   0.297   4.947   2.216
14839TIP3    H144462   0.264   4.870   2.168
14839TIP3    H244463   0.373   4.975   2.166
   8.29776   7.82320   6.77509   0.00000   0.00000  -2.76592   0.00000  -2.76592  -3.91160
