Title
68223
    1GLY      N    1   2.204   4.494   5.651
    1GLY    HT1    2   2.134   4.500   5.728
    1GLY    HT2    3   2.255   4.404   5.665
    1GLY    HT3    4   2.155   4.483   5.559
    1GLY     CA    5   2.295   4.612   5.652
    1GLY    HA1    6   2.358   4.602   5.739
    1GLY    HA2    7   2.230   4.699   5.656
    1GLY      C    8   2.386   4.628   5.533
    1GLY      O    9   2.383   4.543   5.443
    2PRO      N   10   2.466   4.734   5.526
    2PRO     CD   11   2.452   4.850   5.613
    2PRO    HD1   12   2.492   4.826   5.714
    2PRO    HD2   13   2.346   4.883   5.619
    2PRO     CA   14   2.580   4.748   5.435
    2PRO     HA   15   2.539   4.755   5.335
    2PRO     CB   16   2.650   4.877   5.482
    2PRO    HB1   17   2.698   4.930   5.397
    2PRO    HB2   18   2.727   4.855   5.559
    2PRO     CG   19   2.537   4.958   5.547
    2PRO    HG1   20   2.575   5.033   5.619
    2PRO    HG2   21   2.477   5.009   5.468
    2PRO      C   22   2.676   4.631   5.433
    2PRO      O   23   2.689   4.560   5.534
    3GLY      N   24   2.746   4.610   5.320
    3GLY     HN   25   2.736   4.673   5.243
    3GLY     CA   26   2.859   4.519   5.311
    3GLY    HA1   27   2.888   4.513   5.207
    3GLY    HA2   28   2.831   4.424   5.354
    3GLY      C   29   2.979   4.571   5.386
    3GLY      O   30   2.988   4.689   5.421
    4ASN      N   31   3.078   4.484   5.410
    4ASN     HN   32   3.072   4.389   5.381
    4ASN     CA   33   3.205   4.526   5.467
    4ASN     HA   34   3.182   4.576   5.560
    4ASN     CB   35   3.298   4.405   5.497
    4ASN    HB1   36   3.395   4.441   5.538
    4ASN    HB2   37   3.316   4.350   5.402
    4ASN     CG   38   3.237   4.310   5.599
    4ASN    OD1   39   3.141   4.339   5.672
    4ASN    ND2   40   3.292   4.186   5.605
    4ASN   HD21   41   3.253   4.120   5.669
    4ASN   HD22   42   3.370   4.165   5.546
    4ASN      C   43   3.279   4.623   5.374
    4ASN      O   44   3.266   4.610   5.252
    5PRO      N   45   3.355   4.721   5.422
    5PRO     CD   46   3.362   4.759   5.564
    5PRO    HD1   47   3.420   4.681   5.618
    5PRO    HD2   48   3.261   4.771   5.608
    5PRO     CA   49   3.454   4.793   5.342
    5PRO     HA   50   3.399   4.856   5.276
    5PRO     CB   51   3.536   4.871   5.446
    5PRO    HB1   52   3.573   4.968   5.406
    5PRO    HB2   53   3.622   4.811   5.482
    5PRO     CG   54   3.438   4.891   5.562
    5PRO    HG1   55   3.490   4.912   5.658
    5PRO    HG2   56   3.368   4.974   5.539
    5PRO      C   57   3.543   4.706   5.253
    5PRO      O   58   3.591   4.602   5.298
    6GLY      N   59   3.567   4.747   5.127
    6GLY     HN   60   3.521   4.829   5.092
    6GLY     CA   61   3.667   4.684   5.041
    6GLY    HA1   62   3.668   4.738   4.948
    6GLY    HA2   63   3.639   4.580   5.029
    6GLY      C   64   3.808   4.687   5.096
    6GLY      O   65   3.844   4.774   5.175
    7SER      N   66   3.892   4.592   5.050
    7SER     HN   67   3.859   4.521   4.989
    7SER     CA   68   4.032   4.580   5.089
    7SER     HA   69   4.033   4.557   5.194
    7SER     CB   70   4.106   4.466   5.014
    7SER    HB1   71   4.215   4.470   5.031
    7SER    HB2   72   4.089   4.476   4.904
    7SER     OG   73   4.059   4.338   5.058
    7SER    HG1   74   4.086   4.331   5.150
    7SER      C   75   4.115   4.707   5.073
    7SER      O   76   4.089   4.792   4.988
    8GLY      N   77   4.217   4.723   5.160
    8GLY     HN   78   4.236   4.656   5.231
    8GLY     CA   79   4.311   4.834   5.152
    8GLY    HA1   80   4.386   4.818   5.228
    8GLY    HA2   81   4.253   4.924   5.167
    8GLY      C   82   4.385   4.846   5.019
    8GLY      O   83   4.395   4.749   4.944
    9PRO      N   84   4.440   4.963   4.986
    9PRO     CD   85   4.446   5.079   5.076
    9PRO    HD1   86   4.464   5.050   5.181
    9PRO    HD2   87   4.350   5.135   5.068
    9PRO     CA   88   4.540   4.973   4.879
    9PRO     HA   89   4.495   4.939   4.786
    9PRO     CB   90   4.575   5.122   4.878
    9PRO    HB1   91   4.500   5.177   4.817
    9PRO    HB2   92   4.676   5.143   4.836
    9PRO     CG   93   4.563   5.164   5.025
    9PRO    HG1   94   4.655   5.136   5.079
    9PRO    HG2   95   4.545   5.273   5.037
    9PRO      C   96   4.661   4.883   4.903
    9PRO      O   97   4.700   4.863   5.018
   10GLY      N   98   4.720   4.826   4.796
   10GLY     HN   99   4.684   4.842   4.705
   10GLY     CA  100   4.844   4.749   4.806
   10GLY    HA1  101   4.872   4.721   4.705
   10GLY    HA2  102   4.826   4.664   4.870
   10GLY      C  103   4.960   4.826   4.864
   10GLY      O  104   4.964   4.950   4.860
   11ASP      N  105   5.062   4.754   4.916
   11ASP     HN  106   5.057   4.655   4.922
   11ASP     CA  107   5.186   4.811   4.964
   11ASP     HA  108   5.158   4.881   5.041
   11ASP     CB  109   5.275   4.699   5.025
   11ASP    HB1  110   5.379   4.736   5.040
   11ASP    HB2  111   5.279   4.611   4.957
   11ASP     CG  112   5.225   4.657   5.162
   11ASP    OD1  113   5.193   4.746   5.245
   11ASP    OD2  114   5.228   4.534   5.190
   11ASP      C  115   5.260   4.892   4.855
   11ASP      O  116   5.241   4.868   4.735
   12PRO      N  117   5.341   4.994   4.888
   12PRO     CD  118   5.370   5.034   5.026
   12PRO    HD1  119   5.437   4.957   5.072
   12PRO    HD2  120   5.278   5.046   5.087
   12PRO     CA  121   5.434   5.056   4.794
   12PRO     HA  122   5.374   5.112   4.725
   12PRO     CB  123   5.524   5.146   4.881
   12PRO    HB1  124   5.548   5.242   4.831
   12PRO    HB2  125   5.619   5.094   4.907
   12PRO     CG  126   5.445   5.166   5.011
   12PRO    HG1  127   5.510   5.188   5.098
   12PRO    HG2  128   5.371   5.249   4.998
   12PRO      C  129   5.516   4.959   4.710
   12PRO      O  130   5.561   4.857   4.761
   13GLY      N  131   5.537   4.989   4.580
   13GLY     HN  132   5.497   5.070   4.538
   13GLY     CA  133   5.637   4.920   4.500
   13GLY    HA1  134   5.633   4.960   4.400
   13GLY    HA2  135   5.615   4.814   4.503
   13GLY      C  136   5.777   4.941   4.552
   13GLY      O  137   5.806   5.043   4.614
   14SER      N  138   5.868   4.847   4.524
   14SER     HN  139   5.841   4.761   4.479
   14SER     CA  140   6.007   4.854   4.565
   14SER     HA  141   6.007   4.853   4.673
   14SER     CB  142   6.090   4.732   4.515
   14SER    HB1  143   6.194   4.736   4.555
   14SER    HB2  144   6.095   4.735   4.404
   14SER     OG  145   6.029   4.609   4.554
   14SER    HG1  146   6.036   4.602   4.649
   14SER      C  147   6.079   4.980   4.520
   14SER      O  148   6.049   5.039   4.416
   15GLY      N  149   6.178   5.026   4.601
   15GLY     HN  150   6.200   4.979   4.686
   15GLY     CA  151   6.264   5.137   4.562
   15GLY    HA1  152   6.338   5.149   4.640
   15GLY    HA2  153   6.200   5.223   4.551
   15GLY      C  154   6.339   5.115   4.432
   15GLY      O  155   6.356   5.000   4.389
   16PRO      N  156   6.386   5.219   4.363
   16PRO     CD  157   6.382   5.358   4.412
   16PRO    HD1  158   6.403   5.364   4.520
   16PRO    HD2  159   6.283   5.401   4.388
   16PRO     CA  160   6.479   5.203   4.251
   16PRO     HA  161   6.431   5.143   4.175
   16PRO     CB  162   6.503   5.348   4.204
   16PRO    HB1  163   6.421   5.377   4.135
   16PRO    HB2  164   6.600   5.362   4.152
   16PRO     CG  165   6.492   5.430   4.333
   16PRO    HG1  166   6.588   5.424   4.389
   16PRO    HG2  167   6.467   5.537   4.314
   16PRO      C  168   6.607   5.131   4.290
   16PRO      O  169   6.653   5.143   4.404
   17GLY      N  170   6.666   5.053   4.197
   17GLY     HN  171   6.623   5.043   4.108
   17GLY     CA  172   6.799   4.995   4.216
   17GLY    HA1  173   6.821   4.935   4.128
   17GLY    HA2  174   6.798   4.937   4.307
   17GLY      C  175   6.909   5.098   4.227
   17GLY      O  176   6.900   5.205   4.167
   18ASN      N  177   7.016   5.067   4.303
   18ASN     HN  178   7.022   4.979   4.350
   18ASN     CA  179   7.128   5.157   4.327
   18ASN     HA  180   7.083   5.245   4.373
   18ASN     CB  181   7.232   5.097   4.426
   18ASN    HB1  182   7.314   5.170   4.444
   18ASN    HB2  183   7.276   5.005   4.380
   18ASN     CG  184   7.171   5.059   4.561
   18ASN    OD1  185   7.056   5.082   4.594
   18ASN    ND2  186   7.255   4.995   4.646
   18ASN   HD21  187   7.217   4.963   4.732
   18ASN   HD22  188   7.351   4.981   4.621
   18ASN      C  189   7.200   5.200   4.198
   18ASN      O  190   7.215   5.118   4.107
   19PRO      N  191   7.243   5.326   4.184
   19PRO     CD  192   7.234   5.430   4.287
   19PRO    HD1  193   7.277   5.396   4.383
   19PRO    HD2  194   7.127   5.458   4.300
   19PRO     CA  195   7.304   5.375   4.061
   19PRO     HA  196   7.246   5.343   3.975
   19PRO     CB  197   7.299   5.528   4.079
   19PRO    HB1  198   7.199   5.564   4.046
   19PRO    HB2  199   7.377   5.581   4.021
   19PRO     CG  200   7.313   5.548   4.230
   19PRO    HG1  201   7.420   5.536   4.259
   19PRO    HG2  202   7.275   5.646   4.266
   19PRO      C  203   7.446   5.325   4.039
   19PRO    OT1  204   7.505   5.260   4.129
   19PRO    OT2  205   7.501   5.354   3.929
   20LIT    LIT  206   1.661   2.248   3.003
   21LIT    LIT  207   0.033   3.013   4.362
   22LIT    LIT  208   0.873   3.207   5.240
   23LIT    LIT  209   8.215   6.625   5.932
   24LIT    LIT  210   0.328   2.543   1.364
   25LIT    LIT  211   5.374   7.532   4.547
   26LIT    LIT  212   7.224   0.162   2.705
   27LIT    LIT  213   1.063   5.058   5.930
   28LIT    LIT  214   1.401   7.288   6.691
   29LIT    LIT  215   7.518   9.037   0.737
   30LIT    LIT  216   3.473   1.948   4.410
   31LIT    LIT  217   0.615   0.010   3.987
   32LIT    LIT  218   7.303   4.215   5.380
   33LIT    LIT  219   0.054   5.365   4.149
   34LIT    LIT  220   2.937   5.485   6.675
   35LIT    LIT  221   2.368   1.665   7.316
   36LIT    LIT  222   0.698   3.652   2.862
   37LIT    LIT  223   1.116   9.002   1.221
   38LIT    LIT  224   8.290   4.611   6.277
   39LIT    LIT  225   6.863   8.305   5.484
   40LIT    LIT  226   4.883   2.451   4.040
   41LIT    LIT  227   2.627   0.782   3.141
   42LIT    LIT  228   0.331   2.237   4.731
   43LIT    LIT  229   7.116   9.123   5.456
   44LIT    LIT  230   8.429   7.771   4.693
   45LIT    LIT  231   7.589   6.625   3.821
   46LIT    LIT  232   9.259   6.598   6.798
   47LIT    LIT  233   4.857   5.525   0.372
   48LIT    LIT  234   4.733   5.380   5.365
   49LIT    LIT  235   4.438   0.274   6.097
   50LIT    LIT  236   6.637   6.718   2.214
   51LIT    LIT  237   0.156   6.157   5.803
   52LIT    LIT  238   3.475   9.203   3.370
   53LIT    LIT  239   0.236   3.658   5.570
   54LIT    LIT  240   2.167   1.153   1.945
   55LIT    LIT  241   4.601   7.136   0.956
   56LIT    LIT  242   3.388   1.519   3.017
   57LIT    LIT  243   1.750   5.381   0.375
   58LIT    LIT  244   7.420   8.261   6.512
   59LIT    LIT  245   4.770   0.600   6.716
   60LIT    LIT  246   6.503   3.790   6.487
   61LIT    LIT  247   6.256   7.235   3.381
   62LIT    LIT  248   1.783   5.812   3.174
   63LIT    LIT  249   5.150   2.005   7.377
   64LIT    LIT  250   4.635   2.335   6.835
   65LIT    LIT  251   3.044   8.075   3.110
   66LIT    LIT  252   6.239   8.874   6.309
   67LIT    LIT  253   0.914   4.711   7.243
   68LIT    LIT  254   6.529   2.296   4.634
   69LIT    LIT  255   3.971   6.290   2.004
   70LIT    LIT  256   6.669   6.307   0.613
   71LIT    LIT  257   2.854   0.724   5.971
   72LIT    LIT  258   4.022   0.788   3.581
   73LIT    LIT  259   2.265   9.162   2.228
   74LIT    LIT  260   8.783   0.074   6.477
   75LIT    LIT  261   6.944   8.162   3.188
   76LIT    LIT  262   4.355   7.592   6.856
   77LIT    LIT  263   8.755   0.030   1.983
   78LIT    LIT  264   6.667   4.757   2.736
   79LIT    LIT  265   6.686   8.119   2.106
   80LIT    LIT  266   4.139   4.603   7.859
   81LIT    LIT  267   0.250   0.128   5.616
   82LIT    LIT  268   8.565   4.088   3.593
   83LIT    LIT  269   7.746   7.052   6.819
   84LIT    LIT  270   7.969   7.080   3.606
   85LIT    LIT  271   5.044   8.394   3.083
   86CLA    CLA  272   5.087   0.579   1.956
   87CLA    CLA  273   9.146   0.181   6.297
   88CLA    CLA  274   6.137   6.296   5.873
   89CLA    CLA  275   6.507   3.617   6.332
   90CLA    CLA  276   8.925   2.923   3.084
   91CLA    CLA  277   6.284   8.490   4.628
   92CLA    CLA  278   0.937   3.120   2.682
   93CLA    CLA  279   2.874   6.933   5.352
   94CLA    CLA  280   6.475   7.644   6.365
   95CLA    CLA  281   0.488   2.797   3.901
   96CLA    CLA  282   4.129   1.065   3.321
   97CLA    CLA  283   2.164   1.257   1.745
   98CLA    CLA  284   7.569   4.373   6.689
   99CLA    CLA  285   7.907   7.127   6.683
  100CLA    CLA  286   1.072   2.560   1.702
  101CLA    CLA  287   7.247   8.590   7.251
  102CLA    CLA  288   4.964   8.533   3.236
  103CLA    CLA  289   3.695   2.538   4.143
  104CLA    CLA  290   1.246   6.443   1.557
  105CLA    CLA  291   9.511   5.334   5.216
  106CLA    CLA  292   9.442   2.789   7.138
  107CLA    CLA  293   7.353   7.423   5.899
  108CLA    CLA  294   5.397   5.150   7.037
  109CLA    CLA  295   1.058   3.128   1.054
  110CLA    CLA  296   7.474   4.275   1.153
  111CLA    CLA  297   1.692   3.077   2.979
  112CLA    CLA  298   7.696   3.546   4.909
  113CLA    CLA  299   8.316   7.197   5.531
  114CLA    CLA  300   1.220   7.216   7.753
  115CLA    CLA  301   4.322   6.873   6.502
  116CLA    CLA  302   6.285   0.909   1.867
  117CLA    CLA  303   5.748   2.100   0.383
  118CLA    CLA  304   4.695   2.079   7.264
  119CLA    CLA  305   4.193   8.116   5.077
  120CLA    CLA  306   9.226   5.452   4.158
  121CLA    CLA  307   5.615   0.139   6.032
  122CLA    CLA  308   2.693   0.733   5.813
  123CLA    CLA  309   8.853   3.646   4.530
  124CLA    CLA  310   1.203   4.775   0.460
  125CLA    CLA  311   1.604   2.997   0.203
  126CLA    CLA  312   7.456   8.828   0.807
  127CLA    CLA  313   6.957   0.162   3.638
  128CLA    CLA  314   6.923   9.217   5.524
  129CLA    CLA  315   7.683   0.673   5.037
  130CLA    CLA  316   6.487   7.870   2.756
  131CLA    CLA  317   5.298   6.773   4.733
  132CLA    CLA  318   8.094   7.523   4.218
  133CLA    CLA  319   6.196   1.853   6.782
  134CLA    CLA  320   4.218   0.783   1.665
  135CLA    CLA  321   3.451   2.864   2.214
  136CLA    CLA  322   0.634   4.013   6.772
  137CLA    CLA  323   7.639   6.837   3.882
  138CLA    CLA  324   3.112   2.261   4.957
  139CLA    CLA  325   2.950   6.310   6.786
  140CLA    CLA  326   7.222   9.046   4.049
  141CLA    CLA  327   1.746   6.252   4.490
  142CLA    CLA  328   4.185   7.459   7.733
  143CLA    CLA  329   0.232   2.317   4.917
  144CLA    CLA  330   1.225   5.588   5.889
  145CLA    CLA  331   8.888   1.187   4.726
  146CLA    CLA  332   0.991   0.571   0.022
  147CLA    CLA  333   9.758   7.612   3.196
  148CLA    CLA  334   6.876   3.106   4.045
  149CLA    CLA  335   8.714   4.419   6.324
  150CLA    CLA  336   6.062   8.855   6.802
  151TIP3   OH2  337   4.506  -0.027   1.579
  151TIP3    H1  338   4.447  -0.041   1.654
  151TIP3    H2  339   4.532   0.065   1.586
  152TIP3   OH2  340   4.813   0.045   2.071
  152TIP3    H1  341   4.783  -0.033   2.024
  152TIP3    H2  342   4.772   0.118   2.026
  153TIP3   OH2  343   1.733   8.917   1.860
  153TIP3    H1  344   1.653   8.959   1.892
  153TIP3    H2  345   1.716   8.901   1.767
  154TIP3   OH2  346   1.390   8.786   2.144
  154TIP3    H1  347   1.326   8.804   2.213
  154TIP3    H2  348   1.362   8.703   2.107
  155TIP3   OH2  349   4.124   0.092   2.208
  155TIP3    H1  350   4.101   0.182   2.233
  155TIP3    H2  351   4.055   0.066   2.147
  156TIP3   OH2  352   1.638   8.756   2.304
  156TIP3    H1  353   1.568   8.821   2.300
  156TIP3    H2  354   1.649   8.726   2.213
  157TIP3   OH2  355   1.019   8.673   2.539
  157TIP3    H1  356   0.990   8.620   2.464
  157TIP3    H2  357   1.049   8.609   2.604
  158TIP3   OH2  358   4.704   0.721   2.182
  158TIP3    H1  359   4.705   0.722   2.086
  158TIP3    H2  360   4.795   0.733   2.207
  159TIP3   OH2  361   1.480   8.968   1.962
  159TIP3    H1  362   1.423   9.041   1.941
  159TIP3    H2  363   1.440   8.927   2.038
  160TIP3   OH2  364   0.993   9.097   2.265
  160TIP3    H1  365   1.033   9.097   2.351
  160TIP3    H2  366   0.952   9.183   2.257
  161TIP3   OH2  367   4.388   0.095   2.115
  161TIP3    H1  368   4.294   0.100   2.132
  161TIP3    H2  369   4.427   0.158   2.175
  162TIP3   OH2  370   5.079   0.050   2.143
  162TIP3    H1  371   4.989   0.083   2.136
  162TIP3    H2  372   5.107   0.040   2.052
  163TIP3   OH2  373   4.484   0.370   2.054
  163TIP3    H1  374   4.415   0.333   2.000
  163TIP3    H2  375   4.503   0.455   2.014
  164TIP3   OH2  376   4.550   0.240   1.662
  164TIP3    H1  377   4.466   0.259   1.622
  164TIP3    H2  378   4.614   0.285   1.607
  165TIP3   OH2  379   3.353   0.374   2.565
  165TIP3    H1  380   3.435   0.379   2.615
  165TIP3    H2  381   3.326   0.283   2.575
  166TIP3   OH2  382   3.823   0.309   2.578
  166TIP3    H1  383   3.898   0.251   2.594
  166TIP3    H2  384   3.846   0.357   2.498
  167TIP3   OH2  385   4.425   0.239   2.358
  167TIP3    H1  386   4.431   0.164   2.417
  167TIP3    H2  387   4.497   0.297   2.385
  168TIP3   OH2  388   0.834   9.113   2.532
  168TIP3    H1  389   0.817   9.099   2.438
  168TIP3    H2  390   0.918   9.070   2.548
  169TIP3   OH2  391   1.258   9.089   2.167
  169TIP3    H1  392   1.259   9.174   2.123
  169TIP3    H2  393   1.166   9.073   2.188
  170TIP3   OH2  394   1.120   9.014   2.509
  170TIP3    H1  395   1.169   8.963   2.445
  170TIP3    H2  396   1.142   8.974   2.593
  171TIP3   OH2  397   1.365   8.587   2.619
  171TIP3    H1  398   1.315   8.565   2.540
  171TIP3    H2  399   1.392   8.677   2.606
  172TIP3   OH2  400   1.458   9.011   2.333
  172TIP3    H1  401   1.385   9.040   2.278
  172TIP3    H2  402   1.536   9.032   2.281
  173TIP3   OH2  403   4.758   0.346   1.529
  173TIP3    H1  404   4.796   0.414   1.585
  173TIP3    H2  405   4.773   0.377   1.439
  174TIP3   OH2  406   4.799   0.467   1.987
  174TIP3    H1  407   4.792   0.379   1.950
  174TIP3    H2  408   4.892   0.485   1.989
  175TIP3   OH2  409   4.896   0.111   2.445
  175TIP3    H1  410   4.818   0.126   2.497
  175TIP3    H2  411   4.930   0.198   2.426
  176TIP3   OH2  412   1.603   9.199   1.782
  176TIP3    H1  413   1.631   9.187   1.691
  176TIP3    H2  414   1.623   9.290   1.802
  177TIP3   OH2  415   4.666   0.218   1.910
  177TIP3    H1  416   4.603   0.260   1.969
  177TIP3    H2  417   4.627   0.228   1.823
  178TIP3   OH2  418   1.696   9.040   2.194
  178TIP3    H1  419   1.756   8.993   2.137
  178TIP3    H2  420   1.709   9.132   2.171
  179TIP3   OH2  421   1.918   8.845   2.234
  179TIP3    H1  422   1.831   8.841   2.275
  179TIP3    H2  423   1.958   8.761   2.255
  180TIP3   OH2  424   1.657   8.720   2.033
  180TIP3    H1  425   1.564   8.743   2.037
  180TIP3    H2  426   1.692   8.775   1.963
  181TIP3   OH2  427   4.074   0.365   2.280
  181TIP3    H1  428   4.120   0.359   2.364
  181TIP3    H2  429   4.134   0.414   2.224
  182TIP3   OH2  430   4.273   0.519   2.171
  182TIP3    H1  431   4.338   0.456   2.139
  182TIP3    H2  432   4.324   0.584   2.220
  183TIP3   OH2  433   4.287   0.311   1.879
  183TIP3    H1  434   4.194   0.315   1.903
  183TIP3    H2  435   4.296   0.375   1.808
  184TIP3   OH2  436   4.353   0.507   1.693
  184TIP3    H1  437   4.310   0.590   1.674
  184TIP3    H2  438   4.370   0.469   1.606
  185TIP3   OH2  439   4.701   0.374   2.226
  185TIP3    H1  440   4.618   0.362   2.180
  185TIP3    H2  441   4.756   0.422   2.163
  186TIP3   OH2  442   5.466   0.146   1.622
  186TIP3    H1  443   5.479   0.240   1.609
  186TIP3    H2  444   5.416   0.139   1.703
  187TIP3   OH2  445   5.716   0.230   1.816
  187TIP3    H1  446   5.657   0.290   1.861
  187TIP3    H2  447   5.661   0.187   1.751
  188TIP3   OH2  448   5.513   0.395   1.901
  188TIP3    H1  449   5.494   0.417   1.810
  188TIP3    H2  450   5.426   0.384   1.942
  189TIP3   OH2  451   1.873   9.196   1.887
  189TIP3    H1  452   1.789   9.168   1.852
  189TIP3    H2  453   1.916   9.115   1.915
  190TIP3   OH2  454   4.985   0.193   1.536
  190TIP3    H1  455   5.060   0.253   1.544
  190TIP3    H2  456   4.908   0.250   1.540
  191TIP3   OH2  457   5.902   0.396   1.686
  191TIP3    H1  458   5.893   0.482   1.726
  191TIP3    H2  459   5.851   0.338   1.743
  192TIP3   OH2  460   5.292   0.174   1.834
  192TIP3    H1  461   5.285   0.227   1.913
  192TIP3    H2  462   5.236   0.099   1.849
  193TIP3   OH2  463   6.512   0.937   1.647
  193TIP3    H1  464   6.464   0.974   1.573
  193TIP3    H2  465   6.449   0.936   1.719
  194TIP3   OH2  466   1.973   8.963   1.993
  194TIP3    H1  467   1.967   8.918   2.077
  194TIP3    H2  468   1.906   8.922   1.939
  195TIP3   OH2  469   6.159   0.462   1.599
  195TIP3    H1  470   6.071   0.426   1.606
  195TIP3    H2  471   6.188   0.473   1.690
  196TIP3   OH2  472   5.735   0.475   1.483
  196TIP3    H1  473   5.777   0.548   1.438
  196TIP3    H2  474   5.802   0.442   1.543
  197TIP3   OH2  475   6.331   0.656   1.507
  197TIP3    H1  476   6.274   0.581   1.523
  197TIP3    H2  477   6.306   0.688   1.420
  198TIP3   OH2  478   5.188   0.353   1.650
  198TIP3    H1  479   5.231   0.294   1.713
  198TIP3    H2  480   5.166   0.431   1.702
  199TIP3   OH2  481   5.603   0.518   2.130
  199TIP3    H1  482   5.698   0.508   2.122
  199TIP3    H2  483   5.569   0.486   2.047
  200TIP3   OH2  484   6.218   0.487   1.867
  200TIP3    H1  485   6.203   0.422   1.935
  200TIP3    H2  486   6.304   0.524   1.888
  201TIP3   OH2  487   5.854   0.078   2.004
  201TIP3    H1  488   5.820   0.134   1.934
  201TIP3    H2  489   5.948   0.076   1.989
  202TIP3   OH2  490   6.137   0.061   1.989
  202TIP3    H1  491   6.196   0.052   1.914
  202TIP3    H2  492   6.181   0.013   2.060
  203TIP3   OH2  493   2.299   8.977   2.193
  203TIP3    H1  494   2.276   8.900   2.245
  203TIP3    H2  495   2.353   8.943   2.122
  204TIP3   OH2  496   4.893   0.330   1.279
  204TIP3    H1  497   4.912   0.285   1.197
  204TIP3    H2  498   4.979   0.355   1.313
  205TIP3   OH2  499   6.633   0.411   2.004
  205TIP3    H1  500   6.569   0.475   1.973
  205TIP3    H2  501   6.718   0.450   1.986
  206TIP3   OH2  502   5.276   0.352   2.044
  206TIP3    H1  503   5.218   0.423   2.017
  206TIP3    H2  504   5.264   0.346   2.139
  207TIP3   OH2  505   5.505   0.418   1.622
  207TIP3    H1  506   5.451   0.493   1.595
  207TIP3    H2  507   5.590   0.433   1.581
  208TIP3   OH2  508   5.891   0.665   1.758
  208TIP3    H1  509   5.927   0.664   1.847
  208TIP3    H2  510   5.958   0.708   1.705
  209TIP3   OH2  511   6.102   0.799   1.638
  209TIP3    H1  512   6.173   0.752   1.595
  209TIP3    H2  513   6.143   0.843   1.713
  210TIP3   OH2  514   5.175   0.674   1.679
  210TIP3    H1  515   5.100   0.732   1.671
  210TIP3    H2  516   5.174   0.646   1.771
  211TIP3   OH2  517   5.398   0.653   1.531
  211TIP3    H1  518   5.320   0.664   1.585
  211TIP3    H2  519   5.377   0.697   1.449
  212TIP3   OH2  520   5.818   0.684   1.322
  212TIP3    H1  521   5.742   0.713   1.271
  212TIP3    H2  522   5.844   0.761   1.372
  213TIP3   OH2  523   6.041   0.621   1.170
  213TIP3    H1  524   5.955   0.624   1.213
  213TIP3    H2  525   6.100   0.662   1.233
  214TIP3   OH2  526   6.262   0.769   1.260
  214TIP3    H1  527   6.241   0.860   1.242
  214TIP3    H2  528   6.270   0.729   1.173
  215TIP3   OH2  529   5.134   0.401   1.391
  215TIP3    H1  530   5.175   0.400   1.477
  215TIP3    H2  531   5.180   0.334   1.341
  216TIP3   OH2  532   5.241   0.187   1.274
  216TIP3    H1  533   5.207   0.147   1.193
  216TIP3    H2  534   5.327   0.219   1.250
  217TIP3   OH2  535   5.561   0.505   1.268
  217TIP3    H1  536   5.553   0.415   1.237
  217TIP3    H2  537   5.617   0.498   1.345
  218TIP3   OH2  538   6.566   0.670   1.665
  218TIP3    H1  539   6.492   0.646   1.609
  218TIP3    H2  540   6.566   0.765   1.665
  219TIP3   OH2  541   6.952   0.910   1.557
  219TIP3    H1  542   7.025   0.913   1.620
  219TIP3    H2  543   6.905   0.829   1.579
  220TIP3   OH2  544   2.630   1.587   2.165
  220TIP3    H1  545   2.554   1.545   2.125
  220TIP3    H2  546   2.662   1.647   2.099
  221TIP3   OH2  547   2.843   1.890   2.254
  221TIP3    H1  548   2.859   1.796   2.261
  221TIP3    H2  549   2.773   1.908   2.318
  222TIP3   OH2  550   2.565   2.232   2.358
  222TIP3    H1  551   2.550   2.259   2.267
  222TIP3    H2  552   2.649   2.272   2.381
  223TIP3   OH2  553   2.882   1.616   2.269
  223TIP3    H1  554   2.788   1.601   2.273
  223TIP3    H2  555   2.909   1.579   2.185
  224TIP3   OH2  556   2.364   1.909   2.193
  224TIP3    H1  557   2.298   1.891   2.261
  224TIP3    H2  558   2.328   1.981   2.143
  225TIP3   OH2  559   1.652   1.903   2.753
  225TIP3    H1  560   1.733   1.852   2.762
  225TIP3    H2  561   1.623   1.886   2.663
  226TIP3   OH2  562   2.260   1.843   2.533
  226TIP3    H1  563   2.263   1.759   2.578
  226TIP3    H2  564   2.343   1.885   2.557
  227TIP3   OH2  565   2.311   1.365   2.754
  227TIP3    H1  566   2.404   1.348   2.740
  227TIP3    H2  567   2.277   1.284   2.792
  228TIP3   OH2  568   2.562   1.047   2.780
  228TIP3    H1  569   2.570   1.009   2.692
  228TIP3    H2  570   2.595   1.136   2.771
  229TIP3   OH2  571   2.531   1.337   2.467
  229TIP3    H1  572   2.479   1.389   2.405
  229TIP3    H2  573   2.620   1.341   2.433
  230TIP3   OH2  574   2.595   1.900   1.651
  230TIP3    H1  575   2.632   1.929   1.734
  230TIP3    H2  576   2.651   1.940   1.584
  231TIP3   OH2  577   2.646   2.026   2.093
  231TIP3    H1  578   2.588   1.952   2.080
  231TIP3    H2  579   2.719   1.991   2.145
  232TIP3   OH2  580   2.742   1.684   2.569
  232TIP3    H1  581   2.662   1.698   2.619
  232TIP3    H2  582   2.785   1.770   2.567
  233TIP3   OH2  583   2.491   1.798   1.977
  233TIP3    H1  584   2.439   1.814   2.055
  233TIP3    H2  585   2.470   1.870   1.918
  234TIP3   OH2  586   2.795   1.332   2.390
  234TIP3    H1  587   2.838   1.248   2.405
  234TIP3    H2  588   2.797   1.344   2.295
  235TIP3   OH2  589   2.914   1.090   2.416
  235TIP3    H1  590   2.896   1.061   2.326
  235TIP3    H2  591   3.000   1.053   2.436
  236TIP3   OH2  592   3.212   0.613   2.640
  236TIP3    H1  593   3.229   0.519   2.643
  236TIP3    H2  594   3.271   0.645   2.572
  237TIP3   OH2  595   1.893   1.981   2.413
  237TIP3    H1  596   1.938   1.973   2.497
  237TIP3    H2  597   1.963   1.996   2.350
  238TIP3   OH2  598   2.166   2.040   2.361
  238TIP3    H1  599   2.196   1.977   2.427
  238TIP3    H2  600   2.204   2.123   2.388
  239TIP3   OH2  601   2.430   2.042   1.878
  239TIP3    H1  602   2.345   2.071   1.913
  239TIP3    H2  603   2.460   2.115   1.824
  240TIP3   OH2  604   2.591   1.956   2.366
  240TIP3    H1  605   2.522   1.925   2.307
  240TIP3    H2  606   2.587   2.051   2.360
  241TIP3   OH2  607   3.893   1.335   1.160
  241TIP3    H1  608   3.855   1.412   1.119
  241TIP3    H2  609   3.863   1.262   1.107
  242TIP3   OH2  610   3.907   1.391   1.423
  242TIP3    H1  611   3.963   1.328   1.469
  242TIP3    H2  612   3.917   1.370   1.331
  243TIP3   OH2  613   3.101   1.277   1.871
  243TIP3    H1  614   3.140   1.207   1.924
  243TIP3    H2  615   3.172   1.341   1.859
  244TIP3   OH2  616   4.049   1.636   1.146
  244TIP3    H1  617   3.985   1.617   1.214
  244TIP3    H2  618   4.134   1.614   1.185
  245TIP3   OH2  619   3.145   1.613   1.505
  245TIP3    H1  620   3.111   1.535   1.460
  245TIP3    H2  621   3.231   1.587   1.537
  246TIP3   OH2  622   3.665   2.031   1.222
  246TIP3    H1  623   3.749   1.989   1.242
  246TIP3    H2  624   3.661   2.106   1.281
  247TIP3   OH2  625   3.700   1.517   1.576
  247TIP3    H1  626   3.790   1.490   1.557
  247TIP3    H2  627   3.708   1.610   1.598
  248TIP3   OH2  628   4.714   0.916   1.551
  248TIP3    H1  629   4.759   0.980   1.607
  248TIP3    H2  630   4.644   0.966   1.510
  249TIP3   OH2  631   4.021   0.955   1.482
  249TIP3    H1  632   4.065   0.897   1.544
  249TIP3    H2  633   3.970   0.897   1.426
  250TIP3   OH2  634   4.805   1.121   1.706
  250TIP3    H1  635   4.724   1.170   1.699
  250TIP3    H2  636   4.844   1.152   1.789
  251TIP3   OH2  637   3.782   1.545   1.017
  251TIP3    H1  638   3.771   1.582   0.929
  251TIP3    H2  639   3.746   1.612   1.076
  252TIP3   OH2  640   3.559   1.503   1.808
  252TIP3    H1  641   3.597   1.579   1.852
  252TIP3    H2  642   3.604   1.499   1.723
  253TIP3   OH2  643   4.236   0.789   1.289
  253TIP3    H1  644   4.324   0.809   1.319
  253TIP3    H2  645   4.224   0.842   1.210
  254TIP3   OH2  646   3.335   1.735   1.857
  254TIP3    H1  647   3.325   1.801   1.788
  254TIP3    H2  648   3.262   1.751   1.916
  255TIP3   OH2  649   4.272   1.903   1.368
  255TIP3    H1  650   4.197   1.892   1.426
  255TIP3    H2  651   4.248   1.975   1.310
  256TIP3   OH2  652   4.522   0.838   1.745
  256TIP3    H1  653   4.437   0.807   1.713
  256TIP3    H2  654   4.582   0.823   1.672
  257TIP3   OH2  655   3.895   1.838   1.053
  257TIP3    H1  656   3.947   1.761   1.075
  257TIP3    H2  657   3.955   1.895   1.005
  258TIP3   OH2  658   4.133   1.752   0.880
  258TIP3    H1  659   4.096   1.668   0.908
  258TIP3    H2  660   4.162   1.793   0.961
  259TIP3   OH2  661   4.439   1.781   1.654
  259TIP3    H1  662   4.424   1.727   1.576
  259TIP3    H2  663   4.425   1.870   1.623
  260TIP3   OH2  664   4.621   1.469   1.494
  260TIP3    H1  665   4.538   1.516   1.488
  260TIP3    H2  666   4.655   1.471   1.405
  261TIP3   OH2  667   3.866   1.275   0.882
  261TIP3    H1  668   3.906   1.360   0.900
  261TIP3    H2  669   3.837   1.280   0.791
  262TIP3   OH2  670   4.339   1.367   1.792
  262TIP3    H1  671   4.323   1.453   1.831
  262TIP3    H2  672   4.274   1.310   1.831
  263TIP3   OH2  673   3.565   1.712   1.374
  263TIP3    H1  674   3.488   1.752   1.333
  263TIP3    H2  675   3.537   1.691   1.463
  264TIP3   OH2  676   3.326   1.168   1.625
  264TIP3    H1  677   3.350   1.092   1.572
  264TIP3    H2  678   3.383   1.239   1.594
  265TIP3   OH2  679   4.071   1.911   1.547
  265TIP3    H1  680   4.003   1.967   1.509
  265TIP3    H2  681   4.025   1.834   1.579
  266TIP3   OH2  682   3.551   1.806   2.008
  266TIP3    H1  683   3.503   1.874   2.054
  266TIP3    H2  684   3.488   1.771   1.944
  267TIP3   OH2  685   3.336   1.366   2.154
  267TIP3    H1  686   3.320   1.460   2.158
  267TIP3    H2  687   3.250   1.328   2.135
  268TIP3   OH2  688   3.484   1.848   0.803
  268TIP3    H1  689   3.577   1.824   0.807
  268TIP3    H2  690   3.446   1.811   0.883
  269TIP3   OH2  691   3.340   1.968   2.096
  269TIP3    H1  692   3.285   2.011   2.031
  269TIP3    H2  693   3.279   1.932   2.160
  270TIP3   OH2  694   4.213   1.754   0.254
  270TIP3    H1  695   4.229   1.849   0.252
  270TIP3    H2  696   4.294   1.717   0.290
  271TIP3   OH2  697   2.941   1.515   2.020
  271TIP3    H1  698   2.878   1.578   1.984
  271TIP3    H2  699   2.975   1.469   1.943
  272TIP3   OH2  700   4.650   2.188   1.712
  272TIP3    H1  701   4.655   2.092   1.714
  272TIP3    H2  702   4.566   2.208   1.753
  273TIP3   OH2  703   3.785   1.900   1.901
  273TIP3    H1  704   3.785   1.996   1.895
  273TIP3    H2  705   3.704   1.879   1.947
  274TIP3   OH2  706   3.479   2.113   0.844
  274TIP3    H1  707   3.484   2.021   0.819
  274TIP3    H2  708   3.455   2.159   0.763
  275TIP3   OH2  709   3.796   1.888   0.576
  275TIP3    H1  710   3.828   1.937   0.651
  275TIP3    H2  711   3.875   1.871   0.523
  276TIP3   OH2  712   4.498   1.296   2.034
  276TIP3    H1  713   4.463   1.317   1.948
  276TIP3    H2  714   4.545   1.214   2.022
  277TIP3   OH2  715   3.121   1.739   2.022
  277TIP3    H1  716   3.173   1.723   2.101
  277TIP3    H2  717   3.058   1.668   2.020
  278TIP3   OH2  718   4.063   0.668   2.059
  278TIP3    H1  719   4.132   0.613   2.095
  278TIP3    H2  720   3.982   0.622   2.079
  279TIP3   OH2  721   4.325   1.034   1.956
  279TIP3    H1  722   4.249   0.979   1.974
  279TIP3    H2  723   4.326   1.044   1.861
  280TIP3   OH2  724   3.453   1.108   1.869
  280TIP3    H1  725   3.376   1.095   1.925
  280TIP3    H2  726   3.417   1.129   1.783
  281TIP3   OH2  727   4.007   1.282   2.174
  281TIP3    H1  728   3.979   1.212   2.233
  281TIP3    H2  729   4.093   1.308   2.207
  282TIP3   OH2  730   3.237   1.076   2.025
  282TIP3    H1  731   3.190   1.120   2.096
  282TIP3    H2  732   3.214   0.983   2.036
  283TIP3   OH2  733   4.008   1.382   1.754
  283TIP3    H1  734   4.039   1.339   1.674
  283TIP3    H2  735   4.059   1.343   1.824
  284TIP3   OH2  736   4.343   2.510   1.792
  284TIP3    H1  737   4.338   2.521   1.697
  284TIP3    H2  738   4.424   2.554   1.817
  285TIP3   OH2  739   3.282   1.629   2.226
  285TIP3    H1  740   3.368   1.644   2.267
  285TIP3    H2  741   3.219   1.643   2.297
  286TIP3   OH2  742   3.628   1.132   1.643
  286TIP3    H1  743   3.637   1.183   1.723
  286TIP3    H2  744   3.718   1.126   1.609
  287TIP3   OH2  745   3.727   0.927   1.903
  287TIP3    H1  746   3.741   0.957   1.813
  287TIP3    H2  747   3.784   0.981   1.957
  288TIP3   OH2  748   4.392   1.612   1.443
  288TIP3    H1  749   4.430   1.671   1.378
  288TIP3    H2  750   4.306   1.591   1.409
  289TIP3   OH2  751   3.854   1.631   1.897
  289TIP3    H1  752   3.919   1.608   1.964
  289TIP3    H2  753   3.842   1.726   1.909
  290TIP3   OH2  754   3.089   1.228   2.188
  290TIP3    H1  755   3.097   1.260   2.278
  290TIP3    H2  756   2.997   1.243   2.166
  291TIP3   OH2  757   3.769   1.418   2.151
  291TIP3    H1  758   3.702   1.358   2.119
  291TIP3    H2  759   3.852   1.376   2.129
  292TIP3   OH2  760   4.056   1.900   1.847
  292TIP3    H1  761   3.960   1.893   1.851
  292TIP3    H2  762   4.076   1.973   1.905
  293TIP3   OH2  763   4.673   1.913   1.730
  293TIP3    H1  764   4.584   1.880   1.746
  293TIP3    H2  765   4.700   1.870   1.649
  294TIP3   OH2  766   4.038   1.844   0.455
  294TIP3    H1  767   4.065   1.780   0.521
  294TIP3    H2  768   4.075   1.811   0.374
  295TIP3   OH2  769   4.161   1.497   1.367
  295TIP3    H1  770   4.076   1.493   1.412
  295TIP3    H2  771   4.166   1.415   1.317
  296TIP3   OH2  772   3.539   2.037   1.793
  296TIP3    H1  773   3.516   2.099   1.724
  296TIP3    H2  774   3.614   2.077   1.837
  297TIP3   OH2  775   3.957   1.659   1.630
  297TIP3    H1  776   3.906   1.640   1.709
  297TIP3    H2  777   4.047   1.639   1.654
  298TIP3   OH2  778   4.171   2.182   1.652
  298TIP3    H1  779   4.108   2.111   1.638
  298TIP3    H2  780   4.158   2.241   1.577
  299TIP3   OH2  781   4.203   2.020   0.279
  299TIP3    H1  782   4.234   2.106   0.252
  299TIP3    H2  783   4.116   2.036   0.317
  300TIP3   OH2  784   4.104   1.335   0.685
  300TIP3    H1  785   4.066   1.399   0.745
  300TIP3    H2  786   4.188   1.373   0.660
  301TIP3   OH2  787   2.972   1.856   1.746
  301TIP3    H1  788   2.994   1.767   1.771
  301TIP3    H2  789   2.902   1.882   1.807
  302TIP3   OH2  790   4.090   0.899   1.923
  302TIP3    H1  791   4.117   0.868   1.837
  302TIP3    H2  792   4.080   0.820   1.976
  303TIP3   OH2  793   3.907   1.073   2.026
  303TIP3    H1  794   3.947   1.152   2.061
  303TIP3    H2  795   3.980   1.021   1.992
  304TIP3   OH2  796   4.591   1.036   1.926
  304TIP3    H1  797   4.504   1.033   1.965
  304TIP3    H2  798   4.588   0.972   1.855
  305TIP3   OH2  799   4.162   1.248   1.254
  305TIP3    H1  800   4.088   1.187   1.248
  305TIP3    H2  801   4.235   1.194   1.284
  306TIP3   OH2  802   4.234   2.159   1.244
  306TIP3    H1  803   4.183   2.196   1.172
  306TIP3    H2  804   4.325   2.174   1.219
  307TIP3   OH2  805   2.978   2.184   2.183
  307TIP3    H1  806   3.046   2.168   2.249
  307TIP3    H2  807   2.998   2.122   2.113
  308TIP3   OH2  808   3.425   2.181   2.252
  308TIP3    H1  809   3.518   2.202   2.263
  308TIP3    H2  810   3.424   2.105   2.195
  309TIP3   OH2  811   4.071   2.087   2.047
  309TIP3    H1  812   4.090   2.011   2.103
  309TIP3    H2  813   4.150   2.141   2.053
  310TIP3   OH2  814   3.096   1.596   2.434
  310TIP3    H1  815   3.114   1.502   2.430
  310TIP3    H2  816   3.013   1.607   2.388
  311TIP3   OH2  817   3.716   1.685   2.188
  311TIP3    H1  818   3.667   1.712   2.110
  311TIP3    H2  819   3.747   1.597   2.167
  312TIP3   OH2  820   4.201   1.690   1.758
  312TIP3    H1  821   4.281   1.727   1.720
  312TIP3    H2  822   4.149   1.767   1.784
  313TIP3   OH2  823   3.209   1.337   2.412
  313TIP3    H1  824   3.282   1.337   2.350
  313TIP3    H2  825   3.248   1.364   2.495
  314TIP3   OH2  826   3.570   1.244   2.076
  314TIP3    H1  827   3.490   1.288   2.105
  314TIP3    H2  828   3.547   1.204   1.992
  315TIP3   OH2  829   4.064   1.602   2.132
  315TIP3    H1  830   4.146   1.586   2.085
  315TIP3    H2  831   4.071   1.549   2.212
  316TIP3   OH2  832   3.643   1.008   2.198
  316TIP3    H1  833   3.632   0.935   2.137
  316TIP3    H2  834   3.630   1.086   2.144
  317TIP3   OH2  835   3.593   0.724   2.018
  317TIP3    H1  836   3.636   0.795   1.970
  317TIP3    H2  837   3.512   0.708   1.970
  318TIP3   OH2  838   3.756   1.305   1.829
  318TIP3    H1  839   3.835   1.357   1.811
  318TIP3    H2  840   3.690   1.369   1.853
  319TIP3   OH2  841   4.287   1.296   2.221
  319TIP3    H1  842   4.269   1.202   2.215
  319TIP3    H2  843   4.366   1.308   2.168
  320TIP3   OH2  844   4.302   1.583   1.983
  320TIP3    H1  845   4.252   1.626   1.914
  320TIP3    H2  846   4.393   1.592   1.956
  321TIP3   OH2  847   3.542   1.113   2.432
  321TIP3    H1  848   3.476   1.047   2.452
  321TIP3    H2  849   3.569   1.094   2.342
  322TIP3   OH2  850   3.802   0.564   2.094
  322TIP3    H1  851   3.731   0.626   2.076
  322TIP3    H2  852   3.775   0.484   2.048
  323TIP3   OH2  853   3.910   1.064   2.313
  323TIP3    H1  854   3.866   1.030   2.391
  323TIP3    H2  855   3.852   1.039   2.240
  324TIP3   OH2  856   4.178   1.047   2.210
  324TIP3    H1  857   4.106   1.017   2.265
  324TIP3    H2  858   4.253   0.992   2.235
  325TIP3   OH2  859   4.417   0.941   2.299
  325TIP3    H1  860   4.428   0.846   2.305
  325TIP3    H2  861   4.417   0.970   2.390
  326TIP3   OH2  862   3.400   0.885   2.496
  326TIP3    H1  863   3.404   0.802   2.449
  326TIP3    H2  864   3.441   0.866   2.580
  327TIP3   OH2  865   3.863   0.523   2.355
  327TIP3    H1  866   3.939   0.468   2.337
  327TIP3    H2  867   3.828   0.546   2.269
  328TIP3   OH2  868   3.946   0.762   2.481
  328TIP3    H1  869   3.922   0.689   2.425
  328TIP3    H2  870   3.871   0.821   2.478
  329TIP3   OH2  871   4.495   2.217   1.203
  329TIP3    H1  872   4.511   2.251   1.291
  329TIP3    H2  873   4.545   2.276   1.146
  330TIP3   OH2  874   4.511   2.274   1.478
  330TIP3    H1  875   4.465   2.191   1.496
  330TIP3    H2  876   4.588   2.271   1.533
  331TIP3   OH2  877   4.532   1.946   2.034
  331TIP3    H1  878   4.464   1.955   2.101
  331TIP3    H2  879   4.579   2.030   2.036
  332TIP3   OH2  880   4.336   1.485   0.655
  332TIP3    H1  881   4.398   1.510   0.586
  332TIP3    H2  882   4.391   1.465   0.730
  333TIP3   OH2  883   4.498   1.406   0.857
  333TIP3    H1  884   4.465   1.335   0.911
  333TIP3    H2  885   4.571   1.443   0.907
  334TIP3   OH2  886   4.582   1.754   1.302
  334TIP3    H1  887   4.614   1.680   1.249
  334TIP3    H2  888   4.568   1.824   1.238
  335TIP3   OH2  889   4.394   2.039   1.560
  335TIP3    H1  890   4.315   2.076   1.599
  335TIP3    H2  891   4.363   1.993   1.483
  336TIP3   OH2  892   4.382   1.185   0.965
  336TIP3    H1  893   4.290   1.168   0.945
  336TIP3    H2  894   4.393   1.158   1.056
  337TIP3   OH2  895   4.547   1.602   1.863
  337TIP3    H1  896   4.626   1.549   1.851
  337TIP3    H2  897   4.539   1.651   1.781
  338TIP3   OH2  898   4.765   1.430   1.871
  338TIP3    H1  899   4.705   1.369   1.828
  338TIP3    H2  900   4.829   1.373   1.915
  339TIP3   OH2  901   4.434   1.119   1.220
  339TIP3    H1  902   4.500   1.051   1.209
  339TIP3    H2  903   4.384   1.093   1.297
  340TIP3   OH2  904   4.592   1.301   1.712
  340TIP3    H1  905   4.500   1.309   1.738
  340TIP3    H2  906   4.597   1.344   1.627
  341TIP3   OH2  907   3.140   0.945   2.452
  341TIP3    H1  908   3.234   0.938   2.468
  341TIP3    H2  909   3.114   0.858   2.422
  342TIP3   OH2  910   4.985   0.784   2.168
  342TIP3    H1  911   5.028   0.719   2.113
  342TIP3    H2  912   4.955   0.851   2.107
  343TIP3   OH2  913   4.843   0.959   2.007
  343TIP3    H1  914   4.757   0.999   2.018
  343TIP3    H2  915   4.827   0.882   1.953
  344TIP3   OH2  916   3.998   2.061   0.927
  344TIP3    H1  917   3.977   2.080   0.835
  344TIP3    H2  918   4.089   2.089   0.937
  345TIP3   OH2  919   3.131   1.908   2.272
  345TIP3    H1  920   3.036   1.907   2.257
  345TIP3    H2  921   3.146   1.987   2.324
  346TIP3   OH2  922   3.339   1.916   1.655
  346TIP3    H1  923   3.272   1.983   1.670
  346TIP3    H2  924   3.416   1.949   1.702
  347TIP3   OH2  925   3.752   2.179   1.889
  347TIP3    H1  926   3.778   2.191   1.981
  347TIP3    H2  927   3.813   2.234   1.840
  348TIP3   OH2  928   3.938   2.351   1.774
  348TIP3    H1  929   4.006   2.301   1.729
  348TIP3    H2  930   3.985   2.414   1.828
  349TIP3   OH2  931   4.746   0.722   1.895
  349TIP3    H1  932   4.655   0.727   1.867
  349TIP3    H2  933   4.759   0.631   1.920
  350TIP3   OH2  934   3.093   2.345   1.851
  350TIP3    H1  935   3.009   2.312   1.821
  350TIP3    H2  936   3.073   2.388   1.935
  351TIP3   OH2  937   3.189   2.132   1.708
  351TIP3    H1  938   3.165   2.195   1.776
  351TIP3    H2  939   3.186   2.181   1.626
  352TIP3   OH2  940   3.695   2.263   1.413
  352TIP3    H1  941   3.668   2.320   1.340
  352TIP3    H2  942   3.693   2.320   1.489
  353TIP3   OH2  943   3.933   2.157   1.496
  353TIP3    H1  944   3.846   2.179   1.464
  353TIP3    H2  945   3.992   2.212   1.445
  354TIP3   OH2  946   4.139   2.341   1.424
  354TIP3    H1  947   4.115   2.422   1.378
  354TIP3    H2  948   4.169   2.282   1.356
  355TIP3   OH2  949   2.840   1.984   1.539
  355TIP3    H1  950   2.880   1.940   1.614
  355TIP3    H2  951   2.873   1.936   1.463
  356TIP3   OH2  952   3.001   1.822   1.401
  356TIP3    H1  953   3.051   1.753   1.445
  356TIP3    H2  954   3.066   1.890   1.384
  357TIP3   OH2  955   3.395   2.014   1.396
  357TIP3    H1  956   3.366   1.928   1.367
  357TIP3    H2  957   3.389   2.010   1.491
  358TIP3   OH2  958   4.455   0.466   1.438
  358TIP3    H1  959   4.530   0.458   1.380
  358TIP3    H2  960   4.379   0.444   1.384
  359TIP3   OH2  961   4.489   0.636   1.099
  359TIP3    H1  962   4.584   0.643   1.104
  359TIP3    H2  963   4.463   0.707   1.040
  360TIP3   OH2  964   4.268   2.152   0.545
  360TIP3    H1  965   4.245   2.079   0.602
  360TIP3    H2  966   4.196   2.156   0.482
  361TIP3   OH2  967   3.400   0.618   2.432
  361TIP3    H1  968   3.372   0.527   2.443
  361TIP3    H2  969   3.495   0.616   2.448
  362TIP3   OH2  970   3.657   0.599   2.530
  362TIP3    H1  971   3.731   0.576   2.474
  362TIP3    H2  972   3.647   0.524   2.589
  363TIP3   OH2  973   4.463   0.670   2.301
  363TIP3    H1  974   4.485   0.650   2.392
  363TIP3    H2  975   4.548   0.680   2.258
  364TIP3   OH2  976   4.394   2.240   1.811
  364TIP3    H1  977   4.319   2.204   1.765
  364TIP3    H2  978   4.377   2.334   1.815
  365TIP3   OH2  979   5.628   1.649   0.589
  365TIP3    H1  980   5.605   1.727   0.538
  365TIP3    H2  981   5.598   1.670   0.678
  366TIP3   OH2  982   5.656   1.590   0.957
  366TIP3    H1  983   5.709   1.584   1.037
  366TIP3    H2  984   5.624   1.501   0.944
  367TIP3   OH2  985   4.966   1.425   1.306
  367TIP3    H1  986   4.997   1.391   1.390
  367TIP3    H2  987   5.040   1.476   1.272
  368TIP3   OH2  988   5.946   1.827   0.589
  368TIP3    H1  989   5.918   1.808   0.678
  368TIP3    H2  990   5.909   1.913   0.569
  369TIP3   OH2  991   4.959   1.905   1.010
  369TIP3    H1  992   4.938   1.811   1.015
  369TIP3    H2  993   5.053   1.907   0.995
  370TIP3   OH2  994   4.641   1.147   0.882
  370TIP3    H1  995   4.661   1.241   0.884
  370TIP3    H2  996   4.548   1.142   0.904
  371TIP3   OH2  997   4.745   1.453   0.965
  371TIP3    H1  998   4.798   1.379   0.996
  371TIP3    H2  999   4.806   1.526   0.958
  372TIP3   OH2 1000   5.613   2.278   0.613
  372TIP3    H1 1001   5.647   2.221   0.543
  372TIP3    H2 1002   5.628   2.229   0.693
  373TIP3   OH2 1003   5.475   1.810   0.957
  373TIP3    H1 1004   5.522   1.728   0.945
  373TIP3    H2 1005   5.542   1.872   0.985
  374TIP3   OH2 1006   6.424   1.169   1.021
  374TIP3    H1 1007   6.481   1.228   1.071
  374TIP3    H2 1008   6.416   1.210   0.935
  375TIP3   OH2 1009   5.891   1.323   1.012
  375TIP3    H1 1010   5.935   1.241   1.034
  375TIP3    H2 1011   5.857   1.309   0.923
  376TIP3   OH2 1012   5.322   0.943   0.839
  376TIP3    H1 1013   5.298   1.024   0.794
  376TIP3    H2 1014   5.257   0.879   0.809
  377TIP3   OH2 1015   4.891   1.257   1.082
  377TIP3    H1 1016   4.952   1.293   1.147
  377TIP3    H2 1017   4.945   1.197   1.030
  378TIP3   OH2 1018   5.296   1.396   0.912
  378TIP3    H1 1019   5.389   1.387   0.930
  378TIP3    H2 1020   5.273   1.317   0.863
  379TIP3   OH2 1021   6.551   1.367   1.170
  379TIP3    H1 1022   6.465   1.408   1.162
  379TIP3    H2 1023   6.587   1.402   1.251
  380TIP3   OH2 1024   5.267   1.025   1.478
  380TIP3    H1 1025   5.204   1.061   1.414
  380TIP3    H2 1026   5.219   1.024   1.561
  381TIP3   OH2 1027   5.564   1.852   0.418
  381TIP3    H1 1028   5.496   1.885   0.360
  381TIP3    H2 1029   5.630   1.922   0.420
  382TIP3   OH2 1030   5.314   1.752   1.177
  382TIP3    H1 1031   5.257   1.823   1.207
  382TIP3    H2 1032   5.360   1.788   1.102
  383TIP3   OH2 1033   5.087   1.104   1.286
  383TIP3    H1 1034   5.129   1.186   1.311
  383TIP3    H2 1035   5.101   1.097   1.191
  384TIP3   OH2 1036   5.150   1.951   1.274
  384TIP3    H1 1037   5.137   2.040   1.242
  384TIP3    H2 1038   5.073   1.933   1.328
  385TIP3   OH2 1039   4.528   1.549   0.461
  385TIP3    H1 1040   4.473   1.543   0.383
  385TIP3    H2 1041   4.564   1.638   0.459
  386TIP3   OH2 1042   5.971   2.188   0.787
  386TIP3    H1 1043   5.881   2.159   0.807
  386TIP3    H2 1044   5.960   2.263   0.729
  387TIP3   OH2 1045   6.239   1.029   1.170
  387TIP3    H1 1046   6.150   1.048   1.139
  387TIP3    H2 1047   6.296   1.077   1.109
  388TIP3   OH2 1048   5.594   0.763   1.173
  388TIP3    H1 1049   5.579   0.669   1.174
  388TIP3    H2 1050   5.521   0.799   1.224
  389TIP3   OH2 1051   6.207   2.028   1.116
  389TIP3    H1 1052   6.183   1.961   1.053
  389TIP3    H2 1053   6.193   2.111   1.069
  390TIP3   OH2 1054   5.519   1.479   0.392
  390TIP3    H1 1055   5.442   1.536   0.401
  390TIP3    H2 1056   5.590   1.529   0.432
  391TIP3   OH2 1057   6.372   1.714   0.979
  391TIP3    H1 1058   6.288   1.758   0.965
  391TIP3    H2 1059   6.410   1.706   0.891
  392TIP3   OH2 1060   5.832   1.566   0.427
  392TIP3    H1 1061   5.770   1.597   0.492
  392TIP3    H2 1062   5.919   1.583   0.465
  393TIP3   OH2 1063   6.073   1.571   1.299
  393TIP3    H1 1064   6.065   1.654   1.347
  393TIP3    H2 1065   5.993   1.566   1.247
  394TIP3   OH2 1066   5.097   1.542   0.784
  394TIP3    H1 1067   5.049   1.477   0.732
  394TIP3    H2 1068   5.170   1.493   0.822
  395TIP3   OH2 1069   5.218   1.933   0.903
  395TIP3    H1 1070   5.182   1.924   0.815
  395TIP3    H2 1071   5.304   1.891   0.898
  396TIP3   OH2 1072   5.184   1.516   1.139
  396TIP3    H1 1073   5.224   1.480   1.060
  396TIP3    H2 1074   5.231   1.598   1.154
  397TIP3   OH2 1075   5.716   2.144   0.886
  397TIP3    H1 1076   5.709   2.226   0.936
  397TIP3    H2 1077   5.706   2.075   0.952
  398TIP3   OH2 1078   5.347   2.044   1.446
  398TIP3    H1 1079   5.287   2.103   1.492
  398TIP3    H2 1080   5.291   1.994   1.386
  399TIP3   OH2 1081   5.112   1.615   1.579
  399TIP3    H1 1082   5.113   1.707   1.603
  399TIP3    H2 1083   5.021   1.587   1.590
  400TIP3   OH2 1084   5.141   2.207   1.528
  400TIP3    H1 1085   5.113   2.217   1.437
  400TIP3    H2 1086   5.060   2.189   1.576
  401TIP3   OH2 1087   4.906   1.423   0.621
  401TIP3    H1 1088   4.862   1.457   0.543
  401TIP3    H2 1089   4.835   1.397   0.680
  402TIP3   OH2 1090   4.752   1.773   1.511
  402TIP3    H1 1091   4.689   1.759   1.441
  402TIP3    H2 1092   4.782   1.686   1.535
  403TIP3   OH2 1093   4.604   1.971   1.128
  403TIP3    H1 1094   4.696   1.991   1.146
  403TIP3    H2 1095   4.556   2.047   1.161
  404TIP3   OH2 1096   6.429   2.421   1.185
  404TIP3    H1 1097   6.435   2.326   1.192
  404TIP3    H2 1098   6.348   2.443   1.231
  405TIP3   OH2 1099   5.539   2.189   1.314
  405TIP3    H1 1100   5.528   2.280   1.343
  405TIP3    H2 1101   5.470   2.141   1.361
  406TIP3   OH2 1102   5.297   2.306   0.243
  406TIP3    H1 1103   5.269   2.317   0.153
  406TIP3    H2 1104   5.272   2.387   0.287
  407TIP3   OH2 1105   4.779   2.225   0.698
  407TIP3    H1 1106   4.846   2.223   0.767
  407TIP3    H2 1107   4.764   2.134   0.676
  408TIP3   OH2 1108   8.800   6.861   7.896
  408TIP3    H1 1109   8.878   6.822   7.857
  408TIP3    H2 1110   8.817   6.859   7.990
  409TIP3   OH2 1111   5.560   2.251   0.175
  409TIP3    H1 1112   5.474   2.256   0.218
  409TIP3    H2 1113   5.614   2.200   0.235
  410TIP3   OH2 1114   6.308   1.536   1.468
  410TIP3    H1 1115   6.231   1.551   1.413
  410TIP3    H2 1116   6.330   1.444   1.454
  411TIP3   OH2 1117   4.938   1.962   1.451
  411TIP3    H1 1118   4.992   1.956   1.530
  411TIP3    H2 1119   4.868   1.899   1.465
  412TIP3   OH2 1120   5.359   0.821   1.317
  412TIP3    H1 1121   5.314   0.844   1.236
  412TIP3    H2 1122   5.326   0.883   1.382
  413TIP3   OH2 1123   5.884   0.893   1.488
  413TIP3    H1 1124   5.957   0.868   1.545
  413TIP3    H2 1125   5.806   0.869   1.538
  414TIP3   OH2 1126   6.062   1.300   1.378
  414TIP3    H1 1127   6.041   1.300   1.472
  414TIP3    H2 1128   6.059   1.392   1.353
  415TIP3   OH2 1129   5.268   1.310   1.298
  415TIP3    H1 1130   5.277   1.350   1.385
  415TIP3    H2 1131   5.242   1.382   1.241
  416TIP3   OH2 1132   5.209   1.185   0.755
  416TIP3    H1 1133   5.114   1.183   0.761
  416TIP3    H2 1134   5.227   1.180   0.661
  417TIP3   OH2 1135   5.616   1.260   0.551
  417TIP3    H1 1136   5.559   1.335   0.536
  417TIP3    H2 1137   5.662   1.249   0.468
  418TIP3   OH2 1138   5.797   1.512   1.595
  418TIP3    H1 1139   5.776   1.442   1.657
  418TIP3    H2 1140   5.889   1.533   1.613
  419TIP3   OH2 1141   5.798   1.258   0.758
  419TIP3    H1 1142   5.739   1.279   0.686
  419TIP3    H2 1143   5.769   1.172   0.789
  420TIP3   OH2 1144   5.068   1.302   1.529
  420TIP3    H1 1145   5.110   1.365   1.587
  420TIP3    H2 1146   5.069   1.220   1.578
  421TIP3   OH2 1147   4.760   0.682   1.075
  421TIP3    H1 1148   4.823   0.699   1.145
  421TIP3    H2 1149   4.811   0.684   0.995
  422TIP3   OH2 1150   5.820   1.523   1.177
  422TIP3    H1 1151   5.851   1.456   1.116
  422TIP3    H2 1152   5.778   1.473   1.247
  423TIP3   OH2 1153   5.599   1.064   0.874
  423TIP3    H1 1154   5.515   1.019   0.874
  423TIP3    H2 1155   5.659   1.002   0.916
  424TIP3   OH2 1156   4.942   1.169   0.794
  424TIP3    H1 1157   4.915   1.097   0.850
  424TIP3    H2 1158   4.909   1.147   0.708
  425TIP3   OH2 1159   5.056   0.941   0.624
  425TIP3    H1 1160   5.137   0.931   0.574
  425TIP3    H2 1161   5.007   1.009   0.577
  426TIP3   OH2 1162   5.961   1.061   1.087
  426TIP3    H1 1163   5.918   1.080   1.170
  426TIP3    H2 1164   5.905   0.995   1.046
  427TIP3   OH2 1165   6.140   2.752   1.273
  427TIP3    H1 1166   6.136   2.764   1.179
  427TIP3    H2 1167   6.218   2.800   1.301
  428TIP3   OH2 1168   5.090   1.874   1.681
  428TIP3    H1 1169   5.171   1.890   1.730
  428TIP3    H2 1170   5.021   1.878   1.747
  429TIP3   OH2 1171   5.555   1.325   0.966
  429TIP3    H1 1172   5.582   1.248   0.917
  429TIP3    H2 1173   5.553   1.296   1.057
  430TIP3   OH2 1174   5.105   0.750   0.806
  430TIP3    H1 1175   5.031   0.697   0.834
  430TIP3    H2 1176   5.068   0.810   0.741
  431TIP3   OH2 1177   5.523   1.236   1.224
  431TIP3    H1 1178   5.435   1.261   1.253
  431TIP3    H2 1179   5.581   1.289   1.278
  432TIP3   OH2 1180   5.274   1.617   0.366
  432TIP3    H1 1181   5.205   1.550   0.369
  432TIP3    H2 1182   5.265   1.663   0.450
  433TIP3   OH2 1183   6.133   1.843   0.927
  433TIP3    H1 1184   6.161   1.892   0.850
  433TIP3    H2 1185   6.052   1.799   0.899
  434TIP3   OH2 1186   5.662   1.920   1.345
  434TIP3    H1 1187   5.716   1.909   1.423
  434TIP3    H2 1188   5.624   2.008   1.354
  435TIP3   OH2 1189   4.961   1.621   1.009
  435TIP3    H1 1190   5.006   1.611   0.925
  435TIP3    H2 1191   5.024   1.591   1.074
  436TIP3   OH2 1192   5.390   1.738   0.150
  436TIP3    H1 1193   5.375   1.830   0.174
  436TIP3    H2 1194   5.367   1.689   0.229
  437TIP3   OH2 1195   4.852   1.540   1.627
  437TIP3    H1 1196   4.854   1.521   1.721
  437TIP3    H2 1197   4.777   1.491   1.594
  438TIP3   OH2 1198   5.577   1.676   1.624
  438TIP3    H1 1199   5.520   1.644   1.554
  438TIP3    H2 1200   5.660   1.630   1.609
  439TIP3   OH2 1201   5.807   2.212   1.234
  439TIP3    H1 1202   5.713   2.198   1.238
  439TIP3    H2 1203   5.830   2.249   1.320
  440TIP3   OH2 1204   6.447   2.146   1.199
  440TIP3    H1 1205   6.357   2.116   1.210
  440TIP3    H2 1206   6.475   2.109   1.116
  441TIP3   OH2 1207   5.918   2.100   0.119
  441TIP3    H1 1208   5.875   2.095   0.205
  441TIP3    H2 1209   5.884   2.025   0.071
  442TIP3   OH2 1210   5.903   1.700   0.843
  442TIP3    H1 1211   5.817   1.672   0.874
  442TIP3    H2 1212   5.942   1.621   0.805
  443TIP3   OH2 1213   5.066   1.944   0.670
  443TIP3    H1 1214   5.065   2.024   0.618
  443TIP3    H2 1215   4.973   1.924   0.684
  444TIP3   OH2 1216   4.643   1.156   0.442
  444TIP3    H1 1217   4.638   1.236   0.494
  444TIP3    H2 1218   4.609   1.181   0.356
  445TIP3   OH2 1219   5.219   1.722   0.608
  445TIP3    H1 1220   5.171   1.805   0.617
  445TIP3    H2 1221   5.183   1.667   0.677
  446TIP3   OH2 1222   5.362   2.265   1.107
  446TIP3    H1 1223   5.397   2.340   1.059
  446TIP3    H2 1224   5.435   2.233   1.159
  447TIP3   OH2 1225   5.011   2.167   0.518
  447TIP3    H1 1226   4.917   2.166   0.501
  447TIP3    H2 1227   5.033   2.260   0.523
  448TIP3   OH2 1228   5.704   1.925   1.070
  448TIP3    H1 1229   5.689   1.922   1.164
  448TIP3    H2 1230   5.789   1.883   1.058
  449TIP3   OH2 1231   5.794   1.894  -0.016
  449TIP3    H1 1232   5.817   1.833   0.053
  449TIP3    H2 1233   5.698   1.892  -0.019
  450TIP3   OH2 1234   5.957   2.429   1.116
  450TIP3    H1 1235   5.886   2.367   1.127
  450TIP3    H2 1236   5.929   2.485   1.043
  451TIP3   OH2 1237   9.245   6.903   7.773
  451TIP3    H1 1238   9.311   6.972   7.763
  451TIP3    H2 1239   9.170   6.947   7.811
  452TIP3   OH2 1240   5.076   1.059   1.674
  452TIP3    H1 1241   4.981   1.062   1.675
  452TIP3    H2 1242   5.098   0.991   1.738
  453TIP3   OH2 1243   5.834   1.753   0.215
  453TIP3    H1 1244   5.830   1.675   0.270
  453TIP3    H2 1245   5.837   1.826   0.277
  454TIP3   OH2 1246   4.798   2.150   1.280
  454TIP3    H1 1247   4.848   2.088   1.333
  454TIP3    H2 1248   4.814   2.235   1.322
  455TIP3   OH2 1249   8.424   6.435   7.935
  455TIP3    H1 1250   8.489   6.371   7.906
  455TIP3    H2 1251   8.416   6.420   8.029
  456TIP3   OH2 1252   5.087   1.796   0.212
  456TIP3    H1 1253   5.159   1.761   0.265
  456TIP3    H2 1254   5.086   1.890   0.231
  457TIP3   OH2 1255   4.786   1.476   0.383
  457TIP3    H1 1256   4.692   1.487   0.400
  457TIP3    H2 1257   4.802   1.530   0.305
  458TIP3   OH2 1258   5.861   1.121   1.337
  458TIP3    H1 1259   5.943   1.167   1.353
  458TIP3    H2 1260   5.867   1.043   1.392
  459TIP3   OH2 1261   5.343   1.993   0.219
  459TIP3    H1 1262   5.272   2.040   0.263
  459TIP3    H2 1263   5.351   2.036   0.134
  460TIP3   OH2 1264   5.637   0.983   0.588
  460TIP3    H1 1265   5.623   1.078   0.588
  460TIP3    H2 1266   5.602   0.954   0.672
  461TIP3   OH2 1267   5.717   1.359   1.373
  461TIP3    H1 1268   5.744   1.401   1.455
  461TIP3    H2 1269   5.764   1.276   1.372
  462TIP3   OH2 1270   5.077   2.063   0.276
  462TIP3    H1 1271   5.056   2.137   0.219
  462TIP3    H2 1272   5.060   2.095   0.365
  463TIP3   OH2 1273   6.336   1.280   1.376
  463TIP3    H1 1274   6.242   1.264   1.366
  463TIP3    H2 1275   6.377   1.204   1.335
  464TIP3   OH2 1276   6.003   1.455   0.743
  464TIP3    H1 1277   5.933   1.389   0.737
  464TIP3    H2 1278   6.064   1.420   0.807
  465TIP3   OH2 1279   4.718   1.662   0.172
  465TIP3    H1 1280   4.745   1.754   0.176
  465TIP3    H2 1281   4.785   1.619   0.120
  466TIP3   OH2 1282   5.974   2.451   0.680
  466TIP3    H1 1283   5.936   2.505   0.610
  466TIP3    H2 1284   6.068   2.454   0.663
  467TIP3   OH2 1285   5.030   0.632   1.179
  467TIP3    H1 1286   5.005   0.598   1.093
  467TIP3    H2 1287   5.107   0.581   1.203
  468TIP3   OH2 1288   4.768   1.953   0.654
  468TIP3    H1 1289   4.758   1.879   0.714
  468TIP3    H2 1290   4.728   1.923   0.572
  469TIP3   OH2 1291   4.771   2.451   1.686
  469TIP3    H1 1292   4.857   2.451   1.730
  469TIP3    H2 1293   4.741   2.361   1.694
  470TIP3   OH2 1294   5.244   2.366   1.726
  470TIP3    H1 1295   5.335   2.337   1.736
  470TIP3    H2 1296   5.210   2.315   1.653
  471TIP3   OH2 1297   8.589   6.652   7.942
  471TIP3    H1 1298   8.521   6.586   7.925
  471TIP3    H2 1299   8.671   6.607   7.925
  472TIP3   OH2 1300   5.859   2.308   1.487
  472TIP3    H1 1301   5.876   2.237   1.549
  472TIP3    H2 1302   5.933   2.368   1.499
  473TIP3   OH2 1303   9.027   6.719   7.798
  473TIP3    H1 1304   9.048   6.648   7.859
  473TIP3    H2 1305   9.109   6.766   7.785
  474TIP3   OH2 1306   4.896   1.865   1.881
  474TIP3    H1 1307   4.913   1.771   1.885
  474TIP3    H2 1308   4.811   1.873   1.838
  475TIP3   OH2 1309   4.901   1.471   0.099
  475TIP3    H1 1310   4.959   1.400   0.127
  475TIP3    H2 1311   4.960   1.536   0.061
  476TIP3   OH2 1312   5.503   1.947   1.651
  476TIP3    H1 1313   5.457   1.965   1.569
  476TIP3    H2 1314   5.542   1.860   1.637
  477TIP3   OH2 1315   8.615   6.257   7.851
  477TIP3    H1 1316   8.677   6.329   7.847
  477TIP3    H2 1317   8.669   6.178   7.858
  478TIP3   OH2 1318   5.973   1.986   1.263
  478TIP3    H1 1319   6.052   2.011   1.215
  478TIP3    H2 1320   5.912   2.059   1.248
  479TIP3   OH2 1321   5.020   1.615   1.878
  479TIP3    H1 1322   5.102   1.592   1.834
  479TIP3    H2 1323   5.045   1.630   1.969
  480TIP3   OH2 1324   5.076   1.431   0.394
  480TIP3    H1 1325   5.038   1.464   0.475
  480TIP3    H2 1326   5.001   1.401   0.342
  481TIP3   OH2 1327   5.330   1.464   1.514
  481TIP3    H1 1328   5.261   1.523   1.542
  481TIP3    H2 1329   5.385   1.517   1.457
  482TIP3   OH2 1330   5.857   1.860   1.613
  482TIP3    H1 1331   5.931   1.828   1.561
  482TIP3    H2 1332   5.856   1.805   1.691
  483TIP3   OH2 1333   5.472   1.268   1.652
  483TIP3    H1 1334   5.494   1.197   1.592
  483TIP3    H2 1335   5.426   1.332   1.597
  484TIP3   OH2 1336   5.531   1.069   1.457
  484TIP3    H1 1337   5.551   1.100   1.368
  484TIP3    H2 1338   5.437   1.055   1.457
  485TIP3   OH2 1339   5.482   1.616   1.350
  485TIP3    H1 1340   5.571   1.631   1.319
  485TIP3    H2 1341   5.427   1.668   1.292
  486TIP3   OH2 1342   6.064   1.541   1.682
  486TIP3    H1 1343   6.062   1.445   1.679
  486TIP3    H2 1344   6.154   1.564   1.660
  487TIP3   OH2 1345   6.087   1.815   1.440
  487TIP3    H1 1346   6.035   1.875   1.387
  487TIP3    H2 1347   6.177   1.826   1.409
  488TIP3   OH2 1348   5.350   1.359   1.887
  488TIP3    H1 1349   5.285   1.293   1.912
  488TIP3    H2 1350   5.382   1.330   1.801
  489TIP3   OH2 1351   5.620   0.825   1.556
  489TIP3    H1 1352   5.587   0.907   1.519
  489TIP3    H2 1353   5.550   0.762   1.541
  490TIP3   OH2 1354   5.731   1.299   1.753
  490TIP3    H1 1355   5.730   1.286   1.847
  490TIP3    H2 1356   5.641   1.281   1.725
  491TIP3   OH2 1357   5.993   1.277   1.641
  491TIP3    H1 1358   5.910   1.259   1.686
  491TIP3    H2 1359   6.059   1.231   1.693
  492TIP3   OH2 1360   6.212   1.204   1.794
  492TIP3    H1 1361   6.231   1.113   1.814
  492TIP3    H2 1362   6.201   1.246   1.879
  493TIP3   OH2 1363   5.194   1.150   1.971
  493TIP3    H1 1364   5.186   1.062   1.934
  493TIP3    H2 1365   5.230   1.136   2.059
  494TIP3   OH2 1366   5.652   0.798   1.825
  494TIP3    H1 1367   5.728   0.740   1.821
  494TIP3    H2 1368   5.629   0.813   1.733
  495TIP3   OH2 1369   5.746   1.017   1.964
  495TIP3    H1 1370   5.714   0.944   1.911
  495TIP3    H2 1371   5.674   1.080   1.964
  496TIP3   OH2 1372   5.009   2.250   0.083
  496TIP3    H1 1373   5.086   2.284   0.037
  496TIP3    H2 1374   4.938   2.306   0.053
  497TIP3   OH2 1375   4.453   1.613   0.203
  497TIP3    H1 1376   4.537   1.653   0.180
  497TIP3    H2 1377   4.393   1.643   0.134
  498TIP3   OH2 1378   4.397   2.329   0.777
  498TIP3    H1 1379   4.306   2.298   0.771
  498TIP3    H2 1380   4.444   2.256   0.817
  499TIP3   OH2 1381   4.542   2.117   0.863
  499TIP3    H1 1382   4.468   2.084   0.914
  499TIP3    H2 1383   4.608   2.142   0.928
  500TIP3   OH2 1384   6.249   2.473   0.680
  500TIP3    H1 1385   6.271   2.496   0.770
  500TIP3    H2 1386   6.310   2.525   0.627
  501TIP3   OH2 1387   6.282   2.498   0.957
  501TIP3    H1 1388   6.234   2.415   0.958
  501TIP3    H2 1389   6.351   2.485   1.022
  502TIP3   OH2 1390   6.328   2.204   1.526
  502TIP3    H1 1391   6.258   2.211   1.592
  502TIP3    H2 1392   6.372   2.289   1.530
  503TIP3   OH2 1393   6.330   1.976   0.765
  503TIP3    H1 1394   6.353   1.912   0.697
  503TIP3    H2 1395   6.327   2.060   0.720
  504TIP3   OH2 1396   6.139   2.263   0.986
  504TIP3    H1 1397   6.073   2.311   1.036
  504TIP3    H2 1398   6.091   2.230   0.910
  505TIP3   OH2 1399   6.232   1.468   0.580
  505TIP3    H1 1400   6.201   1.436   0.496
  505TIP3    H2 1401   6.153   1.478   0.633
  506TIP3   OH2 1402   4.715   1.518   1.233
  506TIP3    H1 1403   4.715   1.508   1.138
  506TIP3    H2 1404   4.805   1.498   1.259
  507TIP3   OH2 1405   6.336   1.854   1.328
  507TIP3    H1 1406   6.407   1.793   1.311
  507TIP3    H2 1407   6.322   1.898   1.244
  508TIP3   OH2 1408   6.525   1.653   1.339
  508TIP3    H1 1409   6.450   1.613   1.384
  508TIP3    H2 1410   6.599   1.597   1.362
  509TIP3   OH2 1411   6.204   1.361   0.903
  509TIP3    H1 1412   6.284   1.380   0.855
  509TIP3    H2 1413   6.224   1.382   0.994
  510TIP3   OH2 1414   6.301   1.493   1.132
  510TIP3    H1 1415   6.224   1.521   1.181
  510TIP3    H2 1416   6.326   1.571   1.081
  511TIP3   OH2 1417   4.931   1.214   1.941
  511TIP3    H1 1418   5.026   1.203   1.941
  511TIP3    H2 1419   4.898   1.134   1.982
  512TIP3   OH2 1420   6.801   1.115   1.661
  512TIP3    H1 1421   6.854   1.052   1.613
  512TIP3    H2 1422   6.732   1.141   1.600
  513TIP3   OH2 1423   4.857   0.958   1.229
  513TIP3    H1 1424   4.866   0.884   1.289
  513TIP3    H2 1425   4.915   1.025   1.265
  514TIP3   OH2 1426   4.732   1.229   1.315
  514TIP3    H1 1427   4.760   1.215   1.224
  514TIP3    H2 1428   4.804   1.280   1.354
  515TIP3   OH2 1429   6.606   1.205   1.486
  515TIP3    H1 1430   6.537   1.240   1.542
  515TIP3    H2 1431   6.563   1.139   1.432
  516TIP3   OH2 1432   5.796   2.410   0.333
  516TIP3    H1 1433   5.848   2.405   0.254
  516TIP3    H2 1434   5.787   2.319   0.362
  517TIP3   OH2 1435   4.927   0.797   1.697
  517TIP3    H1 1436   4.877   0.766   1.773
  517TIP3    H2 1437   4.860   0.821   1.633
  518TIP3   OH2 1438   4.927   2.170   1.700
  518TIP3    H1 1439   4.832   2.166   1.696
  518TIP3    H2 1440   4.947   2.158   1.793
  519TIP3   OH2 1441   5.127   2.227   1.246
  519TIP3    H1 1442   5.075   2.301   1.214
  519TIP3    H2 1443   5.212   2.237   1.204
  520TIP3   OH2 1444   5.516   2.457   1.387
  520TIP3    H1 1445   5.553   2.450   1.475
  520TIP3    H2 1446   5.578   2.511   1.338
  521TIP3   OH2 1447   5.707   2.611   1.260
  521TIP3    H1 1448   5.767   2.559   1.206
  521TIP3    H2 1449   5.763   2.666   1.314
  522TIP3   OH2 1450   6.459   1.009   1.350
  522TIP3    H1 1451   6.383   1.006   1.292
  522TIP3    H2 1452   6.496   0.921   1.345
  523TIP3   OH2 1453   4.784   2.466   1.299
  523TIP3    H1 1454   4.692   2.483   1.276
  523TIP3    H2 1455   4.804   2.533   1.365
  524TIP3   OH2 1456   5.014   2.458   1.149
  524TIP3    H1 1457   4.930   2.461   1.194
  524TIP3    H2 1458   4.994   2.482   1.059
  525TIP3   OH2 1459   5.433   2.475   0.941
  525TIP3    H1 1460   5.363   2.484   0.877
  525TIP3    H2 1461   5.441   2.562   0.980
  526TIP3   OH2 1462   5.697   2.408   0.982
  526TIP3    H1 1463   5.605   2.425   0.964
  526TIP3    H2 1464   5.744   2.475   0.932
  527TIP3   OH2 1465   5.903   2.600   0.897
  527TIP3    H1 1466   5.886   2.686   0.858
  527TIP3    H2 1467   5.926   2.545   0.823
  528TIP3   OH2 1468   4.720   2.257   1.036
  528TIP3    H1 1469   4.740   2.228   1.125
  528TIP3    H2 1470   4.796   2.229   0.985
  529TIP3   OH2 1471   4.935   2.160   0.911
  529TIP3    H1 1472   4.937   2.069   0.944
  529TIP3    H2 1473   5.028   2.184   0.904
  530TIP3   OH2 1474   5.201   2.217   0.889
  530TIP3    H1 1475   5.216   2.124   0.874
  530TIP3    H2 1476   5.253   2.238   0.967
  531TIP3   OH2 1477   5.769   0.877   0.995
  531TIP3    H1 1478   5.707   0.846   1.061
  531TIP3    H2 1479   5.800   0.798   0.952
  532TIP3   OH2 1480   4.966   0.532   0.930
  532TIP3    H1 1481   4.892   0.478   0.904
  532TIP3    H2 1482   5.039   0.471   0.937
  533TIP3   OH2 1483   4.468   2.003   0.351
  533TIP3    H1 1484   4.381   2.042   0.336
  533TIP3    H2 1485   4.506   2.056   0.421
  534TIP3   OH2 1486   8.523   6.917   7.963
  534TIP3    H1 1487   8.602   6.961   7.932
  534TIP3    H2 1488   8.544   6.823   7.957
  535TIP3   OH2 1489   5.946   2.367   0.098
  535TIP3    H1 1490   5.943   2.272   0.103
  535TIP3    H2 1491   5.891   2.388   0.022
  536TIP3   OH2 1492   5.175   0.889   1.892
  536TIP3    H1 1493   5.136   0.804   1.911
  536TIP3    H2 1494   5.266   0.880   1.917
  537TIP3   OH2 1495   5.432   0.871   1.989
  537TIP3    H1 1496   5.506   0.843   1.936
  537TIP3    H2 1497   5.432   0.810   2.063
  538TIP3   OH2 1498   7.935   6.719   7.945
  538TIP3    H1 1499   7.869   6.742   8.011
  538TIP3    H2 1500   8.006   6.681   7.996
  539TIP3   OH2 1501   6.177   2.479   1.282
  539TIP3    H1 1502   6.102   2.449   1.230
  539TIP3    H2 1503   6.164   2.573   1.290
  540TIP3   OH2 1504   6.767   1.766   0.804
  540TIP3    H1 1505   6.791   1.679   0.835
  540TIP3    H2 1506   6.800   1.825   0.872
  541TIP3   OH2 1507   6.737   2.178   0.495
  541TIP3    H1 1508   6.722   2.089   0.527
  541TIP3    H2 1509   6.829   2.177   0.467
  542TIP3   OH2 1510   7.316   2.479   0.104
  542TIP3    H1 1511   7.391   2.489   0.044
  542TIP3    H2 1512   7.324   2.553   0.164
  543TIP3   OH2 1513   7.110   2.030   0.693
  543TIP3    H1 1514   7.035   2.083   0.721
  543TIP3    H2 1515   7.121   2.052   0.600
  544TIP3   OH2 1516   6.918   2.208   0.767
  544TIP3    H1 1517   6.912   2.297   0.734
  544TIP3    H2 1518   6.836   2.194   0.815
  545TIP3   OH2 1519   7.963   2.212   0.588
  545TIP3    H1 1520   7.935   2.200   0.497
  545TIP3    H2 1521   7.935   2.301   0.610
  546TIP3   OH2 1522   6.976   2.213   0.343
  546TIP3    H1 1523   6.913   2.205   0.272
  546TIP3    H2 1524   7.060   2.192   0.303
  547TIP3   OH2 1525   7.360   2.409   0.454
  547TIP3    H1 1526   7.417   2.446   0.387
  547TIP3    H2 1527   7.401   2.326   0.477
  548TIP3   OH2 1528   7.107   2.282   0.953
  548TIP3    H1 1529   7.049   2.348   0.991
  548TIP3    H2 1530   7.053   2.236   0.889
  549TIP3   OH2 1531   6.856   1.891   1.038
  549TIP3    H1 1532   6.866   1.978   1.077
  549TIP3    H2 1533   6.774   1.857   1.073
  550TIP3   OH2 1534   6.918   2.467   1.015
  550TIP3    H1 1535   6.893   2.477   0.923
  550TIP3    H2 1536   6.835   2.451   1.060
  551TIP3   OH2 1537   6.520   2.019   0.968
  551TIP3    H1 1538   6.453   1.998   0.902
  551TIP3    H2 1539   6.547   1.935   1.003
  552TIP3   OH2 1540   6.363   2.220   0.633
  552TIP3    H1 1541   6.452   2.249   0.650
  552TIP3    H2 1542   6.308   2.295   0.658
  553TIP3   OH2 1543   8.330   2.717   0.579
  553TIP3    H1 1544   8.347   2.650   0.513
  553TIP3    H2 1545   8.236   2.733   0.573
  554TIP3   OH2 1546   7.312   2.429   0.844
  554TIP3    H1 1547   7.295   2.523   0.840
  554TIP3    H2 1548   7.230   2.390   0.874
  555TIP3   OH2 1549   6.542   2.452   0.141
  555TIP3    H1 1550   6.594   2.440   0.221
  555TIP3    H2 1551   6.500   2.367   0.127
  556TIP3   OH2 1552   6.703   2.221   0.938
  556TIP3    H1 1553   6.755   2.212   1.018
  556TIP3    H2 1554   6.637   2.152   0.944
  557TIP3   OH2 1555   7.566   1.844   1.123
  557TIP3    H1 1556   7.532   1.765   1.165
  557TIP3    H2 1557   7.610   1.812   1.044
  558TIP3   OH2 1558   6.852   1.541   0.934
  558TIP3    H1 1559   6.934   1.580   0.965
  558TIP3    H2 1560   6.840   1.464   0.989
  559TIP3   OH2 1561   7.868   3.116   0.808
  559TIP3    H1 1562   7.850   3.137   0.717
  559TIP3    H2 1563   7.955   3.077   0.808
  560TIP3   OH2 1564   6.865   2.137   1.168
  560TIP3    H1 1565   6.947   2.150   1.216
  560TIP3    H2 1566   6.797   2.138   1.235
  561TIP3   OH2 1567   7.410   2.097   0.824
  561TIP3    H1 1568   7.460   2.123   0.902
  561TIP3    H2 1569   7.327   2.143   0.833
  562TIP3   OH2 1570   6.738   1.906   0.568
  562TIP3    H1 1571   6.787   1.850   0.507
  562TIP3    H2 1572   6.752   1.867   0.654
  563TIP3   OH2 1573   6.605   1.794   1.110
  563TIP3    H1 1574   6.609   1.759   1.199
  563TIP3    H2 1575   6.535   1.743   1.068
  564TIP3   OH2 1576   7.307   1.938   1.116
  564TIP3    H1 1577   7.261   1.910   1.037
  564TIP3    H2 1578   7.393   1.897   1.111
  565TIP3   OH2 1579   7.528   2.512   0.648
  565TIP3    H1 1580   7.455   2.472   0.601
  565TIP3    H2 1581   7.544   2.454   0.722
  566TIP3   OH2 1582   8.392   2.317   0.667
  566TIP3    H1 1583   8.310   2.349   0.630
  566TIP3    H2 1584   8.432   2.266   0.596
  567TIP3   OH2 1585   6.802   2.211   0.135
  567TIP3    H1 1586   6.806   2.283   0.072
  567TIP3    H2 1587   6.713   2.177   0.126
  568TIP3   OH2 1588   7.142   2.523   0.575
  568TIP3    H1 1589   7.166   2.612   0.546
  568TIP3    H2 1590   7.214   2.468   0.544
  569TIP3   OH2 1591   0.231   7.057   7.981
  569TIP3    H1 1592   0.146   7.068   8.024
  569TIP3    H2 1593   0.265   7.147   7.971
  570TIP3   OH2 1594   7.493   2.199   0.574
  570TIP3    H1 1595   7.469   2.159   0.657
  570TIP3    H2 1596   7.523   2.126   0.520
  571TIP3   OH2 1597   7.741   2.635   0.544
  571TIP3    H1 1598   7.674   2.582   0.586
  571TIP3    H2 1599   7.694   2.686   0.478
  572TIP3   OH2 1600   6.824   1.329   1.112
  572TIP3    H1 1601   6.729   1.333   1.124
  572TIP3    H2 1602   6.854   1.264   1.176
  573TIP3   OH2 1603   6.568   2.413   0.760
  573TIP3    H1 1604   6.616   2.351   0.814
  573TIP3    H2 1605   6.585   2.498   0.801
  574TIP3   OH2 1606   7.755   2.687   0.168
  574TIP3    H1 1607   7.716   2.741   0.098
  574TIP3    H2 1608   7.811   2.625   0.122
  575TIP3   OH2 1609   6.424   2.210   0.107
  575TIP3    H1 1610   6.365   2.197   0.181
  575TIP3    H2 1611   6.366   2.217   0.031
  576TIP3   OH2 1612   6.562   2.715   1.169
  576TIP3    H1 1613   6.642   2.720   1.222
  576TIP3    H2 1614   6.543   2.622   1.162
  577TIP3   OH2 1615   7.008   2.643   1.205
  577TIP3    H1 1616   7.096   2.609   1.222
  577TIP3    H2 1617   6.975   2.590   1.132
  578TIP3   OH2 1618   7.667   2.524   1.035
  578TIP3    H1 1619   7.665   2.470   1.113
  578TIP3    H2 1620   7.759   2.552   1.028
  579TIP3   OH2 1621   6.670   2.119   1.363
  579TIP3    H1 1622   6.690   2.026   1.369
  579TIP3    H2 1623   6.584   2.122   1.320
  580TIP3   OH2 1624   7.283   2.216   1.147
  580TIP3    H1 1625   7.225   2.236   1.074
  580TIP3    H2 1626   7.306   2.124   1.135
  581TIP3   OH2 1627   7.733   2.148   0.770
  581TIP3    H1 1628   7.790   2.201   0.715
  581TIP3    H2 1629   7.661   2.206   0.793
  582TIP3   OH2 1630   6.795   1.869   1.366
  582TIP3    H1 1631   6.868   1.820   1.326
  582TIP3    H2 1632   6.824   1.887   1.455
  583TIP3   OH2 1633   7.064   1.711   1.001
  583TIP3    H1 1634   6.996   1.777   1.016
  583TIP3    H2 1635   7.125   1.753   0.940
  584TIP3   OH2 1636   7.564   2.110   1.074
  584TIP3    H1 1637   7.654   2.112   1.043
  584TIP3    H2 1638   7.548   2.019   1.098
  585TIP3   OH2 1639   7.225   1.554   1.152
  585TIP3    H1 1640   7.289   1.524   1.087
  585TIP3    H2 1641   7.160   1.603   1.101
  586TIP3   OH2 1642   7.246   1.861   0.856
  586TIP3    H1 1643   7.334   1.892   0.833
  586TIP3    H2 1644   7.187   1.909   0.797
  587TIP3   OH2 1645   7.896   1.693   1.126
  587TIP3    H1 1646   7.960   1.625   1.147
  587TIP3    H2 1647   7.894   1.749   1.203
  588TIP3   OH2 1648   7.822   2.046   1.000
  588TIP3    H1 1649   7.787   2.068   0.914
  588TIP3    H2 1650   7.886   1.977   0.982
  589TIP3   OH2 1651   7.123   1.592   1.405
  589TIP3    H1 1652   7.050   1.534   1.425
  589TIP3    H2 1653   7.139   1.579   1.311
  590TIP3   OH2 1654   7.451   1.655   1.279
  590TIP3    H1 1655   7.438   1.652   1.374
  590TIP3    H2 1656   7.369   1.621   1.243
  591TIP3   OH2 1657   6.956   1.382   1.462
  591TIP3    H1 1658   6.958   1.294   1.424
  591TIP3    H2 1659   6.991   1.370   1.551
  592TIP3   OH2 1660   7.511   1.181   1.475
  592TIP3    H1 1661   7.556   1.255   1.434
  592TIP3    H2 1662   7.424   1.215   1.496
  593TIP3   OH2 1663   6.161   2.497   0.196
  593TIP3    H1 1664   6.090   2.447   0.156
  593TIP3    H2 1665   6.204   2.436   0.255
  594TIP3   OH2 1666   6.305   2.341   0.371
  594TIP3    H1 1667   6.292   2.270   0.433
  594TIP3    H2 1668   6.362   2.403   0.417
  595TIP3   OH2 1669   8.068   2.744   0.156
  595TIP3    H1 1670   7.987   2.795   0.168
  595TIP3    H2 1671   8.128   2.804   0.113
  596TIP3   OH2 1672   8.071   2.757   0.455
  596TIP3    H1 1673   8.037   2.670   0.437
  596TIP3    H2 1674   8.135   2.773   0.385
  597TIP3   OH2 1675   7.935   2.578   1.017
  597TIP3    H1 1676   7.930   2.482   1.009
  597TIP3    H2 1677   8.028   2.597   1.025
  598TIP3   OH2 1678   7.947   2.506   0.431
  598TIP3    H1 1679   7.866   2.537   0.472
  598TIP3    H2 1680   7.917   2.463   0.351
  599TIP3   OH2 1681   6.507   1.709   0.735
  599TIP3    H1 1682   6.508   1.719   0.640
  599TIP3    H2 1683   6.596   1.733   0.762
  600TIP3   OH2 1684   6.698   1.451   1.404
  600TIP3    H1 1685   6.793   1.443   1.414
  600TIP3    H2 1686   6.663   1.370   1.440
  601TIP3   OH2 1687   6.429   1.433   0.767
  601TIP3    H1 1688   6.372   1.442   0.691
  601TIP3    H2 1689   6.477   1.517   0.771
  602TIP3   OH2 1690   6.703   2.435   1.188
  602TIP3    H1 1691   6.609   2.420   1.180
  602TIP3    H2 1692   6.722   2.426   1.281
  603TIP3   OH2 1693   6.919   2.482   0.732
  603TIP3    H1 1694   6.867   2.555   0.697
  603TIP3    H2 1695   7.005   2.492   0.690
  604TIP3   OH2 1696   7.295   2.707   0.892
  604TIP3    H1 1697   7.344   2.692   0.973
  604TIP3    H2 1698   7.337   2.784   0.853
  605TIP3   OH2 1699   7.426   2.943   0.817
  605TIP3    H1 1700   7.469   2.892   0.748
  605TIP3    H2 1701   7.496   2.996   0.855
  606TIP3   OH2 1702   6.571   2.724   0.785
  606TIP3    H1 1703   6.479   2.742   0.764
  606TIP3    H2 1704   6.594   2.791   0.849
  607TIP3   OH2 1705   6.794   2.704   0.628
  607TIP3    H1 1706   6.712   2.710   0.677
  607TIP3    H2 1707   6.771   2.730   0.539
  608TIP3   OH2 1708   7.196   2.757   0.437
  608TIP3    H1 1709   7.116   2.783   0.391
  608TIP3    H2 1710   7.217   2.833   0.492
  609TIP3   OH2 1711   7.377   2.715   0.238
  609TIP3    H1 1712   7.317   2.729   0.311
  609TIP3    H2 1713   7.461   2.695   0.279
  610TIP3   OH2 1714   7.620   2.808   0.375
  610TIP3    H1 1715   7.592   2.898   0.360
  610TIP3    H2 1716   7.680   2.790   0.303
  611TIP3   OH2 1717   6.482   2.514   0.517
  611TIP3    H1 1718   6.509   2.486   0.604
  611TIP3    H2 1719   6.553   2.485   0.459
  612TIP3   OH2 1720   6.686   2.417   0.372
  612TIP3    H1 1721   6.695   2.330   0.412
  612TIP3    H2 1722   6.775   2.452   0.371
  613TIP3   OH2 1723   6.954   2.490   0.376
  613TIP3    H1 1724   6.968   2.398   0.354
  613TIP3    H2 1725   7.011   2.507   0.451
  614TIP3   OH2 1726   9.505   6.883   7.911
  614TIP3    H1 1727   9.426   6.833   7.892
  614TIP3    H2 1728   9.485   6.973   7.884
  615TIP3   OH2 1729   6.987   1.124   1.373
  615TIP3    H1 1730   6.949   1.045   1.410
  615TIP3    H2 1731   7.079   1.123   1.402
  616TIP3   OH2 1732   7.235   1.110   1.509
  616TIP3    H1 1733   7.312   1.065   1.475
  616TIP3    H2 1734   7.207   1.057   1.584
  617TIP3   OH2 1735   7.931   2.674   0.734
  617TIP3    H1 1736   7.860   2.684   0.671
  617TIP3    H2 1737   7.975   2.759   0.735
  618TIP3   OH2 1738   8.404   2.992   0.691
  618TIP3    H1 1739   8.495   2.972   0.714
  618TIP3    H2 1740   8.353   2.924   0.734
  619TIP3   OH2 1741   8.618   2.251   0.828
  619TIP3    H1 1742   8.632   2.157   0.835
  619TIP3    H2 1743   8.533   2.260   0.784
  620TIP3   OH2 1744   8.577   2.652   0.667
  620TIP3    H1 1745   8.495   2.692   0.638
  620TIP3    H2 1746   8.554   2.607   0.749
  621TIP3   OH2 1747   8.332   3.126   0.173
  621TIP3    H1 1748   8.282   3.103   0.252
  621TIP3    H2 1749   8.417   3.085   0.186
  622TIP3   OH2 1750   0.704   3.482   2.373
  622TIP3    H1 1751   0.687   3.406   2.318
  622TIP3    H2 1752   0.624   3.494   2.424
  623TIP3   OH2 1753   0.394   3.784   2.451
  623TIP3    H1 1754   0.385   3.805   2.358
  623TIP3    H2 1755   0.473   3.831   2.478
  624TIP3   OH2 1756   0.577   3.288   2.702
  624TIP3    H1 1757   0.517   3.254   2.769
  624TIP3    H2 1758   0.645   3.220   2.695
  625TIP3   OH2 1759   0.448   3.518   2.487
  625TIP3    H1 1760   0.369   3.477   2.454
  625TIP3    H2 1761   0.432   3.612   2.479
  626TIP3   OH2 1762   1.805   3.064   1.285
  626TIP3    H1 1763   1.833   3.025   1.368
  626TIP3    H2 1764   1.867   3.135   1.270
  627TIP3   OH2 1765   1.583   3.708   1.303
  627TIP3    H1 1766   1.584   3.615   1.322
  627TIP3    H2 1767   1.544   3.749   1.380
  628TIP3   OH2 1768   1.510   3.068   1.656
  628TIP3    H1 1769   1.525   2.977   1.629
  628TIP3    H2 1770   1.586   3.090   1.710
  629TIP3   OH2 1771   2.506   2.521   1.666
  629TIP3    H1 1772   2.543   2.575   1.737
  629TIP3    H2 1773   2.526   2.570   1.586
  630TIP3   OH2 1774   2.580   2.616   1.913
  630TIP3    H1 1775   2.496   2.663   1.906
  630TIP3    H2 1776   2.638   2.677   1.958
  631TIP3   OH2 1777   1.384   3.078   1.904
  631TIP3    H1 1778   1.341   3.163   1.900
  631TIP3    H2 1779   1.416   3.063   1.815
  632TIP3   OH2 1780   1.148   3.247   2.012
  632TIP3    H1 1781   1.132   3.332   1.971
  632TIP3    H2 1782   1.083   3.240   2.081
  633TIP3   OH2 1783   2.078   3.455   1.436
  633TIP3    H1 1784   2.002   3.485   1.486
  633TIP3    H2 1785   2.068   3.495   1.350
  634TIP3   OH2 1786   2.376   2.378   1.890
  634TIP3    H1 1787   2.321   2.322   1.836
  634TIP3    H2 1788   2.432   2.424   1.828
  635TIP3   OH2 1789   1.784   3.427   1.170
  635TIP3    H1 1790   1.843   3.355   1.193
  635TIP3    H2 1791   1.793   3.436   1.075
  636TIP3   OH2 1792   2.257   3.439   1.860
  636TIP3    H1 1793   2.270   3.358   1.812
  636TIP3    H2 1794   2.243   3.505   1.792
  637TIP3   OH2 1795   2.419   2.972   1.693
  637TIP3    H1 1796   2.375   3.054   1.713
  637TIP3    H2 1797   2.415   2.964   1.598
  638TIP3   OH2 1798   2.148   2.887   1.995
  638TIP3    H1 1799   2.167   2.966   2.045
  638TIP3    H2 1800   2.053   2.888   1.982
  639TIP3   OH2 1801   1.625   3.357   1.682
  639TIP3    H1 1802   1.573   3.433   1.655
  639TIP3    H2 1803   1.639   3.307   1.602
  640TIP3   OH2 1804   1.387   3.336   2.129
  640TIP3    H1 1805   1.334   3.402   2.173
  640TIP3    H2 1806   1.325   3.282   2.081
  641TIP3   OH2 1807   1.167   2.920   2.258
  641TIP3    H1 1808   1.135   2.999   2.302
  641TIP3    H2 1809   1.129   2.926   2.170
  642TIP3   OH2 1810   1.186   3.505   2.217
  642TIP3    H1 1811   1.145   3.514   2.131
  642TIP3    H2 1812   1.113   3.489   2.276
  643TIP3   OH2 1813   2.503   3.742   1.876
  643TIP3    H1 1814   2.513   3.647   1.886
  643TIP3    H2 1815   2.422   3.762   1.923
  644TIP3   OH2 1816   1.568   3.507   1.999
  644TIP3    H1 1817   1.554   3.581   2.058
  644TIP3    H2 1818   1.520   3.435   2.041
  645TIP3   OH2 1819   2.380   2.823   2.155
  645TIP3    H1 1820   2.297   2.827   2.108
  645TIP3    H2 1821   2.396   2.729   2.165
  646TIP3   OH2 1822   0.940   3.222   2.182
  646TIP3    H1 1823   0.982   3.208   2.267
  646TIP3    H2 1824   0.884   3.146   2.170
  647TIP3   OH2 1825   2.125   2.614   2.056
  647TIP3    H1 1826   2.073   2.588   2.133
  647TIP3    H2 1827   2.100   2.705   2.041
  648TIP3   OH2 1828   1.846   2.823   2.275
  648TIP3    H1 1829   1.819   2.757   2.339
  648TIP3    H2 1830   1.940   2.835   2.291
  649TIP3   OH2 1831   1.884   2.886   1.962
  649TIP3    H1 1832   1.857   2.844   1.881
  649TIP3    H2 1833   1.818   2.860   2.026
  650TIP3   OH2 1834   2.200   4.065   1.956
  650TIP3    H1 1835   2.191   4.077   1.861
  650TIP3    H2 1836   2.280   4.113   1.978
  651TIP3   OH2 1837   1.087   3.143   2.407
  651TIP3    H1 1838   1.172   3.172   2.440
  651TIP3    H2 1839   1.032   3.135   2.485
  652TIP3   OH2 1840   2.283   3.204   1.724
  652TIP3    H1 1841   2.308   3.235   1.637
  652TIP3    H2 1842   2.188   3.197   1.721
  653TIP3   OH2 1843   1.730   3.202   2.064
  653TIP3    H1 1844   1.769   3.188   2.150
  653TIP3    H2 1845   1.636   3.188   2.078
  654TIP3   OH2 1846   1.620   2.987   2.311
  654TIP3    H1 1847   1.550   2.926   2.287
  654TIP3    H2 1848   1.700   2.945   2.280
  655TIP3   OH2 1849   1.806   3.658   1.927
  655TIP3    H1 1850   1.731   3.600   1.918
  655TIP3    H2 1851   1.845   3.634   2.011
  656TIP3   OH2 1852   2.525   3.472   1.911
  656TIP3    H1 1853   2.433   3.458   1.931
  656TIP3    H2 1854   2.541   3.417   1.834
  657TIP3   OH2 1855   1.846   2.978   1.542
  657TIP3    H1 1856   1.764   2.934   1.565
  657TIP3    H2 1857   1.903   2.909   1.511
  658TIP3   OH2 1858   1.336   3.580   1.862
  658TIP3    H1 1859   1.356   3.635   1.785
  658TIP3    H2 1860   1.419   3.575   1.909
  659TIP3   OH2 1861   1.736   3.077   1.798
  659TIP3    H1 1862   1.764   3.094   1.887
  659TIP3    H2 1863   1.817   3.060   1.750
  660TIP3   OH2 1864   2.035   3.754   1.805
  660TIP3    H1 1865   1.955   3.715   1.841
  660TIP3    H2 1866   2.005   3.829   1.754
  661TIP3   OH2 1867   0.790   3.476   1.989
  661TIP3    H1 1868   0.797   3.407   1.923
  661TIP3    H2 1869   0.848   3.448   2.060
  662TIP3   OH2 1870   1.894   2.430   1.964
  662TIP3    H1 1871   1.972   2.464   1.920
  662TIP3    H2 1872   1.823   2.442   1.901
  663TIP3   OH2 1873   1.760   2.650   2.069
  663TIP3    H1 1874   1.784   2.693   2.151
  663TIP3    H2 1875   1.810   2.568   2.069
  664TIP3   OH2 1876   2.377   2.543   2.117
  664TIP3    H1 1877   2.283   2.558   2.108
  664TIP3    H2 1878   2.401   2.494   2.039
  665TIP3   OH2 1879   2.007   2.785   1.443
  665TIP3    H1 1880   1.991   2.699   1.404
  665TIP3    H2 1881   2.096   2.778   1.479
  666TIP3   OH2 1882   2.069   3.774   1.447
  666TIP3    H1 1883   2.021   3.711   1.393
  666TIP3    H2 1884   2.158   3.772   1.412
  667TIP3   OH2 1885   0.813   3.756   2.354
  667TIP3    H1 1886   0.902   3.754   2.391
  667TIP3    H2 1887   0.789   3.664   2.346
  668TIP3   OH2 1888   1.300   3.680   2.392
  668TIP3    H1 1889   1.391   3.650   2.401
  668TIP3    H2 1890   1.263   3.624   2.324
  669TIP3   OH2 1891   1.912   3.615   2.176
  669TIP3    H1 1892   1.926   3.538   2.231
  669TIP3    H2 1893   1.991   3.668   2.188
  670TIP3   OH2 1894   1.538   3.250   2.341
  670TIP3    H1 1895   1.490   3.265   2.260
  670TIP3    H2 1896   1.576   3.162   2.331
  671TIP3   OH2 1897   2.064   3.299   1.993
  671TIP3    H1 1898   2.129   3.361   1.961
  671TIP3    H2 1899   1.982   3.326   1.951
  672TIP3   OH2 1900   1.067   2.839   2.601
  672TIP3    H1 1901   1.083   2.852   2.508
  672TIP3    H2 1902   1.024   2.920   2.629
  673TIP3   OH2 1903   1.411   2.794   2.256
  673TIP3    H1 1904   1.324   2.835   2.260
  673TIP3    H2 1905   1.445   2.818   2.170
  674TIP3   OH2 1906   1.891   3.158   2.297
  674TIP3    H1 1907   1.962   3.119   2.246
  674TIP3    H2 1908   1.890   3.106   2.378
  675TIP3   OH2 1909   1.542   2.549   2.269
  675TIP3    H1 1910   1.520   2.511   2.183
  675TIP3    H2 1911   1.497   2.633   2.270
  676TIP3   OH2 1912   1.528   2.888   2.031
  676TIP3    H1 1913   1.551   2.831   1.957
  676TIP3    H2 1914   1.481   2.962   1.991
  677TIP3   OH2 1915   2.118   2.848   2.356
  677TIP3    H1 1916   2.147   2.757   2.360
  677TIP3    H2 1917   2.198   2.899   2.342
  678TIP3   OH2 1918   2.192   3.114   2.134
  678TIP3    H1 1919   2.134   3.179   2.094
  678TIP3    H2 1920   2.277   3.128   2.093
  679TIP3   OH2 1921   1.388   2.667   2.524
  679TIP3    H1 1922   1.324   2.598   2.542
  679TIP3    H2 1923   1.370   2.694   2.434
  680TIP3   OH2 1924   1.766   2.598   2.416
  680TIP3    H1 1925   1.734   2.602   2.506
  680TIP3    H2 1926   1.690   2.574   2.364
  681TIP3   OH2 1927   2.013   2.563   2.296
  681TIP3    H1 1928   1.933   2.562   2.348
  681TIP3    H2 1929   2.082   2.535   2.357
  682TIP3   OH2 1930   2.247   2.522   2.445
  682TIP3    H1 1931   2.260   2.428   2.453
  682TIP3    H2 1932   2.240   2.552   2.536
  683TIP3   OH2 1933   1.254   2.448   2.625
  683TIP3    H1 1934   1.169   2.407   2.610
  683TIP3    H2 1935   1.280   2.420   2.712
  684TIP3   OH2 1936   1.679   2.145   2.450
  684TIP3    H1 1937   1.751   2.084   2.436
  684TIP3    H2 1938   1.659   2.178   2.362
  685TIP3   OH2 1939   1.772   2.333   2.634
  685TIP3    H1 1940   1.744   2.275   2.563
  685TIP3    H2 1941   1.708   2.404   2.634
  686TIP3   OH2 1942   2.334   3.805   1.390
  686TIP3    H1 1943   2.365   3.829   1.478
  686TIP3    H2 1944   2.332   3.888   1.342
  687TIP3   OH2 1945   2.351   3.832   1.662
  687TIP3    H1 1946   2.298   3.753   1.654
  687TIP3    H2 1947   2.418   3.809   1.727
  688TIP3   OH2 1948   2.382   3.504   2.190
  688TIP3    H1 1949   2.307   3.510   2.249
  688TIP3    H2 1950   2.424   3.590   2.197
  689TIP3   OH2 1951   2.307   3.301   1.468
  689TIP3    H1 1952   2.322   3.277   1.377
  689TIP3    H2 1953   2.230   3.357   1.466
  690TIP3   OH2 1954   2.205   3.600   1.648
  690TIP3    H1 1955   2.129   3.644   1.688
  690TIP3    H2 1956   2.169   3.556   1.571
  691TIP3   OH2 1957   2.416   3.154   1.981
  691TIP3    H1 1958   2.480   3.084   1.966
  691TIP3    H2 1959   2.387   3.178   1.893
  692TIP3   OH2 1960   2.577   2.932   1.991
  692TIP3    H1 1961   2.510   2.896   2.049
  692TIP3    H2 1962   2.658   2.889   2.017
  693TIP3   OH2 1963   2.257   2.476   1.579
  693TIP3    H1 1964   2.264   2.454   1.486
  693TIP3    H2 1965   2.348   2.480   1.609
  694TIP3   OH2 1966   2.354   2.759   1.852
  694TIP3    H1 1967   2.281   2.792   1.905
  694TIP3    H2 1968   2.374   2.831   1.792
  695TIP3   OH2 1969   2.819   2.350   2.335
  695TIP3    H1 1970   2.870   2.292   2.279
  695TIP3    H2 1971   2.781   2.414   2.276
  696TIP3   OH2 1972   2.666   2.521   2.189
  696TIP3    H1 1973   2.595   2.564   2.237
  696TIP3    H2 1974   2.621   2.457   2.133
  697TIP3   OH2 1975   1.909   3.578   0.965
  697TIP3    H1 1976   1.863   3.565   0.882
  697TIP3    H2 1977   1.849   3.630   1.017
  698TIP3   OH2 1978   0.979   3.476   2.394
  698TIP3    H1 1979   0.884   3.471   2.382
  698TIP3    H2 1980   0.993   3.454   2.486
  699TIP3   OH2 1981   1.094   3.513   1.956
  699TIP3    H1 1982   1.034   3.584   1.936
  699TIP3    H2 1983   1.178   3.540   1.920
  700TIP3   OH2 1984   1.541   3.756   2.110
  700TIP3    H1 1985   1.614   3.774   2.169
  700TIP3    H2 1986   1.573   3.783   2.023
  701TIP3   OH2 1987   1.767   3.937   1.918
  701TIP3    H1 1988   1.784   3.843   1.915
  701TIP3    H2 1989   1.837   3.972   1.973
  702TIP3   OH2 1990   2.547   2.282   2.088
  702TIP3    H1 1991   2.467   2.292   2.037
  702TIP3    H2 1992   2.569   2.190   2.081
  703TIP3   OH2 1993   0.785   3.760   1.962
  703TIP3    H1 1994   0.700   3.802   1.948
  703TIP3    H2 1995   0.765   3.667   1.966
  704TIP3   OH2 1996   1.046   3.792   1.896
  704TIP3    H1 1997   0.958   3.791   1.932
  704TIP3    H2 1998   1.033   3.809   1.802
  705TIP3   OH2 1999   1.484   3.817   1.539
  705TIP3    H1 2000   1.393   3.839   1.519
  705TIP3    H2 2001   1.527   3.902   1.547
  706TIP3   OH2 2002   1.762   3.747   1.571
  706TIP3    H1 2003   1.671   3.773   1.556
  706TIP3    H2 2004   1.805   3.828   1.598
  707TIP3   OH2 2005   1.975   3.952   1.624
  707TIP3    H1 2006   1.948   4.029   1.573
  707TIP3    H2 2007   2.006   3.890   1.559
  708TIP3   OH2 2008   1.219   3.567   1.475
  708TIP3    H1 2009   1.207   3.579   1.381
  708TIP3    H2 2010   1.144   3.515   1.502
  709TIP3   OH2 2011   1.987   3.647   0.576
  709TIP3    H1 2012   1.932   3.618   0.649
  709TIP3    H2 2013   1.931   3.639   0.499
  710TIP3   OH2 2014   1.521   2.156   2.677
  710TIP3    H1 2015   1.559   2.164   2.590
  710TIP3    H2 2016   1.561   2.077   2.714
  711TIP3   OH2 2017   2.313   2.254   2.469
  711TIP3    H1 2018   2.321   2.230   2.561
  711TIP3    H2 2019   2.401   2.247   2.434
  712TIP3   OH2 2020   2.252   3.795   1.971
  712TIP3    H1 2021   2.182   3.761   1.916
  712TIP3    H2 2022   2.235   3.889   1.977
  713TIP3   OH2 2023   3.531   3.246   0.752
  713TIP3    H1 2024   3.517   3.330   0.710
  713TIP3    H2 2025   3.494   3.182   0.691
  714TIP3   OH2 2026   3.567   3.183   1.126
  714TIP3    H1 2027   3.603   3.156   1.211
  714TIP3    H2 2028   3.506   3.113   1.103
  715TIP3   OH2 2029   2.828   3.144   1.469
  715TIP3    H1 2030   2.818   3.059   1.512
  715TIP3    H2 2031   2.889   3.192   1.525
  716TIP3   OH2 2032   3.776   3.478   0.774
  716TIP3    H1 2033   3.765   3.410   0.840
  716TIP3    H2 2034   3.793   3.558   0.824
  717TIP3   OH2 2035   2.821   3.479   1.173
  717TIP3    H1 2036   2.822   3.383   1.181
  717TIP3    H2 2037   2.907   3.506   1.206
  718TIP3   OH2 2038   2.534   2.993   1.161
  718TIP3    H1 2039   2.556   2.900   1.160
  718TIP3    H2 2040   2.481   3.006   1.082
  719TIP3   OH2 2041   3.423   3.887   0.801
  719TIP3    H1 2042   3.475   3.833   0.742
  719TIP3    H2 2043   3.433   3.845   0.887
  720TIP3   OH2 2044   3.309   3.389   1.148
  720TIP3    H1 2045   3.318   3.322   1.080
  720TIP3    H2 2046   3.398   3.421   1.162
  721TIP3   OH2 2047   4.329   2.704   1.160
  721TIP3    H1 2048   4.357   2.794   1.176
  721TIP3    H2 2049   4.332   2.695   1.065
  722TIP3   OH2 2050   3.797   2.885   1.215
  722TIP3    H1 2051   3.822   2.794   1.231
  722TIP3    H2 2052   3.778   2.890   1.122
  723TIP3   OH2 2053   3.073   2.519   0.960
  723TIP3    H1 2054   3.035   2.606   0.952
  723TIP3    H2 2055   3.003   2.459   0.934
  724TIP3   OH2 2056   3.763   2.608   0.828
  724TIP3    H1 2057   3.832   2.664   0.862
  724TIP3    H2 2058   3.695   2.669   0.799
  725TIP3   OH2 2059   2.643   2.752   1.186
  725TIP3    H1 2060   2.713   2.801   1.229
  725TIP3    H2 2061   2.689   2.684   1.137
  726TIP3   OH2 2062   3.163   3.008   1.044
  726TIP3    H1 2063   3.220   3.083   1.026
  726TIP3    H2 2064   3.184   2.945   0.976
  727TIP3   OH2 2065   4.408   2.938   1.296
  727TIP3    H1 2066   4.319   2.972   1.294
  727TIP3    H2 2067   4.444   2.968   1.380
  728TIP3   OH2 2068   3.134   2.546   1.632
  728TIP3    H1 2069   3.082   2.581   1.560
  728TIP3    H2 2070   3.091   2.579   1.711
  729TIP3   OH2 2071   3.447   3.461   0.606
  729TIP3    H1 2072   3.382   3.431   0.542
  729TIP3    H2 2073   3.412   3.543   0.640
  730TIP3   OH2 2074   3.147   3.310   1.352
  730TIP3    H1 2075   3.088   3.381   1.377
  730TIP3    H2 2076   3.199   3.347   1.281
  731TIP3   OH2 2077   4.000   2.678   0.944
  731TIP3    H1 2078   3.976   2.623   1.018
  731TIP3    H2 2079   4.036   2.758   0.984
  732TIP3   OH2 2080   3.018   2.621   1.404
  732TIP3    H1 2081   3.068   2.693   1.366
  732TIP3    H2 2082   3.038   2.545   1.350
  733TIP3   OH2 2083   2.979   3.514   1.428
  733TIP3    H1 2084   2.968   3.606   1.406
  733TIP3    H2 2085   2.911   3.495   1.493
  734TIP3   OH2 2086   2.254   3.142   0.629
  734TIP3    H1 2087   2.207   3.093   0.562
  734TIP3    H2 2088   2.315   3.079   0.666
  735TIP3   OH2 2089   3.801   3.721   0.920
  735TIP3    H1 2090   3.713   3.711   0.956
  735TIP3    H2 2091   3.799   3.806   0.875
  736TIP3   OH2 2092   4.125   2.593   1.311
  736TIP3    H1 2093   4.038   2.612   1.275
  736TIP3    H2 2094   4.186   2.630   1.246
  737TIP3   OH2 2095   3.408   2.311   1.355
  737TIP3    H1 2096   3.414   2.246   1.286
  737TIP3    H2 2097   3.329   2.288   1.403
  738TIP3   OH2 2098   3.559   3.754   0.606
  738TIP3    H1 2099   3.606   3.672   0.587
  738TIP3    H2 2100   3.619   3.823   0.577
  739TIP3   OH2 2101   3.712   3.539   0.514
  739TIP3    H1 2102   3.631   3.489   0.505
  739TIP3    H2 2103   3.747   3.512   0.599
  740TIP3   OH2 2104   4.045   3.608   1.271
  740TIP3    H1 2105   4.024   3.534   1.214
  740TIP3    H2 2106   4.030   3.686   1.217
  741TIP3   OH2 2107   3.402   3.070   0.590
  741TIP3    H1 2108   3.315   3.091   0.624
  741TIP3    H2 2109   3.413   3.129   0.515
  742TIP3   OH2 2110   3.329   2.789   0.284
  742TIP3    H1 2111   3.408   2.834   0.253
  742TIP3    H2 2112   3.350   2.696   0.278
  743TIP3   OH2 2113   4.217   3.271   1.138
  743TIP3    H1 2114   4.134   3.317   1.131
  743TIP3    H2 2115   4.251   3.268   1.049
  744TIP3   OH2 2116   3.732   3.171   0.553
  744TIP3    H1 2117   3.683   3.207   0.627
  744TIP3    H2 2118   3.812   3.136   0.592
  745TIP3   OH2 2119   3.927   3.128   1.454
  745TIP3    H1 2120   3.922   3.211   1.503
  745TIP3    H2 2121   3.843   3.122   1.409
  746TIP3   OH2 2122   2.867   3.053   0.957
  746TIP3    H1 2123   2.787   3.024   0.913
  746TIP3    H2 2124   2.923   2.976   0.957
  747TIP3   OH2 2125   3.092   3.545   1.100
  747TIP3    H1 2126   3.053   3.491   1.031
  747TIP3    H2 2127   3.174   3.501   1.122
  748TIP3   OH2 2128   3.063   3.060   1.292
  748TIP3    H1 2129   3.102   3.048   1.205
  748TIP3    H2 2130   3.089   3.148   1.318
  749TIP3   OH2 2131   3.559   3.710   1.047
  749TIP3    H1 2132   3.554   3.785   1.106
  749TIP3    H2 2133   3.555   3.634   1.105
  750TIP3   OH2 2134   3.188   3.601   1.592
  750TIP3    H1 2135   3.129   3.659   1.640
  750TIP3    H2 2136   3.130   3.550   1.535
  751TIP3   OH2 2137   3.492   3.010   0.259
  751TIP3    H1 2138   3.490   3.098   0.295
  751TIP3    H2 2139   3.537   3.019   0.175
  752TIP3   OH2 2140   2.966   3.193   1.710
  752TIP3    H1 2141   2.976   3.276   1.757
  752TIP3    H2 2142   2.881   3.160   1.736
  753TIP3   OH2 2143   3.252   3.659   0.641
  753TIP3    H1 2144   3.285   3.747   0.659
  753TIP3    H2 2145   3.208   3.667   0.556
  754TIP3   OH2 2146   2.987   3.766   1.681
  754TIP3    H1 2147   2.957   3.777   1.590
  754TIP3    H2 2148   2.908   3.746   1.730
  755TIP3   OH2 2149   4.029   2.201   0.387
  755TIP3    H1 2150   3.984   2.273   0.432
  755TIP3    H2 2151   4.053   2.238   0.302
  756TIP3   OH2 2152   2.667   3.014   0.759
  756TIP3    H1 2153   2.659   3.081   0.690
  756TIP3    H2 2154   2.576   2.993   0.782
  757TIP3   OH2 2155   7.159   8.233   7.980
  757TIP3    H1 2156   7.142   8.315   7.934
  757TIP3    H2 2157   7.248   8.208   7.954
  758TIP3   OH2 2158   2.586   3.320   1.696
  758TIP3    H1 2159   2.566   3.327   1.603
  758TIP3    H2 2160   2.628   3.234   1.705
  759TIP3   OH2 2161   2.551   3.489   1.142
  759TIP3    H1 2162   2.642   3.495   1.169
  759TIP3    H2 2163   2.501   3.520   1.218
  760TIP3   OH2 2164   4.273   3.977   1.331
  760TIP3    H1 2165   4.280   3.882   1.340
  760TIP3    H2 2166   4.193   3.999   1.379
  761TIP3   OH2 2167   3.379   3.747   1.462
  761TIP3    H1 2168   3.368   3.837   1.494
  761TIP3    H2 2169   3.311   3.697   1.508
  762TIP3   OH2 2170   3.211   3.918   0.486
  762TIP3    H1 2171   3.138   3.882   0.435
  762TIP3    H2 2172   3.181   4.005   0.512
  763TIP3   OH2 2173   2.709   3.658   0.746
  763TIP3    H1 2174   2.712   3.656   0.841
  763TIP3    H2 2175   2.617   3.640   0.724
  764TIP3   OH2 2176   3.385   3.777   0.101
  764TIP3    H1 2177   3.453   3.733   0.051
  764TIP3    H2 2178   3.427   3.800   0.184
  765TIP3   OH2 2179   3.443   3.849   0.357
  765TIP3    H1 2180   3.360   3.864   0.402
  765TIP3    H2 2181   3.501   3.815   0.425
  766TIP3   OH2 2182   4.161   3.074   1.606
  766TIP3    H1 2183   4.082   3.087   1.555
  766TIP3    H2 2184   4.181   2.981   1.597
  767TIP3   OH2 2185   2.801   3.500   1.634
  767TIP3    H1 2186   2.849   3.486   1.716
  767TIP3    H2 2187   2.718   3.454   1.645
  768TIP3   OH2 2188   3.168   2.304   1.491
  768TIP3    H1 2189   3.122   2.336   1.413
  768TIP3    H2 2190   3.159   2.375   1.555
  769TIP3   OH2 2191   3.709   2.432   1.639
  769TIP3    H1 2192   3.791   2.407   1.682
  769TIP3    H2 2193   3.647   2.443   1.711
  770TIP3   OH2 2194   3.916   2.854   1.535
  770TIP3    H1 2195   3.872   2.851   1.620
  770TIP3    H2 2196   3.901   2.943   1.503
  771TIP3   OH2 2197   3.649   3.052   0.044
  771TIP3    H1 2198   3.624   3.144   0.051
  771TIP3    H2 2199   3.739   3.053   0.014
  772TIP3   OH2 2200   3.145   2.876   1.480
  772TIP3    H1 2201   3.079   2.879   1.550
  772TIP3    H2 2202   3.119   2.946   1.420
  773TIP3   OH2 2203   2.978   2.807   0.895
  773TIP3    H1 2204   2.892   2.765   0.901
  773TIP3    H2 2205   2.987   2.829   0.803
  774TIP3   OH2 2206   3.536   2.739   0.749
  774TIP3    H1 2207   3.519   2.819   0.800
  774TIP3    H2 2208   3.517   2.764   0.659
  775TIP3   OH2 2209   3.649   3.067   1.757
  775TIP3    H1 2210   3.618   3.007   1.824
  775TIP3    H2 2211   3.743   3.077   1.775
  776TIP3   OH2 2212   3.725   2.869   0.952
  776TIP3    H1 2213   3.652   2.921   0.918
  776TIP3    H2 2214   3.683   2.790   0.986
  777TIP3   OH2 2215   2.954   2.886   1.672
  777TIP3    H1 2216   2.953   2.962   1.730
  777TIP3    H2 2217   2.962   2.811   1.732
  778TIP3   OH2 2218   3.674   3.079   1.355
  778TIP3    H1 2219   3.713   3.010   1.301
  778TIP3    H2 2220   3.627   3.031   1.423
  779TIP3   OH2 2221   3.315   2.619   1.039
  779TIP3    H1 2222   3.239   2.574   1.000
  779TIP3    H2 2223   3.319   2.586   1.128
  780TIP3   OH2 2224   2.749   2.665   0.890
  780TIP3    H1 2225   2.722   2.602   0.957
  780TIP3    H2 2226   2.794   2.611   0.824
  781TIP3   OH2 2227   2.910   2.522   0.725
  781TIP3    H1 2228   2.965   2.443   0.718
  781TIP3    H2 2229   2.898   2.549   0.634
  782TIP3   OH2 2230   3.855   2.607   1.230
  782TIP3    H1 2231   3.800   2.614   1.308
  782TIP3    H2 2232   3.823   2.529   1.185
  783TIP3   OH2 2233   3.982   4.311   1.423
  783TIP3    H1 2234   3.981   4.319   1.327
  783TIP3    H2 2235   4.062   4.356   1.450
  784TIP3   OH2 2236   2.939   3.421   1.862
  784TIP3    H1 2237   3.020   3.440   1.908
  784TIP3    H2 2238   2.873   3.416   1.931
  785TIP3   OH2 2239   3.455   2.918   1.152
  785TIP3    H1 2240   3.507   2.844   1.119
  785TIP3    H2 2241   3.425   2.888   1.238
  786TIP3   OH2 2242   3.385   2.801   1.393
  786TIP3    H1 2243   3.303   2.839   1.424
  786TIP3    H2 2244   3.453   2.851   1.438
  787TIP3   OH2 2245   2.996   3.170   0.446
  787TIP3    H1 2246   3.076   3.120   0.434
  787TIP3    H2 2247   2.979   3.168   0.540
  788TIP3   OH2 2248   3.990   3.415   1.089
  788TIP3    H1 2249   4.030   3.462   1.015
  788TIP3    H2 2250   3.910   3.377   1.053
  789TIP3   OH2 2251   3.432   2.542   0.350
  789TIP3    H1 2252   3.422   2.463   0.296
  789TIP3    H2 2253   3.517   2.578   0.323
  790TIP3   OH2 2254   3.511   3.479   1.485
  790TIP3    H1 2255   3.551   3.462   1.571
  790TIP3    H2 2256   3.464   3.561   1.496
  791TIP3   OH2 2257   3.626   2.725   0.271
  791TIP3    H1 2258   3.721   2.711   0.277
  791TIP3    H2 2259   3.606   2.786   0.342
  792TIP3   OH2 2260   2.827   3.202   1.188
  792TIP3    H1 2261   2.855   3.137   1.124
  792TIP3    H2 2262   2.861   3.170   1.271
  793TIP3   OH2 2263   3.226   3.255   0.187
  793TIP3    H1 2264   3.227   3.342   0.227
  793TIP3    H2 2265   3.197   3.197   0.257
  794TIP3   OH2 2266   2.725   3.095   1.794
  794TIP3    H1 2267   2.762   3.103   1.881
  794TIP3    H2 2268   2.674   3.015   1.796
  795TIP3   OH2 2269   3.429   3.241   1.767
  795TIP3    H1 2270   3.356   3.182   1.750
  795TIP3    H2 2271   3.507   3.189   1.747
  796TIP3   OH2 2272   3.646   3.776   1.382
  796TIP3    H1 2273   3.553   3.755   1.387
  796TIP3    H2 2274   3.669   3.805   1.470
  797TIP3   OH2 2275   4.082   2.857   0.314
  797TIP3    H1 2276   4.031   2.908   0.251
  797TIP3    H2 2277   4.170   2.895   0.310
  798TIP3   OH2 2278   4.293   3.703   1.347
  798TIP3    H1 2279   4.200   3.677   1.354
  798TIP3    H2 2280   4.323   3.663   1.266
  799TIP3   OH2 2281   3.746   3.645   0.214
  799TIP3    H1 2282   3.781   3.590   0.284
  799TIP3    H2 2283   3.793   3.618   0.135
  800TIP3   OH2 2284   3.776   3.286   0.977
  800TIP3    H1 2285   3.695   3.254   1.016
  800TIP3    H2 2286   3.824   3.207   0.953
  801TIP3   OH2 2287   2.922   3.510   0.873
  801TIP3    H1 2288   2.906   3.604   0.864
  801TIP3    H2 2289   2.836   3.469   0.863
  802TIP3   OH2 2290   3.171   3.163   0.701
  802TIP3    H1 2291   3.129   3.249   0.706
  802TIP3    H2 2292   3.101   3.100   0.717
  803TIP3   OH2 2293   3.198   3.849   1.269
  803TIP3    H1 2294   3.241   3.916   1.216
  803TIP3    H2 2295   3.270   3.805   1.314
  804TIP3   OH2 2296   2.755   3.861   0.568
  804TIP3    H1 2297   2.736   3.799   0.638
  804TIP3    H2 2298   2.829   3.912   0.601
  805TIP3   OH2 2299   3.562   3.479   1.212
  805TIP3    H1 2300   3.554   3.476   1.308
  805TIP3    H2 2301   3.609   3.399   1.190
  806TIP3   OH2 2302   3.486   3.273   0.091
  806TIP3    H1 2303   3.533   3.343   0.135
  806TIP3    H2 2304   3.398   3.275   0.130
  807TIP3   OH2 2305   3.804   3.976   1.267
  807TIP3    H1 2306   3.738   3.912   1.292
  807TIP3    H2 2307   3.762   4.028   1.198
  808TIP3   OH2 2308   7.140   8.491   7.892
  808TIP3    H1 2309   7.196   8.569   7.888
  808TIP3    H2 2310   7.054   8.524   7.919
  809TIP3   OH2 2311   2.998   2.668   1.840
  809TIP3    H1 2312   2.930   2.601   1.852
  809TIP3    H2 2313   3.026   2.689   1.929
  810TIP3   OH2 2314   3.759   3.271   0.292
  810TIP3    H1 2315   3.735   3.249   0.382
  810TIP3    H2 2316   3.854   3.285   0.295
  811TIP3   OH2 2317   2.652   3.696   1.430
  811TIP3    H1 2318   2.634   3.602   1.437
  811TIP3    H2 2319   2.703   3.717   1.508
  812TIP3   OH2 2320   2.893   3.313   0.066
  812TIP3    H1 2321   2.941   3.231   0.069
  812TIP3    H2 2322   2.887   3.341   0.157
  813TIP3   OH2 2323   2.917   3.393   0.322
  813TIP3    H1 2324   2.944   3.313   0.367
  813TIP3    H2 2325   2.874   3.446   0.389
  814TIP3   OH2 2326   3.729   2.654   1.472
  814TIP3    H1 2327   3.804   2.704   1.503
  814TIP3    H2 2328   3.720   2.582   1.535
  815TIP3   OH2 2329   3.575   2.434   0.557
  815TIP3    H1 2330   3.512   2.468   0.493
  815TIP3    H2 2331   3.636   2.506   0.572
  816TIP3   OH2 2332   3.115   3.632   0.403
  816TIP3    H1 2333   3.020   3.630   0.410
  816TIP3    H2 2334   3.132   3.662   0.314
  817TIP3   OH2 2335   3.364   2.530   0.754
  817TIP3    H1 2336   3.424   2.604   0.755
  817TIP3    H2 2337   3.279   2.567   0.730
  818TIP3   OH2 2338   3.584   2.903   1.543
  818TIP3    H1 2339   3.604   2.951   1.624
  818TIP3    H2 2340   3.634   2.822   1.551
  819TIP3   OH2 2341   3.579   2.414   0.873
  819TIP3    H1 2342   3.637   2.489   0.866
  819TIP3    H2 2343   3.503   2.436   0.820
  820TIP3   OH2 2344   2.845   3.672   0.399
  820TIP3    H1 2345   2.826   3.707   0.311
  820TIP3    H2 2346   2.819   3.742   0.459
  821TIP3   OH2 2347   4.181   2.800   1.512
  821TIP3    H1 2348   4.086   2.811   1.522
  821TIP3    H2 2349   4.190   2.736   1.441
  822TIP3   OH2 2350   3.918   3.053   0.924
  822TIP3    H1 2351   3.848   2.988   0.931
  822TIP3    H2 2352   3.990   3.016   0.974
  823TIP3   OH2 2353   2.637   3.324   0.226
  823TIP3    H1 2354   2.670   3.408   0.195
  823TIP3    H2 2355   2.581   3.346   0.301
  824TIP3   OH2 2356   3.823   3.988   0.837
  824TIP3    H1 2357   3.780   4.041   0.769
  824TIP3    H2 2358   3.916   3.996   0.818
  825TIP3   OH2 2359   2.799   2.192   1.339
  825TIP3    H1 2360   2.826   2.142   1.262
  825TIP3    H2 2361   2.795   2.127   1.409
  826TIP3   OH2 2362   2.482   3.464   0.636
  826TIP3    H1 2363   2.449   3.411   0.708
  826TIP3    H2 2364   2.404   3.505   0.598
  827TIP3   OH2 2365   2.616   4.013   1.843
  827TIP3    H1 2366   2.701   4.011   1.887
  827TIP3    H2 2367   2.586   3.922   1.845
  828TIP3   OH2 2368   3.089   3.929   1.876
  828TIP3    H1 2369   3.178   3.896   1.887
  828TIP3    H2 2370   3.053   3.877   1.804
  829TIP3   OH2 2371   6.328   8.144   8.026
  829TIP3    H1 2372   6.269   8.072   8.047
  829TIP3    H2 2373   6.350   8.132   7.933
  830TIP3   OH2 2374   3.703   3.863   1.635
  830TIP3    H1 2375   3.717   3.793   1.699
  830TIP3    H2 2376   3.776   3.922   1.649
  831TIP3   OH2 2377   6.783   8.226   7.937
  831TIP3    H1 2378   6.700   8.214   7.891
  831TIP3    H2 2379   6.840   8.159   7.900
  832TIP3   OH2 2380   2.744   3.410   2.058
  832TIP3    H1 2381   2.731   3.323   2.096
  832TIP3    H2 2382   2.662   3.428   2.012
  833TIP3   OH2 2383   3.344   3.506   1.798
  833TIP3    H1 2384   3.295   3.522   1.718
  833TIP3    H2 2385   3.384   3.420   1.785
  834TIP3   OH2 2386   6.413   7.864   7.929
  834TIP3    H1 2387   6.436   7.871   8.022
  834TIP3    H2 2388   6.457   7.784   7.899
  835TIP3   OH2 2389   3.822   3.553   1.428
  835TIP3    H1 2390   3.898   3.581   1.376
  835TIP3    H2 2391   3.752   3.613   1.403
  836TIP3   OH2 2392   2.878   3.108   2.024
  836TIP3    H1 2393   2.960   3.061   2.008
  836TIP3    H2 2394   2.894   3.158   2.103
  837TIP3   OH2 2395   2.973   2.922   0.634
  837TIP3    H1 2396   2.910   2.995   0.637
  837TIP3    H2 2397   2.980   2.900   0.541
  838TIP3   OH2 2398   3.220   3.075   1.698
  838TIP3    H1 2399   3.133   3.115   1.700
  838TIP3    H2 2400   3.249   3.084   1.607
  839TIP3   OH2 2401   3.702   3.422   1.769
  839TIP3    H1 2402   3.770   3.384   1.713
  839TIP3    H2 2403   3.699   3.364   1.845
  840TIP3   OH2 2404   7.119   7.673   7.846
  840TIP3    H1 2405   7.098   7.580   7.835
  840TIP3    H2 2406   7.045   7.720   7.807
  841TIP3   OH2 2407   3.307   2.845   1.819
  841TIP3    H1 2408   3.325   2.777   1.754
  841TIP3    H2 2409   3.274   2.919   1.769
  842TIP3   OH2 2410   3.382   2.650   1.630
  842TIP3    H1 2411   3.405   2.697   1.550
  842TIP3    H2 2412   3.292   2.620   1.616
  843TIP3   OH2 2413   3.337   3.142   1.459
  843TIP3    H1 2414   3.422   3.183   1.445
  843TIP3    H2 2415   3.274   3.204   1.423
  844TIP3   OH2 2416   3.924   3.076   1.838
  844TIP3    H1 2417   3.959   2.990   1.860
  844TIP3    H2 2418   3.999   3.126   1.805
  845TIP3   OH2 2419   3.937   3.371   1.591
  845TIP3    H1 2420   3.885   3.434   1.542
  845TIP3    H2 2421   4.027   3.384   1.559
  846TIP3   OH2 2422   3.105   2.952   2.004
  846TIP3    H1 2423   3.091   2.872   2.054
  846TIP3    H2 2424   3.187   2.937   1.956
  847TIP3   OH2 2425   3.362   2.405   1.761
  847TIP3    H1 2426   3.374   2.493   1.726
  847TIP3    H2 2427   3.270   2.401   1.787
  848TIP3   OH2 2428   3.563   2.863   1.921
  848TIP3    H1 2429   3.550   2.872   2.016
  848TIP3    H2 2430   3.475   2.849   1.886
  849TIP3   OH2 2431   3.789   2.797   1.768
  849TIP3    H1 2432   3.712   2.805   1.824
  849TIP3    H2 2433   3.861   2.782   1.828
  850TIP3   OH2 2434   4.020   2.793   1.933
  850TIP3    H1 2435   4.039   2.699   1.939
  850TIP3    H2 2436   3.999   2.819   2.023
  851TIP3   OH2 2437   3.035   2.707   2.122
  851TIP3    H1 2438   3.033   2.611   2.119
  851TIP3    H2 2439   3.076   2.727   2.206
  852TIP3   OH2 2440   3.575   2.400   1.933
  852TIP3    H1 2441   3.614   2.313   1.928
  852TIP3    H2 2442   3.491   2.391   1.886
  853TIP3   OH2 2443   3.512   2.568   2.163
  853TIP3    H1 2444   3.547   2.558   2.074
  853TIP3    H2 2445   3.502   2.663   2.173
  854TIP3   OH2 2446   2.772   3.816   0.181
  854TIP3    H1 2447   2.838   3.875   0.217
  854TIP3    H2 2448   2.712   3.873   0.132
  855TIP3   OH2 2449   2.229   3.921   0.912
  855TIP3    H1 2450   2.190   3.876   0.837
  855TIP3    H2 2451   2.264   3.851   0.966
  856TIP3   OH2 2452   2.336   3.743   1.088
  856TIP3    H1 2453   2.278   3.684   1.135
  856TIP3    H2 2454   2.403   3.768   1.152
  857TIP3   OH2 2455   4.097   4.029   0.824
  857TIP3    H1 2456   4.120   4.054   0.913
  857TIP3    H2 2457   4.161   4.075   0.769
  858TIP3   OH2 2458   4.125   4.056   1.104
  858TIP3    H1 2459   4.074   3.975   1.098
  858TIP3    H2 2460   4.191   4.039   1.171
  859TIP3   OH2 2461   4.172   3.763   1.674
  859TIP3    H1 2462   4.098   3.769   1.735
  859TIP3    H2 2463   4.217   3.847   1.683
  860TIP3   OH2 2464   4.028   3.309   0.298
  860TIP3    H1 2465   4.090   3.378   0.275
  860TIP3    H2 2466   4.067   3.266   0.374
  861TIP3   OH2 2467   4.140   3.153   0.493
  861TIP3    H1 2468   4.072   3.119   0.551
  861TIP3    H2 2469   4.207   3.187   0.553
  862TIP3   OH2 2470   4.169   3.538   0.920
  862TIP3    H1 2471   4.219   3.465   0.884
  862TIP3    H2 2472   4.173   3.605   0.852
  863TIP3   OH2 2473   3.976   3.823   1.112
  863TIP3    H1 2474   3.909   3.867   1.164
  863TIP3    H2 2475   3.927   3.781   1.041
  864TIP3   OH2 2476   4.159   3.105   0.156
  864TIP3    H1 2477   4.076   3.062   0.137
  864TIP3    H2 2478   4.136   3.183   0.206
  865TIP3   OH2 2479   3.800   2.781   0.019
  865TIP3    H1 2480   3.829   2.726  -0.053
  865TIP3    H2 2481   3.723   2.736   0.055
  866TIP3   OH2 2482   3.948   3.039   0.653
  866TIP3    H1 2483   3.951   2.945   0.633
  866TIP3    H2 2484   3.945   3.043   0.748
  867TIP3   OH2 2485   2.577   3.182   1.347
  867TIP3    H1 2486   2.570   3.126   1.270
  867TIP3    H2 2487   2.669   3.173   1.374
  868TIP3   OH2 2488   4.189   3.409   1.482
  868TIP3    H1 2489   4.258   3.344   1.468
  868TIP3    H2 2490   4.184   3.456   1.399
  869TIP3   OH2 2491   4.373   3.203   1.483
  869TIP3    H1 2492   4.298   3.158   1.523
  869TIP3    H2 2493   4.449   3.149   1.506
  870TIP3   OH2 2494   3.839   2.456   0.062
  870TIP3    H1 2495   3.918   2.417   0.099
  870TIP3    H2 2496   3.774   2.447   0.131
  871TIP3   OH2 2497   3.983   2.781   0.559
  871TIP3    H1 2498   4.047   2.723   0.600
  871TIP3    H2 2499   4.026   2.812   0.480
  872TIP3   OH2 2500   4.100   2.901   1.064
  872TIP3    H1 2501   4.182   2.929   1.024
  872TIP3    H2 2502   4.104   2.934   1.154
  873TIP3   OH2 2503   4.149   3.050   1.288
  873TIP3    H1 2504   4.069   3.076   1.336
  873TIP3    H2 2505   4.174   3.129   1.240
  874TIP3   OH2 2506   2.766   2.750   2.075
  874TIP3    H1 2507   2.862   2.750   2.085
  874TIP3    H2 2508   2.737   2.674   2.125
  875TIP3   OH2 2509   4.600   2.631   1.799
  875TIP3    H1 2510   4.663   2.574   1.755
  875TIP3    H2 2511   4.562   2.682   1.728
  876TIP3   OH2 2512   4.095   2.570   0.710
  876TIP3    H1 2513   4.078   2.616   0.792
  876TIP3    H2 2514   4.015   2.522   0.691
  877TIP3   OH2 2515   2.710   2.458   1.311
  877TIP3    H1 2516   2.709   2.365   1.330
  877TIP3    H2 2517   2.655   2.497   1.379
  878TIP3   OH2 2518   2.515   2.666   1.433
  878TIP3    H1 2519   2.491   2.671   1.341
  878TIP3    H2 2520   2.572   2.742   1.447
  879TIP3   OH2 2521   4.446   2.755   1.610
  879TIP3    H1 2522   4.364   2.793   1.641
  879TIP3    H2 2523   4.420   2.683   1.553
  880TIP3   OH2 2524   4.066   2.340   0.151
  880TIP3    H1 2525   4.100   2.271   0.094
  880TIP3    H2 2526   4.124   2.415   0.133
  881TIP3   OH2 2527   3.703   3.947   0.487
  881TIP3    H1 2528   3.737   3.940   0.398
  881TIP3    H2 2529   3.728   4.034   0.517
  882TIP3   OH2 2530   2.633   2.259   1.823
  882TIP3    H1 2531   2.607   2.282   1.912
  882TIP3    H2 2532   2.714   2.307   1.808
  883TIP3   OH2 2533   2.779   3.735   1.858
  883TIP3    H1 2534   2.683   3.729   1.854
  883TIP3    H2 2535   2.799   3.718   1.950
  884TIP3   OH2 2536   2.965   3.787   1.401
  884TIP3    H1 2537   2.910   3.858   1.368
  884TIP3    H2 2538   3.052   3.804   1.364
  885TIP3   OH2 2539   3.358   4.014   1.539
  885TIP3    H1 2540   3.396   4.005   1.627
  885TIP3    H2 2541   3.420   4.069   1.492
  886TIP3   OH2 2542   3.547   4.170   1.411
  886TIP3    H1 2543   3.605   4.113   1.361
  886TIP3    H2 2544   3.606   4.224   1.464
  887TIP3   OH2 2545   4.365   2.504   1.507
  887TIP3    H1 2546   4.277   2.484   1.475
  887TIP3    H2 2547   4.413   2.422   1.501
  888TIP3   OH2 2548   2.641   4.077   1.434
  888TIP3    H1 2549   2.545   4.078   1.427
  888TIP3    H2 2550   2.659   4.126   1.514
  889TIP3   OH2 2551   2.860   4.014   1.288
  889TIP3    H1 2552   2.782   4.031   1.340
  889TIP3    H2 2553   2.834   4.038   1.199
  890TIP3   OH2 2554   3.282   4.045   1.089
  890TIP3    H1 2555   3.207   4.054   1.030
  890TIP3    H2 2556   3.289   4.130   1.132
  891TIP3   OH2 2557   3.543   3.979   1.136
  891TIP3    H1 2558   3.451   3.995   1.116
  891TIP3    H2 2559   3.591   4.045   1.085
  892TIP3   OH2 2560   3.748   4.154   1.042
  892TIP3    H1 2561   3.737   4.238   0.997
  892TIP3    H2 2562   3.774   4.093   0.973
  893TIP3   OH2 2563   2.576   3.831   1.205
  893TIP3    H1 2564   2.595   3.799   1.293
  893TIP3    H2 2565   2.643   3.790   1.149
  894TIP3   OH2 2566   2.762   3.710   1.026
  894TIP3    H1 2567   2.775   3.628   1.073
  894TIP3    H2 2568   2.843   3.759   1.040
  895TIP3   OH2 2569   3.021   3.804   1.060
  895TIP3    H1 2570   3.049   3.713   1.056
  895TIP3    H2 2571   3.063   3.839   1.139
  896TIP3   OH2 2572   3.614   2.421   1.180
  896TIP3    H1 2573   3.529   2.387   1.208
  896TIP3    H2 2574   3.636   2.369   1.103
  897TIP3   OH2 2575   4.132   2.331   1.047
  897TIP3    H1 2576   4.181   2.410   1.028
  897TIP3    H2 2577   4.040   2.359   1.051
  898TIP3   OH2 2578   4.285   2.530   0.933
  898TIP3    H1 2579   4.341   2.471   0.883
  898TIP3    H2 2580   4.274   2.607   0.876
  899TIP3   OH2 2581   3.210   2.083   0.851
  899TIP3    H1 2582   3.301   2.112   0.854
  899TIP3    H2 2583   3.160   2.158   0.883
  900TIP3   OH2 2584   3.873   2.410   1.004
  900TIP3    H1 2585   3.834   2.458   0.931
  900TIP3    H2 2586   3.822   2.329   1.009
  901TIP3   OH2 2587   3.750   2.245   0.458
  901TIP3    H1 2588   3.685   2.300   0.501
  901TIP3    H2 2589   3.766   2.174   0.520
  902TIP3   OH2 2590   2.263   3.604   0.552
  902TIP3    H1 2591   2.192   3.600   0.616
  902TIP3    H2 2592   2.245   3.682   0.500
  903TIP3   OH2 2593   3.098   2.328   0.692
  903TIP3    H1 2594   3.068   2.262   0.629
  903TIP3    H2 2595   3.193   2.315   0.696
  904TIP3   OH2 2596   3.118   3.759   0.156
  904TIP3    H1 2597   3.204   3.780   0.120
  904TIP3    H2 2598   3.080   3.697   0.094
  905TIP3   OH2 2599   3.795   3.915   0.229
  905TIP3    H1 2600   3.779   3.821   0.227
  905TIP3    H2 2601   3.755   3.948   0.149
  906TIP3   OH2 2602   3.039   2.437   2.103
  906TIP3    H1 2603   3.000   2.353   2.128
  906TIP3    H2 2604   3.129   2.431   2.134
  907TIP3   OH2 2605   3.293   2.414   2.189
  907TIP3    H1 2606   3.367   2.471   2.169
  907TIP3    H2 2607   3.332   2.328   2.207
  908TIP3   OH2 2608   2.466   3.699   0.141
  908TIP3    H1 2609   2.387   3.663   0.181
  908TIP3    H2 2610   2.535   3.636   0.164
  909TIP3   OH2 2611   4.101   2.521   1.931
  909TIP3    H1 2612   4.118   2.487   2.019
  909TIP3    H2 2613   4.186   2.517   1.886
  910TIP3   OH2 2614   4.023   4.037   1.428
  910TIP3    H1 2615   3.949   4.004   1.377
  910TIP3    H2 2616   4.005   4.130   1.438
  911TIP3   OH2 2617   5.296   3.398   0.185
  911TIP3    H1 2618   5.269   3.487   0.164
  911TIP3    H2 2619   5.226   3.343   0.150
  912TIP3   OH2 2620   5.302   3.418   0.596
  912TIP3    H1 2621   5.357   3.395   0.670
  912TIP3    H2 2622   5.256   3.337   0.573
  913TIP3   OH2 2623   4.590   3.267   0.938
  913TIP3    H1 2624   4.631   3.217   1.009
  913TIP3    H2 2625   4.664   3.293   0.882
  914TIP3   OH2 2626   5.574   3.725   0.266
  914TIP3    H1 2627   5.554   3.658   0.331
  914TIP3    H2 2628   5.586   3.805   0.317
  915TIP3   OH2 2629   4.583   3.704   0.627
  915TIP3    H1 2630   4.564   3.610   0.630
  915TIP3    H2 2631   4.678   3.709   0.615
  916TIP3   OH2 2632   4.322   2.957   0.409
  916TIP3    H1 2633   4.266   3.032   0.429
  916TIP3    H2 2634   4.289   2.888   0.466
  917TIP3   OH2 2635   4.363   3.227   0.634
  917TIP3    H1 2636   4.416   3.150   0.659
  917TIP3    H2 2637   4.428   3.294   0.613
  918TIP3   OH2 2638   5.219   4.173   0.299
  918TIP3    H1 2639   5.259   4.108   0.241
  918TIP3    H2 2640   5.212   4.129   0.384
  919TIP3   OH2 2641   5.099   3.638   0.592
  919TIP3    H1 2642   5.142   3.558   0.562
  919TIP3    H2 2643   5.170   3.693   0.624
  920TIP3   OH2 2644   6.131   2.954   0.611
  920TIP3    H1 2645   6.146   3.038   0.656
  920TIP3    H2 2646   6.159   2.970   0.521
  921TIP3   OH2 2647   5.524   3.115   0.633
  921TIP3    H1 2648   5.567   3.034   0.657
  921TIP3    H2 2649   5.479   3.095   0.551
  922TIP3   OH2 2650   4.887   2.793   0.595
  922TIP3    H1 2651   4.865   2.866   0.537
  922TIP3    H2 2652   4.832   2.721   0.565
  923TIP3   OH2 2653   5.544   2.884   0.238
  923TIP3    H1 2654   5.611   2.876   0.306
  923TIP3    H2 2655   5.590   2.920   0.162
  924TIP3   OH2 2656   4.512   3.013   0.721
  924TIP3    H1 2657   4.588   2.989   0.774
  924TIP3    H2 2658   4.519   2.958   0.643
  925TIP3   OH2 2659   4.918   3.211   0.547
  925TIP3    H1 2660   5.013   3.196   0.552
  925TIP3    H2 2661   4.883   3.129   0.513
  926TIP3   OH2 2662   6.189   3.176   0.776
  926TIP3    H1 2663   6.099   3.208   0.772
  926TIP3    H2 2664   6.222   3.208   0.860
  927TIP3   OH2 2665   4.852   2.786   1.046
  927TIP3    H1 2666   4.806   2.824   0.971
  927TIP3    H2 2667   4.793   2.801   1.120
  928TIP3   OH2 2668   5.176   3.613   0.069
  928TIP3    H1 2669   5.158   3.602  -0.025
  928TIP3    H2 2670   5.130   3.693   0.093
  929TIP3   OH2 2671   4.938   3.564   0.806
  929TIP3    H1 2672   4.885   3.636   0.839
  929TIP3    H2 2673   4.986   3.601   0.732
  930TIP3   OH2 2674   5.742   2.902   0.422
  930TIP3    H1 2675   5.779   2.829   0.471
  930TIP3    H2 2676   5.784   2.980   0.459
  931TIP3   OH2 2677   4.755   2.898   0.814
  931TIP3    H1 2678   4.808   2.974   0.837
  931TIP3    H2 2679   4.802   2.858   0.740
  932TIP3   OH2 2680   4.782   3.765   0.912
  932TIP3    H1 2681   4.766   3.855   0.882
  932TIP3    H2 2682   4.704   3.743   0.963
  933TIP3   OH2 2683   4.206   3.491   0.195
  933TIP3    H1 2684   4.175   3.513   0.107
  933TIP3    H2 2685   4.223   3.576   0.236
  934TIP3   OH2 2686   5.593   3.978   0.404
  934TIP3    H1 2687   5.507   3.967   0.445
  934TIP3    H2 2688   5.586   4.060   0.355
  935TIP3   OH2 2689   5.908   2.859   0.781
  935TIP3    H1 2690   5.820   2.866   0.744
  935TIP3    H2 2691   5.967   2.877   0.708
  936TIP3   OH2 2692   5.201   2.478   0.773
  936TIP3    H1 2693   5.196   2.385   0.797
  936TIP3    H2 2694   5.124   2.517   0.815
  937TIP3   OH2 2695   5.308   4.002   0.106
  937TIP3    H1 2696   5.368   3.930   0.085
  937TIP3    H2 2697   5.265   4.022   0.023
  938TIP3   OH2 2698   5.471   3.802   0.020
  938TIP3    H1 2699   5.472   3.729  -0.042
  938TIP3    H2 2700   5.510   3.766   0.100
  939TIP3   OH2 2701   5.838   3.851   0.747
  939TIP3    H1 2702   5.817   3.777   0.691
  939TIP3    H2 2703   5.823   3.928   0.693
  940TIP3   OH2 2704   8.384   7.880   8.020
  940TIP3    H1 2705   8.307   7.935   8.008
  940TIP3    H2 2706   8.420   7.869   7.932
  941TIP3   OH2 2707   8.371   7.647   7.765
  941TIP3    H1 2708   8.447   7.705   7.773
  941TIP3    H2 2709   8.408   7.561   7.748
  942TIP3   OH2 2710   6.012   3.519   0.615
  942TIP3    H1 2711   5.927   3.562   0.611
  942TIP3    H2 2712   6.048   3.529   0.527
  943TIP3   OH2 2713   5.478   3.328  -0.006
  943TIP3    H1 2714   5.424   3.354   0.069
  943TIP3    H2 2715   5.564   3.308   0.033
  944TIP3   OH2 2716   5.713   3.378   0.927
  944TIP3    H1 2717   5.706   3.460   0.975
  944TIP3    H2 2718   5.632   3.372   0.876
  945TIP3   OH2 2719   4.712   3.330   0.392
  945TIP3    H1 2720   4.676   3.267   0.330
  945TIP3    H2 2721   4.787   3.285   0.431
  946TIP3   OH2 2722   4.845   3.754   0.526
  946TIP3    H1 2723   4.818   3.739   0.436
  946TIP3    H2 2724   4.932   3.714   0.533
  947TIP3   OH2 2725   4.802   3.330   0.766
  947TIP3    H1 2726   4.843   3.293   0.688
  947TIP3    H2 2727   4.850   3.411   0.782
  948TIP3   OH2 2728   5.362   3.967   0.548
  948TIP3    H1 2729   5.353   4.043   0.606
  948TIP3    H2 2730   5.348   3.891   0.604
  949TIP3   OH2 2731   4.980   3.860   1.081
  949TIP3    H1 2732   4.919   3.917   1.128
  949TIP3    H2 2733   4.925   3.808   1.023
  950TIP3   OH2 2734   8.582   7.837   7.806
  950TIP3    H1 2735   8.638   7.883   7.869
  950TIP3    H2 2736   8.577   7.896   7.731
  951TIP3   OH2 2737   4.734   3.406   1.231
  951TIP3    H1 2738   4.737   3.500   1.247
  951TIP3    H2 2739   4.640   3.385   1.225
  952TIP3   OH2 2740   5.060   3.863   0.105
  952TIP3    H1 2741   5.142   3.906   0.132
  952TIP3    H2 2742   5.032   3.911   0.027
  953TIP3   OH2 2743   4.770   4.018   1.167
  953TIP3    H1 2744   4.743   4.027   1.076
  953TIP3    H2 2745   4.688   4.002   1.215
  954TIP3   OH2 2746   9.055   7.061   7.884
  954TIP3    H1 2747   8.979   7.075   7.941
  954TIP3    H2 2748   9.052   7.134   7.822
  955TIP3   OH2 2749   4.581   3.169   0.201
  955TIP3    H1 2750   4.528   3.236   0.158
  955TIP3    H2 2751   4.518   3.103   0.229
  956TIP3   OH2 2752   4.367   3.575   1.118
  956TIP3    H1 2753   4.298   3.557   1.055
  956TIP3    H2 2754   4.399   3.488   1.144
  957TIP3   OH2 2755   4.221   3.761   0.758
  957TIP3    H1 2756   4.316   3.773   0.762
  957TIP3    H2 2757   4.185   3.837   0.805
  958TIP3   OH2 2758   6.070   4.225   0.826
  958TIP3    H1 2759   6.074   4.129   0.835
  958TIP3    H2 2760   5.989   4.249   0.872
  959TIP3   OH2 2761   5.170   4.005   0.946
  959TIP3    H1 2762   5.159   4.096   0.976
  959TIP3    H2 2763   5.103   3.957   0.995
  960TIP3   OH2 2764   8.180   8.765   7.845
  960TIP3    H1 2765   8.098   8.719   7.826
  960TIP3    H2 2766   8.152   8.846   7.890
  961TIP3   OH2 2767   4.391   3.974   0.285
  961TIP3    H1 2768   4.437   3.964   0.368
  961TIP3    H2 2769   4.341   3.892   0.275
  962TIP3   OH2 2770   8.433   8.672   7.882
  962TIP3    H1 2771   8.347   8.712   7.868
  962TIP3    H2 2772   8.447   8.618   7.804
  963TIP3   OH2 2773   5.955   3.329   1.081
  963TIP3    H1 2774   5.873   3.338   1.031
  963TIP3    H2 2775   5.972   3.235   1.082
  964TIP3   OH2 2776   4.563   3.764   1.083
  964TIP3    H1 2777   4.615   3.752   1.162
  964TIP3    H2 2778   4.493   3.700   1.090
  965TIP3   OH2 2779   4.966   2.572   0.902
  965TIP3    H1 2780   4.883   2.536   0.872
  965TIP3    H2 2781   4.942   2.653   0.948
  966TIP3   OH2 2782   5.488   2.695   1.104
  966TIP3    H1 2783   5.557   2.667   1.164
  966TIP3    H2 2784   5.406   2.676   1.150
  967TIP3   OH2 2785   5.711   3.114   1.025
  967TIP3    H1 2786   5.672   3.114   1.112
  967TIP3    H2 2787   5.694   3.202   0.991
  968TIP3   OH2 2788   8.402   7.283   7.868
  968TIP3    H1 2789   8.378   7.251   7.955
  968TIP3    H2 2790   8.318   7.289   7.821
  969TIP3   OH2 2791   4.895   3.112   0.913
  969TIP3    H1 2792   4.848   3.115   0.996
  969TIP3    H2 2793   4.872   3.194   0.869
  970TIP3   OH2 2794   4.788   2.998   0.439
  970TIP3    H1 2795   4.702   2.969   0.470
  970TIP3    H2 2796   4.792   2.969   0.348
  971TIP3   OH2 2797   5.242   3.055   0.155
  971TIP3    H1 2798   5.193   3.126   0.113
  971TIP3    H2 2799   5.300   3.023   0.086
  972TIP3   OH2 2800   5.425   3.321   1.228
  972TIP3    H1 2801   5.402   3.252   1.290
  972TIP3    H2 2802   5.517   3.341   1.247
  973TIP3   OH2 2803   5.404   3.073   0.387
  973TIP3    H1 2804   5.339   3.099   0.321
  973TIP3    H2 2805   5.448   2.998   0.348
  974TIP3   OH2 2806   4.729   3.118   1.131
  974TIP3    H1 2807   4.735   3.181   1.203
  974TIP3    H2 2808   4.709   3.034   1.174
  975TIP3   OH2 2809   8.122   7.263   7.852
  975TIP3    H1 2810   8.099   7.208   7.777
  975TIP3    H2 2811   8.051   7.327   7.857
  976TIP3   OH2 2812   4.312   2.770   0.786
  976TIP3    H1 2813   4.403   2.751   0.809
  976TIP3    H2 2814   4.308   2.758   0.691
  977TIP3   OH2 2815   4.275   2.631   0.247
  977TIP3    H1 2816   4.337   2.697   0.216
  977TIP3    H2 2817   4.201   2.637   0.186
  978TIP3   OH2 2818   5.467   3.320   0.802
  978TIP3    H1 2819   5.493   3.252   0.740
  978TIP3    H2 2820   5.420   3.273   0.870
  979TIP3   OH2 2821   5.150   2.779   0.486
  979TIP3    H1 2822   5.073   2.779   0.543
  979TIP3    H2 2823   5.223   2.764   0.546
  980TIP3   OH2 2824   4.563   2.860   0.503
  980TIP3    H1 2825   4.488   2.869   0.444
  980TIP3    H2 2826   4.593   2.771   0.489
  981TIP3   OH2 2827   4.791   2.865   0.198
  981TIP3    H1 2828   4.887   2.870   0.198
  981TIP3    H2 2829   4.766   2.883   0.107
  982TIP3   OH2 2830   5.608   2.862   0.716
  982TIP3    H1 2831   5.564   2.880   0.799
  982TIP3    H2 2832   5.553   2.797   0.672
  983TIP3   OH2 2833   7.955   7.506   7.951
  983TIP3    H1 2834   7.863   7.496   7.929
  983TIP3    H2 2835   7.994   7.550   7.875
  984TIP3   OH2 2836   5.767   4.560   0.914
  984TIP3    H1 2837   5.765   4.566   0.818
  984TIP3    H2 2838   5.847   4.606   0.939
  985TIP3   OH2 2839   4.719   3.676   1.315
  985TIP3    H1 2840   4.799   3.694   1.363
  985TIP3    H2 2841   4.649   3.684   1.381
  986TIP3   OH2 2842   5.189   3.150   0.587
  986TIP3    H1 2843   5.252   3.101   0.534
  986TIP3    H2 2844   5.186   3.103   0.670
  987TIP3   OH2 2845   4.701   2.623   0.481
  987TIP3    H1 2846   4.665   2.546   0.525
  987TIP3    H2 2847   4.734   2.591   0.398
  988TIP3   OH2 2848   5.155   3.045   0.848
  988TIP3    H1 2849   5.068   3.077   0.872
  988TIP3    H2 2850   5.216   3.097   0.900
  989TIP3   OH2 2851   8.153   8.036   7.965
  989TIP3    H1 2852   8.088   7.970   7.944
  989TIP3    H2 2853   8.129   8.068   8.052
  990TIP3   OH2 2854   5.776   3.653   0.567
  990TIP3    H1 2855   5.812   3.701   0.492
  990TIP3    H2 2856   5.697   3.611   0.533
  991TIP3   OH2 2857   8.668   7.344   7.855
  991TIP3    H1 2858   8.578   7.315   7.843
  991TIP3    H2 2859   8.660   7.438   7.874
  992TIP3   OH2 2860   5.304   3.739   0.983
  992TIP3    H1 2861   5.352   3.724   1.064
  992TIP3    H2 2862   5.261   3.824   0.996
  993TIP3   OH2 2863   8.680   7.607   7.942
  993TIP3    H1 2864   8.774   7.612   7.960
  993TIP3    H2 2865   8.662   7.684   7.887
  994TIP3   OH2 2866   4.576   3.417   0.615
  994TIP3    H1 2867   4.615   3.397   0.530
  994TIP3    H2 2868   4.641   3.388   0.679
  995TIP3   OH2 2869   8.326   8.192   7.817
  995TIP3    H1 2870   8.278   8.272   7.795
  995TIP3    H2 2871   8.263   8.138   7.865
  996TIP3   OH2 2872   4.461   3.341   1.251
  996TIP3    H1 2873   4.461   3.314   1.343
  996TIP3    H2 2874   4.386   3.296   1.213
  997TIP3   OH2 2875   5.199   3.481   1.270
  997TIP3    H1 2876   5.128   3.422   1.245
  997TIP3    H2 2877   5.279   3.437   1.240
  998TIP3   OH2 2878   5.440   4.030   0.871
  998TIP3    H1 2879   5.346   4.012   0.875
  998TIP3    H2 2880   5.462   4.062   0.958
  999TIP3   OH2 2881   9.081   7.687   7.792
  999TIP3    H1 2882   9.045   7.631   7.723
  999TIP3    H2 2883   9.056   7.776   7.766
 1000TIP3   OH2 2884   6.080   3.949   0.837
 1000TIP3    H1 2885   5.988   3.926   0.837
 1000TIP3    H2 2886   6.114   3.914   0.755
 1001TIP3   OH2 2887   5.548   3.518   0.465
 1001TIP3    H1 2888   5.458   3.496   0.491
 1001TIP3    H2 2889   5.583   3.437   0.428
 1002TIP3   OH2 2890   4.699   3.754   0.286
 1002TIP3    H1 2891   4.699   3.832   0.231
 1002TIP3    H2 2892   4.606   3.733   0.299
 1003TIP3   OH2 2893   7.600   7.726   7.955
 1003TIP3    H1 2894   7.645   7.810   7.969
 1003TIP3    H2 2895   7.540   7.719   8.029
 1004TIP3   OH2 2896   4.794   3.510   0.197
 1004TIP3    H1 2897   4.774   3.599   0.227
 1004TIP3    H2 2898   4.766   3.454   0.269
 1005TIP3   OH2 2899   4.986   4.074   0.741
 1005TIP3    H1 2900   5.025   4.145   0.690
 1005TIP3    H2 2901   5.059   4.039   0.792
 1006TIP3   OH2 2902   4.624   3.984   0.141
 1006TIP3    H1 2903   4.536   3.989   0.178
 1006TIP3    H2 2904   4.658   4.073   0.147
 1007TIP3   OH2 2905   5.334   3.739   0.708
 1007TIP3    H1 2906   5.325   3.735   0.803
 1007TIP3    H2 2907   5.397   3.670   0.687
 1008TIP3   OH2 2908   5.602   4.227   0.755
 1008TIP3    H1 2909   5.533   4.166   0.780
 1008TIP3    H2 2910   5.562   4.282   0.688
 1009TIP3   OH2 2911   4.673   2.864   1.246
 1009TIP3    H1 2912   4.579   2.880   1.250
 1009TIP3    H2 2913   4.690   2.806   1.320
 1010TIP3   OH2 2914   8.772   8.194   7.864
 1010TIP3    H1 2915   8.747   8.114   7.910
 1010TIP3    H2 2916   8.855   8.172   7.821
 1011TIP3   OH2 2917   4.414   3.963   0.905
 1011TIP3    H1 2918   4.463   3.897   0.953
 1011TIP3    H2 2919   4.429   4.044   0.953
 1012TIP3   OH2 2920   7.983   8.227   7.624
 1012TIP3    H1 2921   7.957   8.147   7.579
 1012TIP3    H2 2922   7.944   8.220   7.711
 1013TIP3   OH2 2923   7.918   8.239   7.896
 1013TIP3    H1 2924   7.990   8.198   7.944
 1013TIP3    H2 2925   7.935   8.333   7.904
 1014TIP3   OH2 2926   4.410   3.344   0.076
 1014TIP3    H1 2927   4.342   3.383   0.131
 1014TIP3    H2 2928   4.417   3.403   0.001
 1015TIP3   OH2 2929   5.507   2.931   0.966
 1015TIP3    H1 2930   5.591   2.970   0.991
 1015TIP3    H2 2931   5.502   2.851   1.017
 1016TIP3   OH2 2932   5.399   2.673   0.132
 1016TIP3    H1 2933   5.396   2.690   0.038
 1016TIP3    H2 2934   5.441   2.750   0.169
 1017TIP3   OH2 2935   8.164   8.400   7.748
 1017TIP3    H1 2936   8.100   8.448   7.801
 1017TIP3    H2 2937   8.111   8.352   7.684
 1018TIP3   OH2 2938   5.064   2.860   0.234
 1018TIP3    H1 2939   5.124   2.928   0.204
 1018TIP3    H2 2940   5.093   2.840   0.323
 1019TIP3   OH2 2941   5.355   3.165   0.999
 1019TIP3    H1 2942   5.378   3.205   1.082
 1019TIP3    H2 2943   5.403   3.082   0.999
 1020TIP3   OH2 2944   5.231   2.569   0.322
 1020TIP3    H1 2945   5.211   2.645   0.377
 1020TIP3    H2 2946   5.298   2.600   0.262
 1021TIP3   OH2 2947   7.962   8.513   7.895
 1021TIP3    H1 2948   7.908   8.564   7.835
 1021TIP3    H2 2949   7.936   8.544   7.982
 1022TIP3   OH2 2950   4.773   2.589   0.220
 1022TIP3    H1 2951   4.777   2.684   0.209
 1022TIP3    H2 2952   4.852   2.557   0.177
 1023TIP3   OH2 2953   5.971   3.045   0.992
 1023TIP3    H1 2954   5.878   3.061   1.009
 1023TIP3    H2 2955   5.972   2.985   0.918
 1024TIP3   OH2 2956   5.637   3.259   0.383
 1024TIP3    H1 2957   5.558   3.206   0.396
 1024TIP3    H2 2958   5.703   3.218   0.438
 1025TIP3   OH2 2959   7.675   8.122   7.851
 1025TIP3    H1 2960   7.748   8.180   7.871
 1025TIP3    H2 2961   7.711   8.061   7.786
 1026TIP3   OH2 2962   7.681   7.467   7.966
 1026TIP3    H1 2963   7.661   7.560   7.955
 1026TIP3    H2 2964   7.602   7.422   7.934
 1027TIP3   OH2 2965   5.598   4.252   0.322
 1027TIP3    H1 2966   5.555   4.306   0.255
 1027TIP3    H2 2967   5.691   4.272   0.311
 1028TIP3   OH2 2968   4.707   2.483   0.871
 1028TIP3    H1 2969   4.684   2.448   0.784
 1028TIP3    H2 2970   4.699   2.407   0.929
 1029TIP3   OH2 2971   4.228   3.751   0.282
 1029TIP3    H1 2972   4.185   3.786   0.360
 1029TIP3    H2 2973   4.178   3.787   0.209
 1030TIP3   OH2 2974   4.411   4.272   1.326
 1030TIP3    H1 2975   4.495   4.273   1.372
 1030TIP3    H2 2976   4.388   4.180   1.318
 1031TIP3   OH2 2977   4.880   4.181   1.359
 1031TIP3    H1 2978   4.970   4.149   1.369
 1031TIP3    H2 2979   4.844   4.128   1.288
 1032TIP3   OH2 2980   5.496   4.122   1.123
 1032TIP3    H1 2981   5.512   4.051   1.185
 1032TIP3    H2 2982   5.570   4.182   1.135
 1033TIP3   OH2 2983   4.516   3.680   1.508
 1033TIP3    H1 2984   4.534   3.587   1.520
 1033TIP3    H2 2985   4.430   3.683   1.466
 1034TIP3   OH2 2986   7.836   7.953   7.706
 1034TIP3    H1 2987   7.885   7.909   7.775
 1034TIP3    H2 2988   7.816   7.884   7.643
 1035TIP3   OH2 2989   5.135   3.756   1.285
 1035TIP3    H1 2990   5.090   3.776   1.203
 1035TIP3    H2 2991   5.169   3.668   1.272
 1036TIP3   OH2 2992   8.360   8.106   7.552
 1036TIP3    H1 2993   8.362   8.147   7.638
 1036TIP3    H2 2994   8.277   8.058   7.551
 1037TIP3   OH2 2995   5.616   3.808   0.910
 1037TIP3    H1 2996   5.691   3.832   0.856
 1037TIP3    H2 2997   5.549   3.872   0.889
 1038TIP3   OH2 2998   4.629   3.426   1.518
 1038TIP3    H1 2999   4.704   3.401   1.463
 1038TIP3    H2 3000   4.667   3.441   1.604
 1039TIP3   OH2 3001   7.975   7.829   7.919
 1039TIP3    H1 3002   7.948   7.788   8.001
 1039TIP3    H2 3003   8.019   7.759   7.871
 1040TIP3   OH2 3004   4.994   3.306   1.182
 1040TIP3    H1 3005   4.906   3.343   1.191
 1040TIP3    H2 3006   5.021   3.331   1.093
 1041TIP3   OH2 3007   8.096   7.636   7.758
 1041TIP3    H1 3008   8.080   7.595   7.673
 1041TIP3    H2 3009   8.191   7.645   7.762
 1042TIP3   OH2 3010   5.493   3.675   1.250
 1042TIP3    H1 3011   5.563   3.637   1.197
 1042TIP3    H2 3012   5.489   3.619   1.328
 1043TIP3   OH2 3013   5.096   3.071   1.282
 1043TIP3    H1 3014   5.099   3.002   1.216
 1043TIP3    H2 3015   5.061   3.147   1.235
 1044TIP3   OH2 3016   5.109   2.874   1.079
 1044TIP3    H1 3017   5.136   2.909   0.994
 1044TIP3    H2 3018   5.019   2.846   1.067
 1045TIP3   OH2 3019   5.100   3.394   0.948
 1045TIP3    H1 3020   5.191   3.416   0.929
 1045TIP3    H2 3021   5.048   3.457   0.898
 1046TIP3   OH2 3022   5.694   3.357   1.321
 1046TIP3    H1 3023   5.707   3.262   1.319
 1046TIP3    H2 3024   5.781   3.394   1.306
 1047TIP3   OH2 3025   5.730   3.622   1.072
 1047TIP3    H1 3026   5.679   3.687   1.023
 1047TIP3    H2 3027   5.820   3.633   1.041
 1048TIP3   OH2 3028   4.982   3.150   1.527
 1048TIP3    H1 3029   4.912   3.088   1.547
 1048TIP3    H2 3030   5.009   3.128   1.438
 1049TIP3   OH2 3031   5.225   2.641   1.185
 1049TIP3    H1 3032   5.186   2.721   1.150
 1049TIP3    H2 3033   5.159   2.574   1.171
 1050TIP3   OH2 3034   5.351   3.108   1.385
 1050TIP3    H1 3035   5.340   3.095   1.479
 1050TIP3    H2 3036   5.266   3.087   1.347
 1051TIP3   OH2 3037   5.609   3.086   1.273
 1051TIP3    H1 3038   5.527   3.073   1.321
 1051TIP3    H2 3039   5.676   3.045   1.328
 1052TIP3   OH2 3040   5.840   3.023   1.413
 1052TIP3    H1 3041   5.852   2.928   1.419
 1052TIP3    H2 3042   5.835   3.052   1.504
 1053TIP3   OH2 3043   4.815   2.930   1.588
 1053TIP3    H1 3044   4.819   2.842   1.552
 1053TIP3    H2 3045   4.854   2.922   1.675
 1054TIP3   OH2 3046   5.290   2.614   1.449
 1054TIP3    H1 3047   5.358   2.547   1.442
 1054TIP3    H2 3048   5.260   2.628   1.359
 1055TIP3   OH2 3049   5.388   2.829   1.593
 1055TIP3    H1 3050   5.357   2.756   1.539
 1055TIP3    H2 3051   5.316   2.891   1.594
 1056TIP3   OH2 3052   7.830   8.665   7.712
 1056TIP3    H1 3053   7.849   8.676   7.619
 1056TIP3    H2 3054   7.738   8.638   7.715
 1057TIP3   OH2 3055   7.412   8.146   7.929
 1057TIP3    H1 3056   7.499   8.149   7.889
 1057TIP3    H2 3057   7.383   8.056   7.916
 1058TIP3   OH2 3058   4.008   4.055   0.337
 1058TIP3    H1 3059   3.946   4.003   0.286
 1058TIP3    H2 3060   4.049   3.992   0.397
 1059TIP3   OH2 3061   4.147   3.887   0.512
 1059TIP3    H1 3062   4.136   3.818   0.577
 1059TIP3    H2 3063   4.200   3.954   0.556
 1060TIP3   OH2 3064   5.859   4.337   0.325
 1060TIP3    H1 3065   5.897   4.324   0.411
 1060TIP3    H2 3066   5.932   4.326   0.264
 1061TIP3   OH2 3067   5.923   4.300   0.596
 1061TIP3    H1 3068   5.876   4.217   0.589
 1061TIP3    H2 3069   5.991   4.283   0.662
 1062TIP3   OH2 3070   5.968   4.020   1.165
 1062TIP3    H1 3071   5.897   4.029   1.229
 1062TIP3    H2 3072   6.014   4.104   1.170
 1063TIP3   OH2 3073   9.028   8.121   7.782
 1063TIP3    H1 3074   9.078   8.200   7.765
 1063TIP3    H2 3075   9.080   8.073   7.846
 1064TIP3   OH2 3076   5.913   3.371  -0.028
 1064TIP3    H1 3077   5.847   3.336   0.031
 1064TIP3    H2 3078   5.976   3.415   0.030
 1065TIP3   OH2 3079   5.966   3.789   0.408
 1065TIP3    H1 3080   6.016   3.717   0.370
 1065TIP3    H2 3081   5.982   3.863   0.350
 1066TIP3   OH2 3082   5.769   4.072   0.597
 1066TIP3    H1 3083   5.704   4.117   0.650
 1066TIP3    H2 3084   5.720   4.034   0.524
 1067TIP3   OH2 3085   5.714   3.242   0.118
 1067TIP3    H1 3086   5.713   3.147   0.107
 1067TIP3    H2 3087   5.694   3.256   0.211
 1068TIP3   OH2 3088   4.329   3.316   0.889
 1068TIP3    H1 3089   4.321   3.282   0.800
 1068TIP3    H2 3090   4.422   3.309   0.909
 1069TIP3   OH2 3091   5.986   3.662   0.971
 1069TIP3    H1 3092   6.054   3.597   0.958
 1069TIP3    H2 3093   5.986   3.715   0.891
 1070TIP3   OH2 3094   6.169   3.455   0.965
 1070TIP3    H1 3095   6.094   3.411   1.006
 1070TIP3    H2 3096   6.243   3.399   0.987
 1071TIP3   OH2 3097   8.879   7.406   7.669
 1071TIP3    H1 3098   8.953   7.344   7.676
 1071TIP3    H2 3099   8.809   7.366   7.721
 1072TIP3   OH2 3100   8.959   7.589   8.020
 1072TIP3    H1 3101   8.998   7.502   8.035
 1072TIP3    H2 3102   9.007   7.623   7.944
 1073TIP3   OH2 3103   5.855   3.138   0.519
 1073TIP3    H1 3104   5.937   3.158   0.473
 1073TIP3    H2 3105   5.868   3.173   0.607
 1074TIP3   OH2 3106   5.931   3.289   0.748
 1074TIP3    H1 3107   5.857   3.315   0.802
 1074TIP3    H2 3108   5.959   3.369   0.705
 1075TIP3   OH2 3109   4.553   2.999   1.536
 1075TIP3    H1 3110   4.647   2.991   1.550
 1075TIP3    H2 3111   4.516   2.918   1.571
 1076TIP3   OH2 3112   6.388   2.891   1.282
 1076TIP3    H1 3113   6.452   2.833   1.241
 1076TIP3    H2 3114   6.348   2.938   1.210
 1077TIP3   OH2 3115   5.797   2.717   0.075
 1077TIP3    H1 3116   5.845   2.708   0.157
 1077TIP3    H2 3117   5.735   2.644   0.075
 1078TIP3   OH2 3118   4.558   2.714   0.879
 1078TIP3    H1 3119   4.606   2.632   0.889
 1078TIP3    H2 3120   4.625   2.779   0.859
 1079TIP3   OH2 3121   4.328   2.996   0.956
 1079TIP3    H1 3122   4.335   2.936   0.882
 1079TIP3    H2 3123   4.390   3.067   0.936
 1080TIP3   OH2 3124   6.235   2.996   1.079
 1080TIP3    H1 3125   6.149   3.034   1.094
 1080TIP3    H2 3126   6.217   2.917   1.028
 1081TIP3   OH2 3127   9.121   7.266   7.708
 1081TIP3    H1 3128   9.180   7.220   7.648
 1081TIP3    H2 3129   9.180   7.311   7.769
 1082TIP3   OH2 3130   4.269   2.703   0.516
 1082TIP3    H1 3131   4.245   2.622   0.562
 1082TIP3    H2 3132   4.273   2.678   0.424
 1083TIP3   OH2 3133   8.694   8.884   7.973
 1083TIP3    H1 3134   8.697   8.788   7.970
 1083TIP3    H2 3135   8.782   8.912   7.950
 1084TIP3   OH2 3136   4.521   2.539   1.270
 1084TIP3    H1 3137   4.472   2.531   1.352
 1084TIP3    H2 3138   4.463   2.589   1.213
 1085TIP3   OH2 3139   4.550   3.991   1.336
 1085TIP3    H1 3140   4.456   3.975   1.326
 1085TIP3    H2 3141   4.567   3.974   1.428
 1086TIP3   OH2 3142   4.755   4.041   0.886
 1086TIP3    H1 3143   4.705   4.116   0.854
 1086TIP3    H2 3144   4.840   4.049   0.843
 1087TIP3   OH2 3145   5.151   4.272   1.026
 1087TIP3    H1 3146   5.189   4.262   1.113
 1087TIP3    H2 3147   5.214   4.326   0.978
 1088TIP3   OH2 3148   5.340   4.427   0.897
 1088TIP3    H1 3149   5.397   4.372   0.844
 1088TIP3    H2 3150   5.399   4.481   0.950
 1089TIP3   OH2 3151   6.153   2.740   0.985
 1089TIP3    H1 3152   6.064   2.721   0.958
 1089TIP3    H2 3153   6.199   2.656   0.981
 1090TIP3   OH2 3154   4.419   4.295   0.930
 1090TIP3    H1 3155   4.326   4.312   0.912
 1090TIP3    H2 3156   4.441   4.356   1.000
 1091TIP3   OH2 3157   4.648   4.273   0.783
 1091TIP3    H1 3158   4.566   4.279   0.831
 1091TIP3    H2 3159   4.625   4.293   0.692
 1092TIP3   OH2 3160   5.066   4.283   0.576
 1092TIP3    H1 3161   4.992   4.291   0.516
 1092TIP3    H2 3162   5.073   4.368   0.618
 1093TIP3   OH2 3163   5.330   4.233   0.638
 1093TIP3    H1 3164   5.239   4.246   0.613
 1093TIP3    H2 3165   5.379   4.295   0.583
 1094TIP3   OH2 3166   5.538   4.404   0.542
 1094TIP3    H1 3167   5.515   4.489   0.504
 1094TIP3    H2 3168   5.559   4.349   0.467
 1095TIP3   OH2 3169   4.330   4.058   0.657
 1095TIP3    H1 3170   4.356   4.032   0.745
 1095TIP3    H2 3171   4.401   4.026   0.600
 1096TIP3   OH2 3172   4.535   3.949   0.517
 1096TIP3    H1 3173   4.545   3.863   0.556
 1096TIP3    H2 3174   4.623   3.987   0.519
 1097TIP3   OH2 3175   4.804   4.030   0.535
 1097TIP3    H1 3176   4.821   3.938   0.516
 1097TIP3    H2 3177   4.858   4.049   0.612
 1098TIP3   OH2 3178   5.380   2.664   0.610
 1098TIP3    H1 3179   5.338   2.595   0.660
 1098TIP3    H2 3180   5.447   2.619   0.558
 1099TIP3   OH2 3181   5.848   2.654   0.521
 1099TIP3    H1 3182   5.889   2.655   0.435
 1099TIP3    H2 3183   5.766   2.606   0.508
 1100TIP3   OH2 3184   5.982   2.692   0.278
 1100TIP3    H1 3185   6.038   2.617   0.260
 1100TIP3    H2 3186   6.033   2.768   0.247
 1101TIP3   OH2 3187   4.596   2.411   0.614
 1101TIP3    H1 3188   4.522   2.386   0.670
 1101TIP3    H2 3189   4.658   2.339   0.622
 1102TIP3   OH2 3190   4.322   2.262   0.267
 1102TIP3    H1 3191   4.352   2.311   0.190
 1102TIP3    H2 3192   4.323   2.326   0.338
 1103TIP3   OH2 3193   5.079   2.432   0.519
 1103TIP3    H1 3194   5.128   2.475   0.449
 1103TIP3    H2 3195   5.124   2.458   0.599
 1104TIP3   OH2 3196   5.591   2.521   0.486
 1104TIP3    H1 3197   5.642   2.495   0.409
 1104TIP3    H2 3198   5.587   2.443   0.540
 1105TIP3   OH2 3199   5.616   2.507   0.086
 1105TIP3    H1 3200   5.535   2.553   0.107
 1105TIP3    H2 3201   5.607   2.422   0.127
 1106TIP3   OH2 3202   4.092   3.862   0.079
 1106TIP3    H1 3203   4.023   3.814   0.033
 1106TIP3    H2 3204   4.088   3.950   0.042
 1107TIP3   OH2 3205   7.814   7.127   7.967
 1107TIP3    H1 3206   7.733   7.077   7.975
 1107TIP3    H2 3207   7.826   7.167   8.054
 1108TIP3   OH2 3208   5.040   2.605   0.124
 1108TIP3    H1 3209   5.100   2.566   0.188
 1108TIP3    H2 3210   5.042   2.698   0.144
 1109TIP3   OH2 3211   4.828   2.657   1.506
 1109TIP3    H1 3212   4.795   2.588   1.563
 1109TIP3    H2 3213   4.920   2.667   1.531
 1110TIP3   OH2 3214   5.076   2.668   1.626
 1110TIP3    H1 3215   5.153   2.645   1.573
 1110TIP3    H2 3216   5.070   2.597   1.690
 1111TIP3   OH2 3217   7.571   8.574   7.708
 1111TIP3    H1 3218   7.508   8.594   7.777
 1111TIP3    H2 3219   7.526   8.510   7.652
 1112TIP3   OH2 3220   5.897   2.752   1.410
 1112TIP3    H1 3221   5.915   2.723   1.499
 1112TIP3    H2 3222   5.982   2.749   1.366
 1113TIP3   OH2 3223   5.818   4.289   0.920
 1113TIP3    H1 3224   5.746   4.255   0.866
 1113TIP3    H2 3225   5.800   4.382   0.930
 1114TIP3   OH2 3226   7.010   3.647   0.107
 1114TIP3    H1 3227   7.089   3.647   0.161
 1114TIP3    H2 3228   6.993   3.554   0.091
 1115TIP3   OH2 3229   6.392   3.527   0.418
 1115TIP3    H1 3230   6.420   3.477   0.495
 1115TIP3    H2 3231   6.474   3.549   0.373
 1116TIP3   OH2 3232   6.331   3.958   0.167
 1116TIP3    H1 3233   6.327   3.864   0.151
 1116TIP3    H2 3234   6.415   3.972   0.211
 1117TIP3   OH2 3235   9.333   7.766   7.901
 1117TIP3    H1 3236   9.295   7.850   7.925
 1117TIP3    H2 3237   9.260   7.715   7.866
 1118TIP3   OH2 3238   6.136   3.470   0.113
 1118TIP3    H1 3239   6.186   3.393   0.137
 1118TIP3    H2 3240   6.202   3.537   0.093
 1119TIP3   OH2 3241   6.902   3.895   0.094
 1119TIP3    H1 3242   6.932   3.805   0.082
 1119TIP3    H2 3243   6.979   3.943   0.125
 1120TIP3   OH2 3244   7.260   3.383   0.087
 1120TIP3    H1 3245   7.282   3.297   0.124
 1120TIP3    H2 3246   7.333   3.403   0.029
 1121TIP3   OH2 3247   6.637   3.053   0.107
 1121TIP3    H1 3248   6.628   3.122   0.041
 1121TIP3    H2 3249   6.591   2.978   0.069
 1122TIP3   OH2 3250   6.276   3.250   0.200
 1122TIP3    H1 3251   6.356   3.233   0.250
 1122TIP3    H2 3252   6.286   3.197   0.121
 1123TIP3   OH2 3253   6.708   3.447   0.037
 1123TIP3    H1 3254   6.801   3.426   0.045
 1123TIP3    H2 3255   6.668   3.368   0.001
 1124TIP3   OH2 3256   7.960   3.614   0.225
 1124TIP3    H1 3257   7.866   3.605   0.207
 1124TIP3    H2 3258   7.966   3.616   0.320
 1125TIP3   OH2 3259   6.634   3.040   0.535
 1125TIP3    H1 3260   6.582   3.079   0.465
 1125TIP3    H2 3261   6.583   3.055   0.614
 1126TIP3   OH2 3262   6.738   3.821   0.303
 1126TIP3    H1 3263   6.676   3.889   0.329
 1126TIP3    H2 3264   6.791   3.861   0.235
 1127TIP3   OH2 3265   6.510   3.160   0.320
 1127TIP3    H1 3266   6.566   3.233   0.345
 1127TIP3    H2 3267   6.557   3.117   0.249
 1128TIP3   OH2 3268   6.552   4.005   0.389
 1128TIP3    H1 3269   6.550   4.099   0.372
 1128TIP3    H2 3270   6.481   3.991   0.453
 1129TIP3   OH2 3271   7.545   3.260   0.082
 1129TIP3    H1 3272   7.470   3.212   0.116
 1129TIP3    H2 3273   7.618   3.199   0.090
 1130TIP3   OH2 3274   6.966   2.745   0.260
 1130TIP3    H1 3275   6.968   2.654   0.289
 1130TIP3    H2 3276   6.887   2.781   0.300
 1131TIP3   OH2 3277   7.638   4.139   0.198
 1131TIP3    H1 3278   7.626   4.078   0.126
 1131TIP3    H2 3279   7.609   4.224   0.163
 1132TIP3   OH2 3280   7.478   3.632   0.390
 1132TIP3    H1 3281   7.487   3.716   0.436
 1132TIP3    H2 3282   7.390   3.635   0.353
 1133TIP3   OH2 3283   9.770   8.221   7.933
 1133TIP3    H1 3284   9.767   8.200   7.840
 1133TIP3    H2 3285   9.845   8.171   7.966
 1134TIP3   OH2 3286   6.649   3.983   0.031
 1134TIP3    H1 3287   6.613   3.905  -0.012
 1134TIP3    H2 3288   6.741   3.962   0.046
 1135TIP3   OH2 3289   6.612   3.582   0.262
 1135TIP3    H1 3290   6.649   3.546   0.182
 1135TIP3    H2 3291   6.660   3.663   0.276
 1136TIP3   OH2 3292   6.764   4.108   0.564
 1136TIP3    H1 3293   6.706   4.166   0.612
 1136TIP3    H2 3294   6.706   4.053   0.512
 1137TIP3   OH2 3295   6.527   3.667   0.713
 1137TIP3    H1 3296   6.529   3.761   0.731
 1137TIP3    H2 3297   6.434   3.646   0.708
 1138TIP3   OH2 3298   6.561   4.274   0.659
 1138TIP3    H1 3299   6.533   4.278   0.567
 1138TIP3    H2 3300   6.480   4.257   0.707
 1139TIP3   OH2 3301   6.162   3.830   0.606
 1139TIP3    H1 3302   6.093   3.812   0.542
 1139TIP3    H2 3303   6.195   3.744   0.632
 1140TIP3   OH2 3304   6.070   4.006   0.263
 1140TIP3    H1 3305   6.152   3.986   0.217
 1140TIP3    H2 3306   6.092   4.078   0.321
 1141TIP3   OH2 3307   7.822   4.436   0.365
 1141TIP3    H1 3308   7.856   4.351   0.337
 1141TIP3    H2 3309   7.851   4.444   0.456
 1142TIP3   OH2 3310   6.971   4.239   0.440
 1142TIP3    H1 3311   6.965   4.328   0.476
 1142TIP3    H2 3312   6.900   4.191   0.482
 1143TIP3   OH2 3313   7.712   3.671   0.640
 1143TIP3    H1 3314   7.653   3.723   0.585
 1143TIP3    H2 3315   7.713   3.584   0.600
 1144TIP3   OH2 3316   6.352   4.025   0.578
 1144TIP3    H1 3317   6.406   4.010   0.655
 1144TIP3    H2 3318   6.283   3.959   0.583
 1145TIP3   OH2 3319   6.731   2.826   0.387
 1145TIP3    H1 3320   6.646   2.794   0.358
 1145TIP3    H2 3321   6.712   2.906   0.436
 1146TIP3   OH2 3322   7.238   2.970   0.608
 1146TIP3    H1 3323   7.303   2.965   0.678
 1146TIP3    H2 3324   7.155   2.947   0.651
 1147TIP3   OH2 3325   7.453   3.362   0.458
 1147TIP3    H1 3326   7.438   3.362   0.552
 1147TIP3    H2 3327   7.479   3.452   0.437
 1148TIP3   OH2 3328   6.680   3.358   0.408
 1148TIP3    H1 3329   6.635   3.369   0.492
 1148TIP3    H2 3330   6.667   3.442   0.363
 1149TIP3   OH2 3331   0.033   7.860   7.919
 1149TIP3    H1 3332  -0.056   7.829   7.937
 1149TIP3    H2 3333   0.046   7.841   7.826
 1150TIP3   OH2 3334   7.222   3.587   0.719
 1150TIP3    H1 3335   7.200   3.517   0.781
 1150TIP3    H2 3336   7.314   3.606   0.736
 1151TIP3   OH2 3337   6.511   3.374   0.624
 1151TIP3    H1 3338   6.533   3.436   0.693
 1151TIP3    H2 3339   6.495   3.291   0.669
 1152TIP3   OH2 3340   6.170   2.857   0.143
 1152TIP3    H1 3341   6.196   2.915   0.214
 1152TIP3    H2 3342   6.243   2.797   0.132
 1153TIP3   OH2 3343   7.631   5.619   1.163
 1153TIP3    H1 3344   7.674   5.593   1.245
 1153TIP3    H2 3345   7.538   5.618   1.184
 1154TIP3   OH2 3346   7.225   3.580   0.279
 1154TIP3    H1 3347   7.244   3.513   0.214
 1154TIP3    H2 3348   7.193   3.532   0.355
 1155TIP3   OH2 3349   6.884   2.975  -0.008
 1155TIP3    H1 3350   6.822   3.015   0.053
 1155TIP3    H2 3351   6.970   2.990   0.032
 1156TIP3   OH2 3352   9.598   7.726   7.969
 1156TIP3    H1 3353   9.507   7.730   7.940
 1156TIP3    H2 3354   9.620   7.633   7.963
 1157TIP3   OH2 3355   7.317   3.131   0.189
 1157TIP3    H1 3356   7.280   3.153   0.274
 1157TIP3    H2 3357   7.260   3.063   0.154
 1158TIP3   OH2 3358   7.599   4.848   0.384
 1158TIP3    H1 3359   7.580   4.929   0.336
 1158TIP3    H2 3360   7.632   4.878   0.469
 1159TIP3   OH2 3361   6.509   3.935   0.800
 1159TIP3    H1 3362   6.592   3.952   0.846
 1159TIP3    H2 3363   6.442   3.942   0.868
 1160TIP3   OH2 3364   6.973   3.370   0.087
 1160TIP3    H1 3365   7.066   3.359   0.067
 1160TIP3    H2 3366   6.964   3.333   0.175
 1161TIP3   OH2 3367   9.763   7.474   7.975
 1161TIP3    H1 3368   9.714   7.405   8.019
 1161TIP3    H2 3369   9.837   7.429   7.935
 1162TIP3   OH2 3370   6.942   3.300   0.352
 1162TIP3    H1 3371   6.854   3.330   0.375
 1162TIP3    H2 3372   7.001   3.358   0.402
 1163TIP3   OH2 3373   7.102   3.983   0.493
 1163TIP3    H1 3374   7.156   3.973   0.571
 1163TIP3    H2 3375   7.069   4.072   0.497
 1164TIP3   OH2 3376   6.347   3.678   0.140
 1164TIP3    H1 3377   6.398   3.659   0.061
 1164TIP3    H2 3378   6.401   3.645   0.212
 1165TIP3   OH2 3379   6.253   3.598   0.735
 1165TIP3    H1 3380   6.257   3.571   0.826
 1165TIP3    H2 3381   6.179   3.550   0.698
 1166TIP3   OH2 3382   6.995   3.741   0.757
 1166TIP3    H1 3383   6.928   3.680   0.725
 1166TIP3    H2 3384   7.078   3.701   0.730
 1167TIP3   OH2 3385   7.243   4.267   0.365
 1167TIP3    H1 3386   7.149   4.247   0.368
 1167TIP3    H2 3387   7.262   4.307   0.449
 1168TIP3   OH2 3388   7.894   4.153   0.308
 1168TIP3    H1 3389   7.806   4.150   0.271
 1168TIP3    H2 3390   7.943   4.088   0.258
 1169TIP3   OH2 3391   6.777   4.322   0.244
 1169TIP3    H1 3392   6.782   4.416   0.258
 1169TIP3    H2 3393   6.858   4.288   0.282
 1170TIP3   OH2 3394   7.133   3.975   0.219
 1170TIP3    H1 3395   7.116   3.968   0.313
 1170TIP3    H2 3396   7.229   3.981   0.213
 1171TIP3   OH2 3397   6.464   3.119   0.740
 1171TIP3    H1 3398   6.368   3.128   0.743
 1171TIP3    H2 3399   6.485   3.066   0.817
 1172TIP3   OH2 3400   6.195   4.218   0.416
 1172TIP3    H1 3401   6.251   4.159   0.465
 1172TIP3    H2 3402   6.211   4.304   0.455
 1173TIP3   OH2 3403   7.249   3.185   0.443
 1173TIP3    H1 3404   7.330   3.232   0.462
 1173TIP3    H2 3405   7.248   3.113   0.506
 1174TIP3   OH2 3406   7.137   3.438   0.496
 1174TIP3    H1 3407   7.168   3.484   0.574
 1174TIP3    H2 3408   7.181   3.353   0.499
 1175TIP3   OH2 3409   7.737   3.428   0.523
 1175TIP3    H1 3410   7.698   3.349   0.561
 1175TIP3    H2 3411   7.755   3.405   0.432
 1176TIP3   OH2 3412   6.469   2.742   0.355
 1176TIP3    H1 3413   6.437   2.704   0.273
 1176TIP3    H2 3414   6.464   2.671   0.419
 1177TIP3   OH2 3415   6.204   4.514   0.833
 1177TIP3    H1 3416   6.288   4.514   0.879
 1177TIP3    H2 3417   6.182   4.421   0.823
 1178TIP3   OH2 3418   6.673   4.447   0.839
 1178TIP3    H1 3419   6.760   4.412   0.855
 1178TIP3    H2 3420   6.636   4.390   0.771
 1179TIP3   OH2 3421   7.287   4.380   0.608
 1179TIP3    H1 3422   7.282   4.315   0.678
 1179TIP3    H2 3423   7.366   4.430   0.627
 1180TIP3   OH2 3424   6.309   3.935   0.995
 1180TIP3    H1 3425   6.329   3.843   1.007
 1180TIP3    H2 3426   6.222   3.936   0.955
 1181TIP3   OH2 3427   6.925   4.014   0.771
 1181TIP3    H1 3428   6.882   4.033   0.688
 1181TIP3    H2 3429   6.963   3.928   0.760
 1182TIP3   OH2 3430   7.418   4.050   0.355
 1182TIP3    H1 3431   7.497   4.089   0.317
 1182TIP3    H2 3432   7.356   4.122   0.361
 1183TIP3   OH2 3433   6.426   3.683   1.002
 1183TIP3    H1 3434   6.502   3.662   0.947
 1183TIP3    H2 3435   6.462   3.697   1.089
 1184TIP3   OH2 3436   6.779   3.552   0.664
 1184TIP3    H1 3437   6.697   3.599   0.674
 1184TIP3    H2 3438   6.815   3.582   0.580
 1185TIP3   OH2 3439   7.302   3.956   0.781
 1185TIP3    H1 3440   7.398   3.963   0.780
 1185TIP3    H2 3441   7.284   3.888   0.846
 1186TIP3   OH2 3442   6.886   3.325   0.774
 1186TIP3    H1 3443   6.891   3.255   0.709
 1186TIP3    H2 3444   6.853   3.400   0.725
 1187TIP3   OH2 3445   6.892   3.128   0.572
 1187TIP3    H1 3446   6.925   3.166   0.491
 1187TIP3    H2 3447   6.801   3.104   0.552
 1188TIP3   OH2 3448   6.899   3.649   0.443
 1188TIP3    H1 3449   6.992   3.665   0.424
 1188TIP3    H2 3450   6.852   3.716   0.393
 1189TIP3   OH2 3451   7.488   3.610   0.813
 1189TIP3    H1 3452   7.518   3.521   0.833
 1189TIP3    H2 3453   7.564   3.653   0.775
 1190TIP3   OH2 3454   7.552   3.870   0.515
 1190TIP3    H1 3455   7.492   3.930   0.472
 1190TIP3    H2 3456   7.639   3.899   0.488
 1191TIP3   OH2 3457   6.774   3.408   1.015
 1191TIP3    H1 3458   6.705   3.344   1.035
 1191TIP3    H2 3459   6.803   3.385   0.927
 1192TIP3   OH2 3460   6.987   2.896   0.688
 1192TIP3    H1 3461   6.949   2.975   0.651
 1192TIP3    H2 3462   6.924   2.827   0.667
 1193TIP3   OH2 3463   7.143   3.371   0.871
 1193TIP3    H1 3464   7.137   3.358   0.966
 1193TIP3    H2 3465   7.056   3.349   0.838
 1194TIP3   OH2 3466   7.367   3.321   0.713
 1194TIP3    H1 3467   7.292   3.323   0.773
 1194TIP3    H2 3468   7.444   3.318   0.770
 1195TIP3   OH2 3469   7.584   3.359   0.890
 1195TIP3    H1 3470   7.593   3.264   0.896
 1195TIP3    H2 3471   7.586   3.388   0.981
 1196TIP3   OH2 3472   6.606   3.188   1.078
 1196TIP3    H1 3473   6.614   3.100   1.041
 1196TIP3    H2 3474   6.646   3.181   1.165
 1197TIP3   OH2 3475   7.077   2.872   0.944
 1197TIP3    H1 3476   7.142   2.803   0.936
 1197TIP3    H2 3477   7.042   2.882   0.855
 1198TIP3   OH2 3478   7.182   3.086   1.085
 1198TIP3    H1 3479   7.154   3.015   1.026
 1198TIP3    H2 3480   7.110   3.150   1.081
 1199TIP3   OH2 3481   5.875   4.203   0.036
 1199TIP3    H1 3482   5.868   4.110   0.059
 1199TIP3    H2 3483   5.960   4.230   0.071
 1200TIP3   OH2 3484   7.730   4.258   0.639
 1200TIP3    H1 3485   7.657   4.265   0.701
 1200TIP3    H2 3486   7.778   4.339   0.650
 1201TIP3   OH2 3487   6.126   3.564   0.372
 1201TIP3    H1 3488   6.113   3.532   0.282
 1201TIP3    H2 3489   6.221   3.560   0.385
 1202TIP3   OH2 3490   7.812   3.927   0.458
 1202TIP3    H1 3491   7.875   3.859   0.432
 1202TIP3    H2 3492   7.841   4.005   0.411
 1203TIP3   OH2 3493   7.966   3.686   0.502
 1203TIP3    H1 3494   7.885   3.678   0.552
 1203TIP3    H2 3495   8.036   3.684   0.568
 1204TIP3   OH2 3496   7.685   3.587   0.207
 1204TIP3    H1 3497   7.620   3.609   0.273
 1204TIP3    H2 3498   7.667   3.496   0.184
 1205TIP3   OH2 3499   6.342   3.245   1.017
 1205TIP3    H1 3500   6.436   3.241   1.035
 1205TIP3    H2 3501   6.307   3.164   1.052
 1206TIP3   OH2 3502   8.135   3.145   0.690
 1206TIP3    H1 3503   8.218   3.158   0.644
 1206TIP3    H2 3504   8.086   3.225   0.673
 1207TIP3   OH2 3505   6.304   2.965   0.367
 1207TIP3    H1 3506   6.360   2.889   0.379
 1207TIP3    H2 3507   6.364   3.040   0.362
 1208TIP3   OH2 3508   6.098   3.226   0.420
 1208TIP3    H1 3509   6.147   3.220   0.338
 1208TIP3    H2 3510   6.130   3.306   0.462
 1209TIP3   OH2 3511   8.010   3.379   0.628
 1209TIP3    H1 3512   7.948   3.405   0.696
 1209TIP3    H2 3513   7.956   3.337   0.561
 1210TIP3   OH2 3514   9.290   7.354   7.919
 1210TIP3    H1 3515   9.209   7.342   7.969
 1210TIP3    H2 3516   9.342   7.414   7.973
 1211TIP3   OH2 3517   6.308   2.795   0.753
 1211TIP3    H1 3518   6.254   2.781   0.832
 1211TIP3    H2 3519   6.251   2.842   0.693
 1212TIP3   OH2 3520   6.345   4.245   0.832
 1212TIP3    H1 3521   6.252   4.225   0.821
 1212TIP3    H2 3522   6.363   4.224   0.923
 1213TIP3   OH2 3523   6.544   4.274   0.381
 1213TIP3    H1 3524   6.486   4.336   0.337
 1213TIP3    H2 3525   6.628   4.285   0.337
 1214TIP3   OH2 3526   6.961   4.503   0.516
 1214TIP3    H1 3527   6.997   4.500   0.605
 1214TIP3    H2 3528   7.030   4.542   0.463
 1215TIP3   OH2 3529   7.168   4.601   0.363
 1215TIP3    H1 3530   7.222   4.527   0.334
 1215TIP3    H2 3531   7.227   4.654   0.417
 1216TIP3   OH2 3532   7.907   3.149   0.501
 1216TIP3    H1 3533   7.869   3.062   0.511
 1216TIP3    H2 3534   7.993   3.133   0.463
 1217TIP3   OH2 3535   6.203   4.531   0.446
 1217TIP3    H1 3536   6.113   4.551   0.420
 1217TIP3    H2 3537   6.226   4.598   0.509
 1218TIP3   OH2 3538   6.414   4.480   0.266
 1218TIP3    H1 3539   6.343   4.502   0.326
 1218TIP3    H2 3540   6.384   4.513   0.180
 1219TIP3   OH2 3541   6.101   4.314   0.170
 1219TIP3    H1 3542   6.133   4.290   0.258
 1219TIP3    H2 3543   6.171   4.286   0.111
 1220TIP3   OH2 3544   6.312   4.211   0.038
 1220TIP3    H1 3545   6.315   4.120   0.067
 1220TIP3    H2 3546   6.404   4.237   0.033
 1221TIP3   OH2 3547   6.585   4.249   0.053
 1221TIP3    H1 3548   6.607   4.157   0.036
 1221TIP3    H2 3549   6.657   4.281   0.107
 1222TIP3   OH2 3550   7.135   2.932   0.117
 1222TIP3    H1 3551   7.086   2.865   0.165
 1222TIP3    H2 3552   7.189   2.882   0.056
 1223TIP3   OH2 3553   1.072   7.460   7.999
 1223TIP3    H1 3554   1.104   7.484   7.912
 1223TIP3    H2 3555   0.977   7.469   7.993
 1224TIP3   OH2 3556   6.364   2.652   0.109
 1224TIP3    H1 3557   6.284   2.603   0.129
 1224TIP3    H2 3558   6.433   2.586   0.106
 1225TIP3   OH2 3559   9.415   7.131   7.800
 1225TIP3    H1 3560   9.492   7.175   7.765
 1225TIP3    H2 3561   9.371   7.198   7.853
 1226TIP3   OH2 3562   6.824   2.708   0.006
 1226TIP3    H1 3563   6.842   2.797  -0.024
 1226TIP3    H2 3564   6.874   2.700   0.087
 1227TIP3   OH2 3565   0.796   7.399   7.981
 1227TIP3    H1 3566   0.777   7.314   7.942
 1227TIP3    H2 3567   0.814   7.380   8.073
 1228TIP3   OH2 3568   6.623   2.918   0.989
 1228TIP3    H1 3569   6.587   2.851   1.047
 1228TIP3    H2 3570   6.714   2.927   1.015
 1229TIP3   OH2 3571   6.867   2.926   1.118
 1229TIP3    H1 3572   6.944   2.907   1.064
 1229TIP3    H2 3573   6.864   2.854   1.181
 1230TIP3   OH2 3574   7.642   3.105   0.961
 1230TIP3    H1 3575   7.681   3.098   1.048
 1230TIP3    H2 3576   7.717   3.102   0.901
 1231TIP3   OH2 3577   7.582   4.573   0.405
 1231TIP3    H1 3578   7.660   4.523   0.378
 1231TIP3    H2 3579   7.602   4.663   0.381
 1232TIP3   OH2 3580   8.348   4.161   0.327
 1232TIP3    H1 3581   8.398   4.193   0.403
 1232TIP3    H2 3582   8.307   4.080   0.359
 1233TIP3   OH2 3583   8.025   3.897   0.266
 1233TIP3    H1 3584   8.104   3.894   0.320
 1233TIP3    H2 3585   8.015   3.808   0.233
 1234TIP3   OH2 3586   8.083   3.379   0.123
 1234TIP3    H1 3587   8.046   3.459   0.160
 1234TIP3    H2 3588   8.147   3.350   0.187
 1235TIP3   OH2 3589   8.077   4.178   0.521
 1235TIP3    H1 3590   8.128   4.099   0.503
 1235TIP3    H2 3591   8.012   4.181   0.451
 1236TIP3   OH2 3592   8.248   3.933   0.461
 1236TIP3    H1 3593   8.314   3.868   0.439
 1236TIP3    H2 3594   8.262   3.952   0.554
 1237TIP3   OH2 3595   8.544   3.744   0.513
 1237TIP3    H1 3596   8.485   3.677   0.548
 1237TIP3    H2 3597   8.562   3.715   0.424
 1238TIP3   OH2 3598   8.427   3.499   0.587
 1238TIP3    H1 3599   8.445   3.450   0.506
 1238TIP3    H2 3600   8.503   3.482   0.642
 1239TIP3   OH2 3601   8.181   3.591   0.653
 1239TIP3    H1 3602   8.266   3.553   0.629
 1239TIP3    H2 3603   8.124   3.516   0.663
 1240TIP3   OH2 3604   8.052   3.075   0.157
 1240TIP3    H1 3605   8.077   3.143   0.220
 1240TIP3    H2 3606   8.125   3.071   0.096
 1241TIP3   OH2 3607   8.351   3.210   0.538
 1241TIP3    H1 3608   8.406   3.140   0.573
 1241TIP3    H2 3609   8.405   3.251   0.470
 1242TIP3   OH2 3610   8.634   3.162   0.543
 1242TIP3    H1 3611   8.703   3.156   0.609
 1242TIP3    H2 3612   8.616   3.072   0.517
 1243TIP3   OH2 3613   0.475   4.180   1.962
 1243TIP3    H1 3614   0.401   4.227   1.924
 1243TIP3    H2 3615   0.502   4.235   2.036
 1244TIP3   OH2 3616   9.644   4.991   1.633
 1244TIP3    H1 3617   9.577   4.944   1.683
 1244TIP3    H2 3618   9.601   5.011   1.550
 1245TIP3   OH2 3619   0.109   4.919   1.932
 1245TIP3    H1 3620   0.092   4.844   1.875
 1245TIP3    H2 3621   0.094   4.996   1.876
 1246TIP3   OH2 3622   0.270   4.554   1.805
 1246TIP3    H1 3623   0.190   4.604   1.787
 1246TIP3    H2 3624   0.295   4.517   1.721
 1247TIP3   OH2 3625   9.783   4.436   2.096
 1247TIP3    H1 3626   9.786   4.506   2.161
 1247TIP3    H2 3627   9.721   4.467   2.030
 1248TIP3   OH2 3628   0.343   5.277   1.991
 1248TIP3    H1 3629   0.352   5.181   1.996
 1248TIP3    H2 3630   0.263   5.296   2.039
 1249TIP3   OH2 3631   9.323   4.978   2.125
 1249TIP3    H1 3632   9.328   5.056   2.179
 1249TIP3    H2 3633   9.232   4.973   2.096
 1250TIP3   OH2 3634   0.205   4.375   2.289
 1250TIP3    H1 3635   0.142   4.357   2.219
 1250TIP3    H2 3636   0.234   4.289   2.318
 1251TIP3   OH2 3637   9.783   4.168   2.175
 1251TIP3    H1 3638   9.744   4.154   2.261
 1251TIP3    H2 3639   9.750   4.253   2.146
 1252TIP3   OH2 3640   9.517   4.355   2.352
 1252TIP3    H1 3641   9.507   4.276   2.404
 1252TIP3    H2 3642   9.600   4.393   2.382
 1253TIP3   OH2 3643   0.073   5.596   2.101
 1253TIP3    H1 3644   0.064   5.613   2.007
 1253TIP3    H2 3645   0.146   5.653   2.128
 1254TIP3   OH2 3646   0.041   4.715   1.761
 1254TIP3    H1 3647   0.083   4.755   1.685
 1254TIP3    H2 3648  -0.053   4.723   1.743
 1255TIP3   OH2 3649   9.414   4.719   2.118
 1255TIP3    H1 3650   9.448   4.703   2.206
 1255TIP3    H2 3651   9.372   4.805   2.124
 1256TIP3   OH2 3652   9.334   4.533   2.506
 1256TIP3    H1 3653   9.293   4.488   2.433
 1256TIP3    H2 3654   9.420   4.558   2.474
 1257TIP3   OH2 3655   9.558   5.083   2.026
 1257TIP3    H1 3656   9.496   5.012   2.043
 1257TIP3    H2 3657   9.601   5.098   2.110
 1258TIP3   OH2 3658   0.356   5.003   2.012
 1258TIP3    H1 3659   0.263   4.983   2.021
 1258TIP3    H2 3660   0.382   4.961   1.930
 1259TIP3   OH2 3661   9.519   4.753   1.866
 1259TIP3    H1 3662   9.479   4.732   1.950
 1259TIP3    H2 3663   9.452   4.733   1.801
 1260TIP3   OH2 3664   9.683   5.295   1.913
 1260TIP3    H1 3665   9.630   5.223   1.947
 1260TIP3    H2 3666   9.621   5.368   1.903
 1261TIP3   OH2 3667   0.234   4.076   2.133
 1261TIP3    H1 3668   0.142   4.093   2.150
 1261TIP3    H2 3669   0.259   4.142   2.069
 1262TIP3   OH2 3670   9.634   5.164   2.276
 1262TIP3    H1 3671   9.631   5.103   2.350
 1262TIP3    H2 3672   9.692   5.234   2.305
 1263TIP3   OH2 3673   9.094   4.804   2.444
 1263TIP3    H1 3674   9.076   4.712   2.428
 1263TIP3    H2 3675   9.188   4.807   2.462
 1264TIP3   OH2 3676   9.699   4.818   2.076
 1264TIP3    H1 3677   9.770   4.872   2.042
 1264TIP3    H2 3678   9.640   4.805   2.002
 1265TIP3   OH2 3679   9.577   4.652   2.448
 1265TIP3    H1 3680   9.652   4.651   2.388
 1265TIP3    H2 3681   9.613   4.620   2.531
 1266TIP3   OH2 3682  -0.024   4.409   2.483
 1266TIP3    H1 3683  -0.033   4.314   2.475
 1266TIP3    H2 3684   0.060   4.429   2.442
 1267TIP3   OH2 3685   0.001   4.660   2.265
 1267TIP3    H1 3686  -0.048   4.720   2.210
 1267TIP3    H2 3687   0.092   4.668   2.234
 1268TIP3   OH2 3688   9.444   4.126   2.509
 1268TIP3    H1 3689   9.398   4.104   2.590
 1268TIP3    H2 3690   9.388   4.091   2.439
 1269TIP3   OH2 3691   9.715   4.147   2.439
 1269TIP3    H1 3692   9.631   4.118   2.476
 1269TIP3    H2 3693   9.781   4.103   2.494
 1270TIP3   OH2 3694   0.122   4.060   2.595
 1270TIP3    H1 3695   0.127   3.964   2.599
 1270TIP3    H2 3696   0.123   4.088   2.686
 1271TIP3   OH2 3697   0.155   5.434   1.495
 1271TIP3    H1 3698   0.176   5.389   1.577
 1271TIP3    H2 3699   0.218   5.401   1.432
 1272TIP3   OH2 3700   0.186   5.364   1.770
 1272TIP3    H1 3701   0.142   5.280   1.759
 1272TIP3    H2 3702   0.257   5.346   1.832
 1273TIP3   OH2 3703   0.228   5.063   2.316
 1273TIP3    H1 3704   0.157   5.068   2.381
 1273TIP3    H2 3705   0.274   5.146   2.324
 1274TIP3   OH2 3706   0.223   4.814   1.582
 1274TIP3    H1 3707   0.275   4.742   1.547
 1274TIP3    H2 3708   0.246   4.889   1.527
 1275TIP3   OH2 3709   0.042   5.129   1.765
 1275TIP3    H1 3710  -0.019   5.186   1.812
 1275TIP3    H2 3711  -0.014   5.080   1.704
 1276TIP3   OH2 3712   0.245   4.707   2.147
 1276TIP3    H1 3713   0.312   4.639   2.134
 1276TIP3    H2 3714   0.243   4.754   2.064
 1277TIP3   OH2 3715   0.420   4.498   2.152
 1277TIP3    H1 3716   0.346   4.453   2.192
 1277TIP3    H2 3717   0.495   4.441   2.167
 1278TIP3   OH2 3718   0.226   4.327   1.968
 1278TIP3    H1 3719   0.138   4.353   1.996
 1278TIP3    H2 3720   0.253   4.396   1.907
 1279TIP3   OH2 3721   0.635   3.922   2.477
 1279TIP3    H1 3722   0.704   3.865   2.444
 1279TIP3    H2 3723   0.609   3.975   2.402
 1280TIP3   OH2 3724   0.496   4.061   2.285
 1280TIP3    H1 3725   0.428   4.101   2.340
 1280TIP3    H2 3726   0.448   3.999   2.230
 1281TIP3   OH2 3727   9.113   5.269   2.099
 1281TIP3    H1 3728   9.132   5.229   2.184
 1281TIP3    H2 3729   9.100   5.361   2.118
 1282TIP3   OH2 3730   9.564   5.553   1.925
 1282TIP3    H1 3731   9.602   5.556   2.012
 1282TIP3    H2 3732   9.469   5.545   1.940
 1283TIP3   OH2 3733   0.368   3.833   2.172
 1283TIP3    H1 3734   0.298   3.893   2.148
 1283TIP3    H2 3735   0.349   3.753   2.124
 1284TIP3   OH2 3736   0.158   3.793   2.602
 1284TIP3    H1 3737   0.175   3.754   2.688
 1284TIP3    H2 3738   0.239   3.780   2.553
 1285TIP3   OH2 3739   0.096   5.326   2.093
 1285TIP3    H1 3740   0.024   5.301   2.035
 1285TIP3    H2 3741   0.089   5.421   2.101
 1286TIP3   OH2 3742   1.366   4.812   0.921
 1286TIP3    H1 3743   1.294   4.858   0.878
 1286TIP3    H2 3744   1.323   4.748   0.978
 1287TIP3   OH2 3745   1.332   4.726   1.258
 1287TIP3    H1 3746   1.381   4.706   1.337
 1287TIP3    H2 3747   1.292   4.643   1.232
 1288TIP3   OH2 3748   0.640   4.574   1.624
 1288TIP3    H1 3749   0.673   4.514   1.690
 1288TIP3    H2 3750   0.716   4.596   1.571
 1289TIP3   OH2 3751   1.631   5.007   0.934
 1289TIP3    H1 3752   1.585   4.962   1.005
 1289TIP3    H2 3753   1.653   5.093   0.969
 1290TIP3   OH2 3754   0.615   5.002   1.309
 1290TIP3    H1 3755   0.600   4.908   1.316
 1290TIP3    H2 3756   0.710   5.011   1.303
 1291TIP3   OH2 3757   1.209   5.498   0.950
 1291TIP3    H1 3758   1.273   5.436   0.916
 1291TIP3    H2 3759   1.201   5.477   1.043
 1292TIP3   OH2 3760   1.150   4.942   1.267
 1292TIP3    H1 3761   1.195   4.860   1.244
 1292TIP3    H2 3762   1.220   5.001   1.295
 1293TIP3   OH2 3763   2.174   4.282   1.285
 1293TIP3    H1 3764   2.199   4.355   1.342
 1293TIP3    H2 3765   2.237   4.284   1.213
 1294TIP3   OH2 3766   1.491   4.372   1.370
 1294TIP3    H1 3767   1.557   4.413   1.314
 1294TIP3    H2 3768   1.408   4.409   1.342
 1295TIP3   OH2 3769   1.537   4.240   0.942
 1295TIP3    H1 3770   1.542   4.152   0.980
 1295TIP3    H2 3771   1.491   4.228   0.859
 1296TIP3   OH2 3772   0.971   4.515   1.216
 1296TIP3    H1 3773   1.058   4.526   1.255
 1296TIP3    H2 3774   0.981   4.443   1.154
 1297TIP3   OH2 3775   2.238   4.483   1.461
 1297TIP3    H1 3776   2.153   4.526   1.448
 1297TIP3    H2 3777   2.250   4.484   1.556
 1298TIP3   OH2 3778   0.898   4.111   1.714
 1298TIP3    H1 3779   0.834   4.137   1.648
 1298TIP3    H2 3780   0.850   4.115   1.797
 1299TIP3   OH2 3781   1.216   4.943   0.731
 1299TIP3    H1 3782   1.200   4.897   0.648
 1299TIP3    H2 3783   1.163   5.022   0.725
 1300TIP3   OH2 3784   0.980   4.865   1.471
 1300TIP3    H1 3785   0.925   4.937   1.503
 1300TIP3    H2 3786   1.032   4.904   1.401
 1301TIP3   OH2 3787   1.777   4.266   1.176
 1301TIP3    H1 3788   1.783   4.194   1.113
 1301TIP3    H2 3789   1.849   4.324   1.154
 1302TIP3   OH2 3790   0.739   4.205   1.502
 1302TIP3    H1 3791   0.816   4.259   1.482
 1302TIP3    H2 3792   0.759   4.120   1.464
 1303TIP3   OH2 3793   0.824   5.067   1.575
 1303TIP3    H1 3794   0.811   5.158   1.548
 1303TIP3    H2 3795   0.746   5.047   1.627
 1304TIP3   OH2 3796   1.650   5.258   1.061
 1304TIP3    H1 3797   1.565   5.254   1.104
 1304TIP3    H2 3798   1.653   5.345   1.021
 1305TIP3   OH2 3799   1.996   4.195   1.481
 1305TIP3    H1 3800   1.905   4.214   1.460
 1305TIP3    H2 3801   2.044   4.218   1.401
 1306TIP3   OH2 3802   1.233   3.870   1.443
 1306TIP3    H1 3803   1.210   3.790   1.394
 1306TIP3    H2 3804   1.179   3.938   1.404
 1307TIP3   OH2 3805   1.384   5.335   0.816
 1307TIP3    H1 3806   1.412   5.244   0.801
 1307TIP3    H2 3807   1.450   5.388   0.771
 1308TIP3   OH2 3808   1.451   5.084   0.739
 1308TIP3    H1 3809   1.372   5.031   0.732
 1308TIP3    H2 3810   1.500   5.044   0.811
 1309TIP3   OH2 3811   1.894   5.155   1.424
 1309TIP3    H1 3812   1.868   5.082   1.369
 1309TIP3    H2 3813   1.879   5.233   1.370
 1310TIP3   OH2 3814   1.183   4.614   0.734
 1310TIP3    H1 3815   1.090   4.638   0.729
 1310TIP3    H2 3816   1.225   4.668   0.667
 1311TIP3   OH2 3817   2.055   4.834   1.284
 1311TIP3    H1 3818   1.968   4.874   1.281
 1311TIP3    H2 3819   2.089   4.844   1.195
 1312TIP3   OH2 3820   1.488   4.776   0.673
 1312TIP3    H1 3821   1.433   4.801   0.747
 1312TIP3    H2 3822   1.574   4.814   0.692
 1313TIP3   OH2 3823   1.752   4.693   1.589
 1313TIP3    H1 3824   1.746   4.774   1.640
 1313TIP3    H2 3825   1.673   4.693   1.535
 1314TIP3   OH2 3826   0.755   4.639   1.096
 1314TIP3    H1 3827   0.730   4.575   1.029
 1314TIP3    H2 3828   0.833   4.601   1.137
 1315TIP3   OH2 3829   0.889   5.032   1.211
 1315TIP3    H1 3830   0.863   5.008   1.122
 1315TIP3    H2 3831   0.979   5.001   1.219
 1316TIP3   OH2 3832   0.844   4.629   1.440
 1316TIP3    H1 3833   0.883   4.590   1.362
 1316TIP3    H2 3834   0.894   4.710   1.454
 1317TIP3   OH2 3835   1.419   5.266   1.202
 1317TIP3    H1 3836   1.403   5.346   1.253
 1317TIP3    H2 3837   1.400   5.195   1.263
 1318TIP3   OH2 3838   1.029   5.157   1.741
 1318TIP3    H1 3839   0.970   5.217   1.786
 1318TIP3    H2 3840   0.971   5.106   1.684
 1319TIP3   OH2 3841   1.376   4.528   0.354
 1319TIP3    H1 3842   1.341   4.603   0.402
 1319TIP3    H2 3843   1.303   4.498   0.300
 1320TIP3   OH2 3844   0.782   4.707   1.899
 1320TIP3    H1 3845   0.783   4.802   1.912
 1320TIP3    H2 3846   0.690   4.685   1.889
 1321TIP3   OH2 3847   1.144   5.215   0.733
 1321TIP3    H1 3848   1.219   5.264   0.767
 1321TIP3    H2 3849   1.067   5.260   0.768
 1322TIP3   OH2 3850   0.829   5.324   1.826
 1322TIP3    H1 3851   0.800   5.335   1.735
 1322TIP3    H2 3852   0.748   5.306   1.875
 1323TIP3   OH2 3853   1.796   5.230   0.064
 1323TIP3    H1 3854   1.705   5.254   0.044
 1323TIP3    H2 3855   1.802   5.138   0.036
 1324TIP3   OH2 3856   0.418   4.869   1.783
 1324TIP3    H1 3857   0.352   4.847   1.718
 1324TIP3    H2 3858   0.452   4.785   1.813
 1325TIP3   OH2 3859   0.331   5.020   1.432
 1325TIP3    H1 3860   0.416   5.017   1.388
 1325TIP3    H2 3861   0.321   5.111   1.459
 1326TIP3   OH2 3862   2.114   5.543   1.478
 1326TIP3    H1 3863   2.121   5.448   1.485
 1326TIP3    H2 3864   2.034   5.565   1.525
 1327TIP3   OH2 3865   1.215   5.305   1.603
 1327TIP3    H1 3866   1.206   5.394   1.636
 1327TIP3    H2 3867   1.149   5.255   1.651
 1328TIP3   OH2 3868   1.334   5.366   0.487
 1328TIP3    H1 3869   1.243   5.373   0.458
 1328TIP3    H2 3870   1.337   5.285   0.538
 1329TIP3   OH2 3871   2.001   4.652   1.758
 1329TIP3    H1 3872   1.923   4.659   1.704
 1329TIP3    H2 3873   2.022   4.558   1.757
 1330TIP3   OH2 3874   0.609   5.065   1.749
 1330TIP3    H1 3875   0.661   5.052   1.828
 1330TIP3    H2 3876   0.540   4.998   1.754
 1331TIP3   OH2 3877   0.829   3.952   1.451
 1331TIP3    H1 3878   0.825   3.872   1.399
 1331TIP3    H2 3879   0.883   3.929   1.526
 1332TIP3   OH2 3880   1.552   4.090   1.859
 1332TIP3    H1 3881   1.624   4.036   1.890
 1332TIP3    H2 3882   1.473   4.043   1.887
 1333TIP3   OH2 3883   1.773   4.443   1.709
 1333TIP3    H1 3884   1.727   4.439   1.793
 1333TIP3    H2 3885   1.746   4.525   1.669
 1334TIP3   OH2 3886   0.933   4.408   1.584
 1334TIP3    H1 3887   0.878   4.399   1.662
 1334TIP3    H2 3888   0.902   4.488   1.541
 1335TIP3   OH2 3889   1.307   4.378   0.799
 1335TIP3    H1 3890   1.252   4.449   0.766
 1335TIP3    H2 3891   1.396   4.415   0.799
 1336TIP3   OH2 3892   1.467   4.635   1.910
 1336TIP3    H1 3893   1.449   4.560   1.966
 1336TIP3    H2 3894   1.560   4.654   1.924
 1337TIP3   OH2 3895   1.486   4.473   1.080
 1337TIP3    H1 3896   1.402   4.509   1.051
 1337TIP3    H2 3897   1.500   4.397   1.023
 1338TIP3   OH2 3898   0.772   4.409   1.809
 1338TIP3    H1 3899   0.792   4.472   1.879
 1338TIP3    H2 3900   0.763   4.325   1.854
 1339TIP3   OH2 3901   1.488   4.642   1.477
 1339TIP3    H1 3902   1.532   4.571   1.431
 1339TIP3    H2 3903   1.442   4.599   1.549
 1340TIP3   OH2 3904   1.107   4.072   1.316
 1340TIP3    H1 3905   1.096   4.038   1.228
 1340TIP3    H2 3906   1.159   4.152   1.304
 1341TIP3   OH2 3907   1.722   4.237   1.443
 1341TIP3    H1 3908   1.635   4.275   1.454
 1341TIP3    H2 3909   1.735   4.233   1.348
 1342TIP3   OH2 3910   1.822   5.865   1.569
 1342TIP3    H1 3911   1.817   5.879   1.474
 1342TIP3    H2 3912   1.897   5.917   1.597
 1343TIP3   OH2 3913   0.764   4.978   1.979
 1343TIP3    H1 3914   0.847   4.996   2.025
 1343TIP3    H2 3915   0.697   4.986   2.047
 1344TIP3   OH2 3916   1.231   4.457   1.299
 1344TIP3    H1 3917   1.240   4.380   1.242
 1344TIP3    H2 3918   1.215   4.421   1.386
 1345TIP3   OH2 3919   1.193   4.351   1.545
 1345TIP3    H1 3920   1.102   4.374   1.563
 1345TIP3    H2 3921   1.245   4.411   1.598
 1346TIP3   OH2 3922   0.927   4.706   0.700
 1346TIP3    H1 3923   0.916   4.773   0.634
 1346TIP3    H2 3924   0.906   4.750   0.783
 1347TIP3   OH2 3925   1.815   4.963   1.249
 1347TIP3    H1 3926   1.849   5.009   1.173
 1347TIP3    H2 3927   1.725   4.940   1.225
 1348TIP3   OH2 3928   1.349   5.036   1.642
 1348TIP3    H1 3929   1.396   5.026   1.724
 1348TIP3    H2 3930   1.305   5.121   1.649
 1349TIP3   OH2 3931   1.496   4.388   0.564
 1349TIP3    H1 3932   1.579   4.342   0.551
 1349TIP3    H2 3933   1.469   4.414   0.476
 1350TIP3   OH2 3934   0.609   4.724   1.316
 1350TIP3    H1 3935   0.642   4.701   1.230
 1350TIP3    H2 3936   0.675   4.692   1.377
 1351TIP3   OH2 3937   0.952   4.942   0.532
 1351TIP3    H1 3938   0.947   5.014   0.470
 1351TIP3    H2 3939   1.027   4.890   0.503
 1352TIP3   OH2 3940   0.507   4.643   1.921
 1352TIP3    H1 3941   0.509   4.613   2.012
 1352TIP3    H2 3942   0.436   4.593   1.881
 1353TIP3   OH2 3943   1.237   4.784   1.939
 1353TIP3    H1 3944   1.169   4.722   1.912
 1353TIP3    H2 3945   1.319   4.741   1.914
 1354TIP3   OH2 3946   1.488   5.331   1.535
 1354TIP3    H1 3947   1.394   5.315   1.536
 1354TIP3    H2 3948   1.507   5.364   1.623
 1355TIP3   OH2 3949   1.866   4.352   0.360
 1355TIP3    H1 3950   1.787   4.375   0.311
 1355TIP3    H2 3951   1.876   4.422   0.424
 1356TIP3   OH2 3952   2.135   5.269   1.499
 1356TIP3    H1 3953   2.045   5.239   1.509
 1356TIP3    H2 3954   2.165   5.228   1.417
 1357TIP3   OH2 3955   1.756   5.191   0.362
 1357TIP3    H1 3956   1.740   5.144   0.443
 1357TIP3    H2 3957   1.713   5.139   0.294
 1358TIP3   OH2 3958   1.557   4.874   1.175
 1358TIP3    H1 3959   1.471   4.836   1.192
 1358TIP3    H2 3960   1.603   4.808   1.123
 1359TIP3   OH2 3961   0.715   5.063   0.982
 1359TIP3    H1 3962   0.731   5.147   0.939
 1359TIP3    H2 3963   0.631   5.075   1.027
 1360TIP3   OH2 3964   0.862   4.836   0.933
 1360TIP3    H1 3965   0.808   4.915   0.933
 1360TIP3    H2 3966   0.821   4.778   0.997
 1361TIP3   OH2 3967   1.033   5.379   1.393
 1361TIP3    H1 3968   1.069   5.456   1.348
 1361TIP3    H2 3969   1.106   5.346   1.445
 1362TIP3   OH2 3970   1.389   5.045   1.367
 1362TIP3    H1 3971   1.384   5.033   1.462
 1362TIP3    H2 3972   1.464   4.992   1.341
 1363TIP3   OH2 3973   1.371   4.801   0.205
 1363TIP3    H1 3974   1.456   4.806   0.248
 1363TIP3    H2 3975   1.309   4.787   0.276
 1364TIP3   OH2 3976   1.651   5.528   1.410
 1364TIP3    H1 3977   1.579   5.469   1.434
 1364TIP3    H2 3978   1.614   5.585   1.343
 1365TIP3   OH2 3979   1.585   5.498   0.081
 1365TIP3    H1 3980   1.643   5.509   0.006
 1365TIP3    H2 3981   1.508   5.454   0.045
 1366TIP3   OH2 3982   0.755   4.158   1.944
 1366TIP3    H1 3983   0.660   4.148   1.946
 1366TIP3    H2 3984   0.787   4.099   2.013
 1367TIP3   OH2 3985   1.551   4.842   0.404
 1367TIP3    H1 3986   1.509   4.818   0.487
 1367TIP3    H2 3987   1.644   4.844   0.424
 1368TIP3   OH2 3988   0.470   5.258   1.581
 1368TIP3    H1 3989   0.516   5.191   1.631
 1368TIP3    H2 3990   0.492   5.340   1.625
 1369TIP3   OH2 3991   1.541   4.292   1.681
 1369TIP3    H1 3992   1.634   4.313   1.672
 1369TIP3    H2 3993   1.538   4.222   1.746
 1370TIP3   OH2 3994   1.214   4.125   0.821
 1370TIP3    H1 3995   1.236   4.218   0.828
 1370TIP3    H2 3996   1.126   4.118   0.859
 1371TIP3   OH2 3997   1.376   4.503   1.684
 1371TIP3    H1 3998   1.402   4.547   1.766
 1371TIP3    H2 3999   1.428   4.423   1.682
 1372TIP3   OH2 4000   1.416   3.993   0.966
 1372TIP3    H1 4001   1.388   3.965   1.053
 1372TIP3    H2 4002   1.336   4.019   0.921
 1373TIP3   OH2 4003   2.033   4.379   1.682
 1373TIP3    H1 4004   1.940   4.390   1.698
 1373TIP3    H2 4005   2.038   4.313   1.613
 1374TIP3   OH2 4006   1.694   4.689   1.025
 1374TIP3    H1 4007   1.628   4.630   0.988
 1374TIP3    H2 4008   1.721   4.645   1.106
 1375TIP3   OH2 4009   1.679   5.529   0.996
 1375TIP3    H1 4010   1.636   5.580   0.927
 1375TIP3    H2 4011   1.772   5.539   0.978
 1376TIP3   OH2 4012   0.463   5.563   1.984
 1376TIP3    H1 4013   0.546   5.562   2.031
 1376TIP3    H2 4014   0.437   5.471   1.979
 1377TIP3   OH2 4015   0.927   5.482   2.028
 1377TIP3    H1 4016   1.019   5.455   2.037
 1377TIP3    H2 4017   0.894   5.432   1.954
 1378TIP3   OH2 4018   1.541   5.421   1.789
 1378TIP3    H1 4019   1.560   5.351   1.851
 1378TIP3    H2 4020   1.615   5.482   1.799
 1379TIP3   OH2 4021   0.570   4.979   2.181
 1379TIP3    H1 4022   0.588   4.886   2.189
 1379TIP3    H2 4023   0.487   4.984   2.133
 1380TIP3   OH2 4024   1.180   5.058   1.948
 1380TIP3    H1 4025   1.136   5.077   1.866
 1380TIP3    H2 4026   1.212   4.968   1.938
 1381TIP3   OH2 4027   1.661   5.110   1.573
 1381TIP3    H1 4028   1.739   5.138   1.525
 1381TIP3    H2 4029   1.595   5.176   1.553
 1382TIP3   OH2 4030   0.677   4.725   2.180
 1382TIP3    H1 4031   0.749   4.702   2.121
 1382TIP3    H2 4032   0.719   4.737   2.265
 1383TIP3   OH2 4033   1.039   4.604   1.846
 1383TIP3    H1 4034   0.951   4.642   1.856
 1383TIP3    H2 4035   1.066   4.628   1.758
 1384TIP3   OH2 4036   1.541   4.979   1.919
 1384TIP3    H1 4037   1.611   4.942   1.865
 1384TIP3    H2 4038   1.538   4.921   1.996
 1385TIP3   OH2 4039   4.961   9.169   7.996
 1385TIP3    H1 4040   4.952   9.086   7.951
 1385TIP3    H2 4041   4.872   9.203   8.002
 1386TIP3   OH2 4042   1.140   4.367   1.946
 1386TIP3    H1 4043   1.144   4.296   1.883
 1386TIP3    H2 4044   1.106   4.442   1.896
 1387TIP3   OH2 4045   1.162   4.159   1.746
 1387TIP3    H1 4046   1.191   4.205   1.667
 1387TIP3    H2 4047   1.067   4.151   1.735
 1388TIP3   OH2 4048   1.139   4.695   1.612
 1388TIP3    H1 4049   1.231   4.718   1.598
 1388TIP3    H2 4050   1.089   4.761   1.564
 1389TIP3   OH2 4051   1.740   4.666   1.986
 1389TIP3    H1 4052   1.733   4.571   1.985
 1389TIP3    H2 4053   1.832   4.683   1.964
 1390TIP3   OH2 4054   1.772   4.929   1.742
 1390TIP3    H1 4055   1.722   4.992   1.691
 1390TIP3    H2 4056   1.862   4.938   1.711
 1391TIP3   OH2 4057   1.028   4.460   2.188
 1391TIP3    H1 4058   0.962   4.395   2.211
 1391TIP3    H2 4059   1.056   4.436   2.100
 1392TIP3   OH2 4060   1.283   3.935   1.861
 1392TIP3    H1 4061   1.247   4.015   1.821
 1392TIP3    H2 4062   1.207   3.879   1.875
 1393TIP3   OH2 4063   1.394   4.411   2.050
 1393TIP3    H1 4064   1.381   4.396   2.144
 1393TIP3    H2 4065   1.311   4.387   2.010
 1394TIP3   OH2 4066   1.664   4.407   1.956
 1394TIP3    H1 4067   1.580   4.376   1.991
 1394TIP3    H2 4068   1.729   4.352   1.999
 1395TIP3   OH2 4069   1.895   4.317   2.080
 1395TIP3    H1 4070   1.907   4.222   2.087
 1395TIP3    H2 4071   1.888   4.347   2.171
 1396TIP3   OH2 4072   0.859   4.259   2.274
 1396TIP3    H1 4073   0.857   4.173   2.231
 1396TIP3    H2 4074   0.895   4.241   2.361
 1397TIP3   OH2 4075   1.324   3.923   2.135
 1397TIP3    H1 4076   1.386   3.851   2.145
 1397TIP3    H2 4077   1.303   3.924   2.041
 1398TIP3   OH2 4078   1.432   4.137   2.265
 1398TIP3    H1 4079   1.398   4.063   2.215
 1398TIP3    H2 4080   1.360   4.201   2.264
 1399TIP3   OH2 4081   1.947   5.581   0.965
 1399TIP3    H1 4082   1.967   5.614   1.052
 1399TIP3    H2 4083   2.015   5.617   0.909
 1400TIP3   OH2 4084   1.953   5.615   1.250
 1400TIP3    H1 4085   1.910   5.529   1.244
 1400TIP3    H2 4086   2.022   5.602   1.315
 1401TIP3   OH2 4087   2.016   5.319   1.828
 1401TIP3    H1 4088   1.945   5.327   1.892
 1401TIP3    H2 4089   2.060   5.404   1.830
 1402TIP3   OH2 4090   1.822   4.861   0.447
 1402TIP3    H1 4091   1.879   4.937   0.431
 1402TIP3    H2 4092   1.815   4.856   0.542
 1403TIP3   OH2 4093   2.031   4.774   0.646
 1403TIP3    H1 4094   1.978   4.747   0.721
 1403TIP3    H2 4095   2.109   4.813   0.685
 1404TIP3   OH2 4096   1.999   5.089   1.085
 1404TIP3    H1 4097   2.058   5.026   1.044
 1404TIP3    H2 4098   2.009   5.169   1.034
 1405TIP3   OH2 4099   1.820   5.367   1.263
 1405TIP3    H1 4100   1.753   5.415   1.311
 1405TIP3    H2 4101   1.773   5.327   1.190
 1406TIP3   OH2 4102   1.887   4.660   0.256
 1406TIP3    H1 4103   1.820   4.592   0.248
 1406TIP3    H2 4104   1.842   4.732   0.301
 1407TIP3   OH2 4105   1.899   4.654   0.850
 1407TIP3    H1 4106   1.918   4.560   0.860
 1407TIP3    H2 4107   1.843   4.675   0.924
 1408TIP3   OH2 4108   0.399   4.616   1.511
 1408TIP3    H1 4109   0.430   4.635   1.422
 1408TIP3    H2 4110   0.479   4.607   1.563
 1409TIP3   OH2 4111   2.024   4.967   1.631
 1409TIP3    H1 4112   2.095   4.905   1.613
 1409TIP3    H2 4113   2.011   5.015   1.549
 1410TIP3   OH2 4114   2.218   4.766   1.632
 1410TIP3    H1 4115   2.143   4.725   1.676
 1410TIP3    H2 4116   2.293   4.715   1.660
 1411TIP3   OH2 4117   1.728   4.260   0.628
 1411TIP3    H1 4118   1.734   4.190   0.693
 1411TIP3    H2 4119   1.806   4.314   0.645
 1412TIP3   OH2 4120   1.947   4.481   1.181
 1412TIP3    H1 4121   2.028   4.494   1.132
 1412TIP3    H2 4122   1.968   4.509   1.270
 1413TIP3   OH2 4123   1.989   4.606   1.426
 1413TIP3    H1 4124   1.906   4.624   1.470
 1413TIP3    H2 4125   2.011   4.689   1.383
 1414TIP3   OH2 4126   0.598   4.295   2.191
 1414TIP3    H1 4127   0.691   4.296   2.210
 1414TIP3    H2 4128   0.566   4.213   2.229
 1415TIP3   OH2 4129   2.447   4.197   1.950
 1415TIP3    H1 4130   2.509   4.138   1.908
 1415TIP3    H2 4131   2.411   4.250   1.879
 1416TIP3   OH2 4132   1.915   4.103   0.778
 1416TIP3    H1 4133   1.964   4.114   0.859
 1416TIP3    H2 4134   1.893   4.010   0.775
 1417TIP3   OH2 4135   0.416   4.336   1.649
 1417TIP3    H1 4136   0.476   4.262   1.637
 1417TIP3    H2 4137   0.442   4.400   1.583
 1418TIP3   OH2 4138   2.297   4.327   1.758
 1418TIP3    H1 4139   2.210   4.361   1.780
 1418TIP3    H2 4140   2.279   4.245   1.712
 1419TIP3   OH2 4141   1.928   3.891   0.331
 1419TIP3    H1 4142   1.965   3.818   0.282
 1419TIP3    H2 4143   1.973   3.968   0.296
 1420TIP3   OH2 4144   1.561   5.471   0.648
 1420TIP3    H1 4145   1.486   5.474   0.589
 1420TIP3    H2 4146   1.560   5.555   0.694
 1421TIP3   OH2 4147   0.545   3.907   1.961
 1421TIP3    H1 4148   0.498   3.883   2.041
 1421TIP3    H2 4149   0.513   3.995   1.940
 1422TIP3   OH2 4150   0.617   5.289   2.000
 1422TIP3    H1 4151   0.523   5.275   1.990
 1422TIP3    H2 4152   0.634   5.278   2.093
 1423TIP3   OH2 4153   0.805   5.342   1.546
 1423TIP3    H1 4154   0.750   5.410   1.507
 1423TIP3    H2 4155   0.890   5.353   1.502
 1424TIP3   OH2 4156   1.202   5.565   1.694
 1424TIP3    H1 4157   1.245   5.563   1.779
 1424TIP3    H2 4158   1.257   5.623   1.641
 1425TIP3   OH2 4159   1.378   5.722   1.550
 1425TIP3    H1 4160   1.433   5.666   1.495
 1425TIP3    H2 4161   1.440   5.772   1.603
 1426TIP3   OH2 4162   2.221   4.073   1.675
 1426TIP3    H1 4163   2.131   4.050   1.653
 1426TIP3    H2 4164   2.268   3.989   1.672
 1427TIP3   OH2 4165   0.470   5.605   1.591
 1427TIP3    H1 4166   0.379   5.629   1.572
 1427TIP3    H2 4167   0.495   5.662   1.664
 1428TIP3   OH2 4168   0.686   5.557   1.424
 1428TIP3    H1 4169   0.609   5.578   1.476
 1428TIP3    H2 4170   0.656   5.563   1.333
 1429TIP3   OH2 4171   1.121   5.592   1.233
 1429TIP3    H1 4172   1.041   5.600   1.180
 1429TIP3    H2 4173   1.134   5.679   1.271
 1430TIP3   OH2 4174   1.380   5.528   1.296
 1430TIP3    H1 4175   1.289   5.549   1.274
 1430TIP3    H2 4176   1.431   5.592   1.246
 1431TIP3   OH2 4177   1.577   5.696   1.191
 1431TIP3    H1 4178   1.569   5.781   1.149
 1431TIP3    H2 4179   1.612   5.639   1.122
 1432TIP3   OH2 4180   0.369   5.353   1.342
 1432TIP3    H1 4181   0.414   5.324   1.421
 1432TIP3    H2 4182   0.425   5.323   1.270
 1433TIP3   OH2 4183   0.571   5.244   1.186
 1433TIP3    H1 4184   0.578   5.161   1.234
 1433TIP3    H2 4185   0.659   5.281   1.188
 1434TIP3   OH2 4186   0.843   5.306   1.200
 1434TIP3    H1 4187   0.861   5.212   1.199
 1434TIP3    H2 4188   0.902   5.341   1.267
 1435TIP3   OH2 4189   1.375   3.971   1.231
 1435TIP3    H1 4190   1.340   3.926   1.308
 1435TIP3    H2 4191   1.468   3.982   1.250
 1436TIP3   OH2 4192   2.025   3.818   1.137
 1436TIP3    H1 4193   2.019   3.902   1.093
 1436TIP3    H2 4194   1.934   3.786   1.140
 1437TIP3   OH2 4195   2.030   4.070   1.025
 1437TIP3    H1 4196   2.105   4.027   0.984
 1437TIP3    H2 4197   2.058   4.161   1.037
 1438TIP3   OH2 4198   1.755   3.763   1.097
 1438TIP3    H1 4199   1.727   3.850   1.069
 1438TIP3    H2 4200   1.701   3.744   1.174
 1439TIP3   OH2 4201   0.856   4.005   2.168
 1439TIP3    H1 4202   0.817   3.918   2.178
 1439TIP3    H2 4203   0.946   3.995   2.197
 1440TIP3   OH2 4204   1.105   3.987   2.292
 1440TIP3    H1 4205   1.181   3.965   2.238
 1440TIP3    H2 4206   1.094   3.912   2.350
 1441TIP3   OH2 4207   1.957   4.049   2.084
 1441TIP3    H1 4208   1.973   4.021   2.174
 1441TIP3    H2 4209   2.044   4.050   2.044
 1442TIP3   OH2 4210   1.862   5.593   1.580
 1442TIP3    H1 4211   1.792   5.560   1.526
 1442TIP3    H2 4212   1.846   5.688   1.585
 1443TIP3   OH2 4213   3.144   4.991   0.321
 1443TIP3    H1 4214   3.114   5.076   0.289
 1443TIP3    H2 4215   3.075   4.930   0.294
 1444TIP3   OH2 4216   3.147   4.975   0.745
 1444TIP3    H1 4217   3.200   4.955   0.822
 1444TIP3    H2 4218   3.103   4.893   0.724
 1445TIP3   OH2 4219   2.443   4.837   1.096
 1445TIP3    H1 4220   2.480   4.783   1.166
 1445TIP3    H2 4221   2.518   4.856   1.039
 1446TIP3   OH2 4222   3.410   5.282   0.406
 1446TIP3    H1 4223   3.392   5.214   0.471
 1446TIP3    H2 4224   3.427   5.361   0.457
 1447TIP3   OH2 4225   2.438   5.278   0.769
 1447TIP3    H1 4226   2.423   5.184   0.783
 1447TIP3    H2 4227   2.533   5.285   0.757
 1448TIP3   OH2 4228   2.161   4.537   0.619
 1448TIP3    H1 4229   2.122   4.621   0.643
 1448TIP3    H2 4230   2.102   4.471   0.656
 1449TIP3   OH2 4231   2.254   4.813   0.790
 1449TIP3    H1 4232   2.302   4.738   0.824
 1449TIP3    H2 4233   2.320   4.882   0.781
 1450TIP3   OH2 4234   3.056   5.708   0.420
 1450TIP3    H1 4235   3.092   5.642   0.360
 1450TIP3    H2 4236   3.045   5.661   0.503
 1451TIP3   OH2 4237   2.946   5.193   0.741
 1451TIP3    H1 4238   2.990   5.113   0.713
 1451TIP3    H2 4239   3.016   5.250   0.774
 1452TIP3   OH2 4240   3.973   4.504   0.753
 1452TIP3    H1 4241   3.985   4.591   0.792
 1452TIP3    H2 4242   3.998   4.515   0.661
 1453TIP3   OH2 4243   3.361   4.682   0.785
 1453TIP3    H1 4244   3.392   4.595   0.811
 1453TIP3    H2 4245   3.316   4.667   0.701
 1454TIP3   OH2 4246   2.759   4.365   0.776
 1454TIP3    H1 4247   2.729   4.413   0.698
 1454TIP3    H2 4248   2.730   4.275   0.760
 1455TIP3   OH2 4249   3.419   4.451   0.388
 1455TIP3    H1 4250   3.484   4.443   0.458
 1455TIP3    H2 4251   3.468   4.481   0.312
 1456TIP3   OH2 4252   2.378   4.589   0.893
 1456TIP3    H1 4253   2.453   4.557   0.943
 1456TIP3    H2 4254   2.389   4.549   0.806
 1457TIP3   OH2 4255   2.769   4.758   0.694
 1457TIP3    H1 4256   2.864   4.751   0.703
 1457TIP3    H2 4257   2.743   4.675   0.652
 1458TIP3   OH2 4258   4.015   4.720   0.930
 1458TIP3    H1 4259   3.938   4.772   0.909
 1458TIP3    H2 4260   3.999   4.687   1.019
 1459TIP3   OH2 4261   2.695   4.335   1.209
 1459TIP3    H1 4262   2.647   4.376   1.137
 1459TIP3    H2 4263   2.637   4.346   1.285
 1460TIP3   OH2 4264   3.054   5.207   0.170
 1460TIP3    H1 4265   3.018   5.177   0.086
 1460TIP3    H2 4266   2.992   5.274   0.200
 1461TIP3   OH2 4267   2.783   5.122   0.954
 1461TIP3    H1 4268   2.727   5.192   0.987
 1461TIP3    H2 4269   2.828   5.161   0.879
 1462TIP3   OH2 4270   3.575   4.460   0.610
 1462TIP3    H1 4271   3.530   4.439   0.691
 1462TIP3    H2 4272   3.625   4.539   0.629
 1463TIP3   OH2 4273   2.603   4.457   0.983
 1463TIP3    H1 4274   2.657   4.531   1.011
 1463TIP3    H2 4275   2.651   4.417   0.910
 1464TIP3   OH2 4276   2.623   5.322   1.061
 1464TIP3    H1 4277   2.609   5.412   1.031
 1464TIP3    H2 4278   2.545   5.300   1.112
 1465TIP3   OH2 4279   2.027   5.056   0.426
 1465TIP3    H1 4280   2.029   5.090   0.336
 1465TIP3    H2 4281   2.086   4.981   0.424
 1466TIP3   OH2 4282   3.445   5.527   0.553
 1466TIP3    H1 4283   3.360   5.518   0.596
 1466TIP3    H2 4284   3.439   5.611   0.507
 1467TIP3   OH2 4285   3.765   4.412   0.925
 1467TIP3    H1 4286   3.680   4.420   0.882
 1467TIP3    H2 4287   3.829   4.431   0.856
 1468TIP3   OH2 4288   3.042   4.055   0.939
 1468TIP3    H1 4289   3.036   3.963   0.967
 1468TIP3    H2 4290   2.962   4.096   0.974
 1469TIP3   OH2 4291   3.160   5.545   0.221
 1469TIP3    H1 4292   3.208   5.464   0.207
 1469TIP3    H2 4293   3.223   5.614   0.200
 1470TIP3   OH2 4294   3.307   5.323   0.151
 1470TIP3    H1 4295   3.230   5.266   0.151
 1470TIP3    H2 4296   3.353   5.301   0.232
 1471TIP3   OH2 4297   3.685   5.404   0.901
 1471TIP3    H1 4298   3.659   5.333   0.843
 1471TIP3    H2 4299   3.670   5.483   0.849
 1472TIP3   OH2 4300   2.970   4.830   0.172
 1472TIP3    H1 4301   2.894   4.885   0.153
 1472TIP3    H2 4302   3.007   4.809   0.087
 1473TIP3   OH2 4303   6.212   9.205   7.958
 1473TIP3    H1 4304   6.298   9.245   7.957
 1473TIP3    H2 4305   6.224   9.123   8.007
 1474TIP3   OH2 4306   3.854   5.084   0.761
 1474TIP3    H1 4307   3.767   5.125   0.757
 1474TIP3    H2 4308   3.889   5.094   0.672
 1475TIP3   OH2 4309   3.330   4.912   0.136
 1475TIP3    H1 4310   3.274   4.942   0.208
 1475TIP3    H2 4311   3.409   4.880   0.179
 1476TIP3   OH2 4312   3.556   4.939   1.076
 1476TIP3    H1 4313   3.547   5.020   1.126
 1476TIP3    H2 4314   3.474   4.932   1.026
 1477TIP3   OH2 4315   2.581   4.907   0.549
 1477TIP3    H1 4316   2.547   4.855   0.476
 1477TIP3    H2 4317   2.650   4.853   0.586
 1478TIP3   OH2 4318   2.698   5.316   0.671
 1478TIP3    H1 4319   2.670   5.300   0.581
 1478TIP3    H2 4320   2.783   5.273   0.678
 1479TIP3   OH2 4321   2.662   4.879   0.921
 1479TIP3    H1 4322   2.700   4.840   0.842
 1479TIP3    H2 4323   2.710   4.960   0.933
 1480TIP3   OH2 4324   3.214   5.522   0.693
 1480TIP3    H1 4325   3.194   5.601   0.743
 1480TIP3    H2 4326   3.194   5.450   0.754
 1481TIP3   OH2 4327   2.821   5.416   1.231
 1481TIP3    H1 4328   2.760   5.473   1.278
 1481TIP3    H2 4329   2.765   5.365   1.172
 1482TIP3   OH2 4330   9.696   0.147   7.973
 1482TIP3    H1 4331   9.752   0.210   8.018
 1482TIP3    H2 4332   9.711   0.163   7.880
 1483TIP3   OH2 4333   2.575   4.964   1.379
 1483TIP3    H1 4334   2.578   5.058   1.397
 1483TIP3    H2 4335   2.482   4.944   1.372
 1484TIP3   OH2 4336   2.902   5.433   0.223
 1484TIP3    H1 4337   2.981   5.486   0.233
 1484TIP3    H2 4338   2.842   5.488   0.171
 1485TIP3   OH2 4339   2.614   5.577   1.320
 1485TIP3    H1 4340   2.588   5.587   1.228
 1485TIP3    H2 4341   2.532   5.559   1.366
 1486TIP3   OH2 4342   3.660   4.004   0.005
 1486TIP3    H1 4343   3.583   4.030   0.054
 1486TIP3    H2 4344   3.674   4.075  -0.058
 1487TIP3   OH2 4345   2.470   4.782   0.328
 1487TIP3    H1 4346   2.406   4.843   0.290
 1487TIP3    H2 4347   2.422   4.700   0.335
 1488TIP3   OH2 4348   2.210   5.135   1.273
 1488TIP3    H1 4349   2.137   5.116   1.214
 1488TIP3    H2 4350   2.243   5.049   1.299
 1489TIP3   OH2 4351   2.063   5.322   0.955
 1489TIP3    H1 4352   2.150   5.361   0.959
 1489TIP3    H2 4353   2.003   5.396   0.951
 1490TIP3   OH2 4354   3.908   5.796   0.967
 1490TIP3    H1 4355   3.914   5.701   0.972
 1490TIP3    H2 4356   3.827   5.817   1.014
 1491TIP3   OH2 4357   3.011   5.561   1.097
 1491TIP3    H1 4358   3.000   5.652   1.125
 1491TIP3    H2 4359   2.942   5.513   1.143
 1492TIP3   OH2 4360   2.786   5.661   0.047
 1492TIP3    H1 4361   2.737   5.641  -0.033
 1492TIP3    H2 4362   2.751   5.745   0.077
 1493TIP3   OH2 4363   2.214   5.558   0.440
 1493TIP3    H1 4364   2.267   5.547   0.519
 1493TIP3    H2 4365   2.162   5.478   0.435
 1494TIP3   OH2 4366   9.505   0.985   7.716
 1494TIP3    H1 4367   9.538   0.905   7.674
 1494TIP3    H2 4368   9.536   0.979   7.806
 1495TIP3   OH2 4369   3.046   5.626  -0.021
 1495TIP3    H1 4370   2.954   5.633   0.005
 1495TIP3    H2 4371   3.089   5.583   0.053
 1496TIP3   OH2 4372   3.799   4.892   1.231
 1496TIP3    H1 4373   3.718   4.899   1.182
 1496TIP3    H2 4374   3.815   4.798   1.237
 1497TIP3   OH2 4375   2.406   5.324   1.234
 1497TIP3    H1 4376   2.458   5.310   1.313
 1497TIP3    H2 4377   2.335   5.261   1.240
 1498TIP3   OH2 4378   2.793   4.131   1.047
 1498TIP3    H1 4379   2.716   4.105   0.996
 1498TIP3    H2 4380   2.763   4.202   1.103
 1499TIP3   OH2 4381   3.331   4.259   1.257
 1499TIP3    H1 4382   3.399   4.230   1.318
 1499TIP3    H2 4383   3.249   4.239   1.302
 1500TIP3   OH2 4384   3.566   4.677   1.180
 1500TIP3    H1 4385   3.520   4.672   1.264
 1500TIP3    H2 4386   3.541   4.763   1.144
 1501TIP3   OH2 4387   9.755   0.169   7.710
 1501TIP3    H1 4388   9.717   0.109   7.646
 1501TIP3    H2 4389   9.837   0.197   7.671
 1502TIP3   OH2 4390   2.907   4.348   0.088
 1502TIP3    H1 4391   2.908   4.287   0.161
 1502TIP3    H2 4392   2.843   4.312   0.027
 1503TIP3   OH2 4393   2.746   4.669   1.080
 1503TIP3    H1 4394   2.695   4.674   1.161
 1503TIP3    H2 4395   2.723   4.748   1.033
 1504TIP3   OH2 4396   2.679   4.530   0.570
 1504TIP3    H1 4397   2.586   4.524   0.595
 1504TIP3    H2 4398   2.683   4.488   0.485
 1505TIP3   OH2 4399   3.105   4.633   0.309
 1505TIP3    H1 4400   3.054   4.702   0.266
 1505TIP3    H2 4401   3.162   4.599   0.241
 1506TIP3   OH2 4402   3.269   4.879   1.381
 1506TIP3    H1 4403   3.242   4.811   1.442
 1506TIP3    H2 4404   3.361   4.895   1.401
 1507TIP3   OH2 4405   3.265   4.631   0.533
 1507TIP3    H1 4406   3.198   4.654   0.468
 1507TIP3    H2 4407   3.313   4.558   0.493
 1508TIP3   OH2 4408   2.567   4.672   1.288
 1508TIP3    H1 4409   2.569   4.734   1.362
 1508TIP3    H2 4410   2.546   4.588   1.328
 1509TIP3   OH2 4411   5.981   8.867   7.920
 1509TIP3    H1 4412   5.985   8.779   7.883
 1509TIP3    H2 4413   5.902   8.866   7.974
 1510TIP3   OH2 4414   2.132   4.312   0.956
 1510TIP3    H1 4415   2.203   4.338   1.015
 1510TIP3    H2 4416   2.174   4.303   0.870
 1511TIP3   OH2 4417   2.034   4.145   0.286
 1511TIP3    H1 4418   2.116   4.193   0.276
 1511TIP3    H2 4419   1.967   4.213   0.288
 1512TIP3   OH2 4420   3.308   4.883   0.957
 1512TIP3    H1 4421   3.332   4.816   0.892
 1512TIP3    H2 4422   3.262   4.834   1.025
 1513TIP3   OH2 4423   3.017   4.397   0.672
 1513TIP3    H1 4424   2.937   4.390   0.723
 1513TIP3    H2 4425   3.085   4.364   0.730
 1514TIP3   OH2 4426   2.425   4.481   0.646
 1514TIP3    H1 4427   2.329   4.482   0.646
 1514TIP3    H2 4428   2.448   4.390   0.627
 1515TIP3   OH2 4429   2.656   4.427   0.309
 1515TIP3    H1 4430   2.749   4.445   0.297
 1515TIP3    H2 4431   2.611   4.491   0.254
 1516TIP3   OH2 4432   3.434   4.422   0.850
 1516TIP3    H1 4433   3.414   4.442   0.941
 1516TIP3    H2 4434   3.366   4.359   0.824
 1517TIP3   OH2 4435   2.473   4.539   0.128
 1517TIP3    H1 4436   2.450   4.448   0.114
 1517TIP3    H2 4437   2.542   4.557   0.064
 1518TIP3   OH2 4438   3.616   6.121   1.057
 1518TIP3    H1 4439   3.609   6.134   0.962
 1518TIP3    H2 4440   3.695   6.170   1.082
 1519TIP3   OH2 4441   2.562   5.234   1.466
 1519TIP3    H1 4442   2.642   5.252   1.515
 1519TIP3    H2 4443   2.492   5.242   1.531
 1520TIP3   OH2 4444   3.038   4.708   0.742
 1520TIP3    H1 4445   3.082   4.643   0.687
 1520TIP3    H2 4446   3.030   4.666   0.827
 1521TIP3   OH2 4447   2.669   4.111   0.735
 1521TIP3    H1 4448   2.597   4.055   0.762
 1521TIP3    H2 4449   2.737   4.051   0.706
 1522TIP3   OH2 4450   3.001   4.605   1.000
 1522TIP3    H1 4451   2.915   4.635   1.029
 1522TIP3    H2 4452   3.064   4.653   1.054
 1523TIP3   OH2 4453   2.760   5.006   0.114
 1523TIP3    H1 4454   2.686   4.950   0.091
 1523TIP3    H2 4455   2.739   5.039   0.202
 1524TIP3   OH2 4456   3.614   5.212   0.718
 1524TIP3    H1 4457   3.647   5.262   0.643
 1524TIP3    H2 4458   3.534   5.169   0.684
 1525TIP3   OH2 4459   3.234   4.285   0.064
 1525TIP3    H1 4460   3.182   4.268  -0.014
 1525TIP3    H2 4461   3.244   4.380   0.067
 1526TIP3   OH2 4462   3.144   5.300   1.132
 1526TIP3    H1 4463   3.185   5.286   1.217
 1526TIP3    H2 4464   3.097   5.383   1.141
 1527TIP3   OH2 4465   3.278   4.555   0.104
 1527TIP3    H1 4466   3.374   4.559   0.109
 1527TIP3    H2 4467   3.254   4.626   0.046
 1528TIP3   OH2 4468   2.456   4.998   0.774
 1528TIP3    H1 4469   2.493   4.978   0.688
 1528TIP3    H2 4470   2.520   4.965   0.837
 1529TIP3   OH2 4471   9.453   0.510   7.931
 1529TIP3    H1 4472   9.408   0.595   7.930
 1529TIP3    H2 4473   9.402   0.456   7.990
 1530TIP3   OH2 4474   2.301   4.897   1.398
 1530TIP3    H1 4475   2.302   4.870   1.490
 1530TIP3    H2 4476   2.223   4.856   1.361
 1531TIP3   OH2 4477   3.041   5.039   1.420
 1531TIP3    H1 4478   2.970   4.980   1.395
 1531TIP3    H2 4479   3.120   4.994   1.390
 1532TIP3   OH2 4480   3.283   5.587   1.022
 1532TIP3    H1 4481   3.189   5.569   1.024
 1532TIP3    H2 4482   3.304   5.619   1.109
 1533TIP3   OH2 4483   0.408   0.007   7.917
 1533TIP3    H1 4484   0.348  -0.038   7.858
 1533TIP3    H2 4485   0.410   0.097   7.884
 1534TIP3   OH2 4486   3.926   5.522   0.983
 1534TIP3    H1 4487   3.836   5.491   0.996
 1534TIP3    H2 4488   3.955   5.479   0.902
 1535TIP3   OH2 4489   0.092   0.801   7.888
 1535TIP3    H1 4490   0.088   0.768   7.978
 1535TIP3    H2 4491   0.031   0.744   7.840
 1536TIP3   OH2 4492   3.390   5.077   0.611
 1536TIP3    H1 4493   3.301   5.055   0.637
 1536TIP3    H2 4494   3.425   4.995   0.575
 1537TIP3   OH2 4495   2.540   5.316   0.438
 1537TIP3    H1 4496   2.530   5.390   0.377
 1537TIP3    H2 4497   2.453   5.306   0.477
 1538TIP3   OH2 4498   2.137   4.559   0.178
 1538TIP3    H1 4499   2.191   4.589   0.252
 1538TIP3    H2 4500   2.048   4.587   0.200
 1539TIP3   OH2 4501   2.673   5.087   0.358
 1539TIP3    H1 4502   2.631   5.171   0.375
 1539TIP3    H2 4503   2.643   5.030   0.428
 1540TIP3   OH2 4504   2.829   5.636   0.888
 1540TIP3    H1 4505   2.865   5.710   0.838
 1540TIP3    H2 4506   2.904   5.602   0.937
 1541TIP3   OH2 4507   2.451   5.538   0.290
 1541TIP3    H1 4508   2.363   5.551   0.327
 1541TIP3    H2 4509   2.492   5.624   0.296
 1542TIP3   OH2 4510   3.177   5.298   0.858
 1542TIP3    H1 4511   3.167   5.296   0.953
 1542TIP3    H2 4512   3.241   5.230   0.839
 1543TIP3   OH2 4513   9.699   0.604   7.800
 1543TIP3    H1 4514   9.765   0.544   7.834
 1543TIP3    H2 4515   9.616   0.568   7.830
 1544TIP3   OH2 4516   3.439   5.789   0.900
 1544TIP3    H1 4517   3.369   5.728   0.923
 1544TIP3    H2 4518   3.401   5.843   0.830
 1545TIP3   OH2 4519   2.505   4.421   1.404
 1545TIP3    H1 4520   2.412   4.442   1.409
 1545TIP3    H2 4521   2.517   4.348   1.464
 1546TIP3   OH2 4522   0.095   0.455   7.918
 1546TIP3    H1 4523   0.077   0.403   7.996
 1546TIP3    H2 4524   0.189   0.475   7.924
 1547TIP3   OH2 4525   2.269   5.529   1.059
 1547TIP3    H1 4526   2.317   5.466   1.113
 1547TIP3    H2 4527   2.281   5.612   1.105
 1548TIP3   OH2 4528   9.044   0.535   7.694
 1548TIP3    H1 4529   9.128   0.493   7.677
 1548TIP3    H2 4530   9.005   0.484   7.765
 1549TIP3   OH2 4531   2.520   5.185   0.048
 1549TIP3    H1 4532   2.608   5.153   0.065
 1549TIP3    H2 4533   2.530   5.280   0.041
 1550TIP3   OH2 4534   2.267   4.920   0.212
 1550TIP3    H1 4535   2.202   4.888   0.274
 1550TIP3    H2 4536   2.239   5.010   0.193
 1551TIP3   OH2 4537   3.370   4.487   1.110
 1551TIP3    H1 4538   3.449   4.526   1.146
 1551TIP3    H2 4539   3.355   4.409   1.163
 1552TIP3   OH2 4540   3.274   4.228   0.322
 1552TIP3    H1 4541   3.246   4.245   0.232
 1552TIP3    H2 4542   3.321   4.308   0.347
 1553TIP3   OH2 4543   9.305   0.736   7.938
 1553TIP3    H1 4544   9.235   0.779   7.987
 1553TIP3    H2 4545   9.281   0.747   7.847
 1554TIP3   OH2 4546   2.928   4.453   0.413
 1554TIP3    H1 4547   2.988   4.517   0.373
 1554TIP3    H2 4548   2.952   4.452   0.505
 1555TIP3   OH2 4549   3.206   4.717   1.150
 1555TIP3    H1 4550   3.225   4.757   1.235
 1555TIP3    H2 4551   3.256   4.635   1.150
 1556TIP3   OH2 4552   3.099   4.172   0.520
 1556TIP3    H1 4553   3.080   4.257   0.560
 1556TIP3    H2 4554   3.160   4.192   0.448
 1557TIP3   OH2 4555   2.537   5.458   0.040
 1557TIP3    H1 4556   2.488   5.512  -0.023
 1557TIP3    H2 4557   2.506   5.487   0.126
 1558TIP3   OH2 4558   2.637   4.110   0.333
 1558TIP3    H1 4559   2.598   4.169   0.398
 1558TIP3    H2 4560   2.729   4.136   0.329
 1559TIP3   OH2 4561   3.821   4.604   1.126
 1559TIP3    H1 4562   3.731   4.625   1.150
 1559TIP3    H2 4563   3.813   4.535   1.060
 1560TIP3   OH2 4564   3.482   4.818   0.533
 1560TIP3    H1 4565   3.404   4.762   0.543
 1560TIP3    H2 4566   3.548   4.777   0.589
 1561TIP3   OH2 4567   8.791   0.506   8.008
 1561TIP3    H1 4568   8.877   0.542   8.031
 1561TIP3    H2 4569   8.810   0.434   7.948
 1562TIP3   OH2 4570   2.209   4.341   0.033
 1562TIP3    H1 4571   2.183   4.428   0.063
 1562TIP3    H2 4572   2.127   4.294   0.020
 1563TIP3   OH2 4573   3.453   5.796   0.470
 1563TIP3    H1 4574   3.409   5.845   0.401
 1563TIP3    H2 4575   3.546   5.809   0.453
 1564TIP3   OH2 4576   2.498   4.060   1.069
 1564TIP3    H1 4577   2.510   4.008   0.990
 1564TIP3    H2 4578   2.527   4.003   1.140
 1565TIP3   OH2 4579   2.068   5.330   0.419
 1565TIP3    H1 4580   2.053   5.247   0.463
 1565TIP3    H2 4581   2.057   5.311   0.326
 1566TIP3   OH2 4582   2.253   5.824   1.466
 1566TIP3    H1 4583   2.336   5.821   1.513
 1566TIP3    H2 4584   2.226   5.733   1.459
 1567TIP3   OH2 4585   2.724   5.735   1.516
 1567TIP3    H1 4586   2.814   5.704   1.522
 1567TIP3    H2 4587   2.686   5.684   1.444
 1568TIP3   OH2 4588   9.221   0.745   7.677
 1568TIP3    H1 4589   9.144   0.689   7.686
 1568TIP3    H2 4590   9.278   0.697   7.617
 1569TIP3   OH2 4591   3.339   5.677   1.275
 1569TIP3    H1 4592   3.356   5.607   1.337
 1569TIP3    H2 4593   3.412   5.738   1.287
 1570TIP3   OH2 4594   2.359   5.240   1.659
 1570TIP3    H1 4595   2.376   5.146   1.668
 1570TIP3    H2 4596   2.273   5.244   1.616
 1571TIP3   OH2 4597   8.943   0.329   7.855
 1571TIP3    H1 4598   8.991   0.304   7.933
 1571TIP3    H2 4599   8.941   0.250   7.801
 1572TIP3   OH2 4600   2.977   5.313   1.434
 1572TIP3    H1 4601   2.929   5.333   1.353
 1572TIP3    H2 4602   3.009   5.224   1.422
 1573TIP3   OH2 4603   9.303   0.434   7.690
 1573TIP3    H1 4604   9.366   0.442   7.762
 1573TIP3    H2 4605   9.294   0.340   7.676
 1574TIP3   OH2 4606   3.460   5.365   1.062
 1574TIP3    H1 4607   3.534   5.390   1.007
 1574TIP3    H2 4608   3.391   5.428   1.041
 1575TIP3   OH2 4609   2.472   4.988   1.666
 1575TIP3    H1 4610   2.545   4.955   1.614
 1575TIP3    H2 4611   2.507   4.998   1.754
 1576TIP3   OH2 4612   2.559   4.833   0.063
 1576TIP3    H1 4613   2.529   4.807   0.150
 1576TIP3    H2 4614   2.596   4.753   0.025
 1577TIP3   OH2 4615   2.835   4.867   1.331
 1577TIP3    H1 4616   2.747   4.902   1.340
 1577TIP3    H2 4617   2.862   4.892   1.242
 1578TIP3   OH2 4618   5.942   9.227   7.965
 1578TIP3    H1 4619   5.933   9.186   7.879
 1578TIP3    H2 4620   6.036   9.230   7.981
 1579TIP3   OH2 4621   3.335   5.234   1.406
 1579TIP3    H1 4622   3.401   5.193   1.350
 1579TIP3    H2 4623   3.330   5.177   1.482
 1580TIP3   OH2 4624   0.188   0.282   7.593
 1580TIP3    H1 4625   0.202   0.262   7.501
 1580TIP3    H2 4626   0.151   0.371   7.593
 1581TIP3   OH2 4627   2.939   4.632   1.431
 1581TIP3    H1 4628   2.940   4.561   1.366
 1581TIP3    H2 4629   2.902   4.707   1.384
 1582TIP3   OH2 4630   2.950   4.431   1.231
 1582TIP3    H1 4631   2.972   4.465   1.144
 1582TIP3    H2 4632   2.861   4.399   1.223
 1583TIP3   OH2 4633   2.945   4.954   1.097
 1583TIP3    H1 4634   3.035   4.978   1.079
 1583TIP3    H2 4635   2.893   5.018   1.049
 1584TIP3   OH2 4636   3.537   4.908   1.476
 1584TIP3    H1 4637   3.556   4.814   1.480
 1584TIP3    H2 4638   3.622   4.949   1.459
 1585TIP3   OH2 4639   3.570   5.179   1.225
 1585TIP3    H1 4640   3.519   5.244   1.176
 1585TIP3    H2 4641   3.660   5.190   1.193
 1586TIP3   OH2 4642   2.826   4.712   1.677
 1586TIP3    H1 4643   2.758   4.649   1.698
 1586TIP3    H2 4644   2.852   4.689   1.587
 1587TIP3   OH2 4645   3.069   4.198   1.332
 1587TIP3    H1 4646   3.027   4.278   1.300
 1587TIP3    H2 4647   3.004   4.129   1.318
 1588TIP3   OH2 4648   3.192   4.666   1.536
 1588TIP3    H1 4649   3.180   4.652   1.630
 1588TIP3    H2 4650   3.107   4.646   1.497
 1589TIP3   OH2 4651   3.443   4.633   1.416
 1589TIP3    H1 4652   3.361   4.626   1.465
 1589TIP3    H2 4653   3.509   4.595   1.474
 1590TIP3   OH2 4654   3.680   4.586   1.558
 1590TIP3    H1 4655   3.693   4.491   1.564
 1590TIP3    H2 4656   3.675   4.615   1.649
 1591TIP3   OH2 4657   2.665   4.493   1.740
 1591TIP3    H1 4658   2.663   4.405   1.701
 1591TIP3    H2 4659   2.702   4.480   1.827
 1592TIP3   OH2 4660   3.133   4.173   1.599
 1592TIP3    H1 4661   3.199   4.104   1.592
 1592TIP3    H2 4662   3.102   4.185   1.509
 1593TIP3   OH2 4663   3.231   4.387   1.742
 1593TIP3    H1 4664   3.199   4.314   1.689
 1593TIP3    H2 4665   3.157   4.449   1.744
 1594TIP3   OH2 4666   8.952   1.002   7.855
 1594TIP3    H1 4667   9.034   1.026   7.812
 1594TIP3    H2 4668   8.887   1.060   7.816
 1595TIP3   OH2 4669   8.424   0.359   7.982
 1595TIP3    H1 4670   8.461   0.425   7.923
 1595TIP3    H2 4671   8.496   0.298   7.997
 1596TIP3   OH2 4672   3.726   5.841   0.464
 1596TIP3    H1 4673   3.743   5.868   0.554
 1596TIP3    H2 4674   3.783   5.896   0.410
 1597TIP3   OH2 4675   3.748   5.869   0.742
 1597TIP3    H1 4676   3.701   5.786   0.739
 1597TIP3    H2 4677   3.817   5.856   0.807
 1598TIP3   OH2 4678   3.811   5.577   1.309
 1598TIP3    H1 4679   3.738   5.583   1.370
 1598TIP3    H2 4680   3.856   5.661   1.317
 1599TIP3   OH2 4681   0.372   0.473   7.942
 1599TIP3    H1 4682   0.437   0.540   7.924
 1599TIP3    H2 4683   0.407   0.425   8.017
 1600TIP3   OH2 4684   3.749   4.940   0.138
 1600TIP3    H1 4685   3.679   4.897   0.188
 1600TIP3    H2 4686   3.810   4.970   0.205
 1601TIP3   OH2 4687   3.803   5.350   0.562
 1601TIP3    H1 4688   3.854   5.283   0.517
 1601TIP3    H2 4689   3.800   5.423   0.500
 1602TIP3   OH2 4690   3.611   5.628   0.753
 1602TIP3    H1 4691   3.543   5.673   0.804
 1602TIP3    H2 4692   3.564   5.588   0.680
 1603TIP3   OH2 4693   0.386   0.247   7.785
 1603TIP3    H1 4694   0.312   0.246   7.724
 1603TIP3    H2 4695   0.372   0.325   7.839
 1604TIP3   OH2 4696   6.778   9.141   7.729
 1604TIP3    H1 4697   6.741   9.160   7.643
 1604TIP3    H2 4698   6.757   9.049   7.745
 1605TIP3   OH2 4699   3.550   4.801   0.266
 1605TIP3    H1 4700   3.555   4.707   0.249
 1605TIP3    H2 4701   3.529   4.808   0.359
 1606TIP3   OH2 4702   2.182   4.885   1.045
 1606TIP3    H1 4703   2.179   4.857   0.954
 1606TIP3    H2 4704   2.274   4.883   1.068
 1607TIP3   OH2 4705   3.823   5.221   1.115
 1607TIP3    H1 4706   3.894   5.158   1.099
 1607TIP3    H2 4707   3.809   5.262   1.030
 1608TIP3   OH2 4708   4.015   5.017   1.114
 1608TIP3    H1 4709   3.939   4.973   1.153
 1608TIP3    H2 4710   4.090   4.963   1.141
 1609TIP3   OH2 4711   6.742   8.874   7.772
 1609TIP3    H1 4712   6.831   8.842   7.783
 1609TIP3    H2 4713   6.686   8.800   7.796
 1610TIP3   OH2 4714   3.562   4.536   0.157
 1610TIP3    H1 4715   3.600   4.449   0.166
 1610TIP3    H2 4716   3.602   4.572   0.078
 1611TIP3   OH2 4717   3.699   4.699   0.672
 1611TIP3    H1 4718   3.780   4.715   0.625
 1611TIP3    H2 4719   3.712   4.741   0.757
 1612TIP3   OH2 4720   3.770   4.855   0.893
 1612TIP3    H1 4721   3.697   4.881   0.950
 1612TIP3    H2 4722   3.798   4.937   0.852
 1613TIP3   OH2 4723   2.406   4.581   1.718
 1613TIP3    H1 4724   2.500   4.564   1.717
 1613TIP3    H2 4725   2.366   4.498   1.746
 1614TIP3   OH2 4726   4.230   4.450   1.429
 1614TIP3    H1 4727   4.296   4.390   1.392
 1614TIP3    H2 4728   4.197   4.499   1.354
 1615TIP3   OH2 4729   3.662   4.280   0.199
 1615TIP3    H1 4730   3.702   4.261   0.283
 1615TIP3    H2 4731   3.597   4.211   0.186
 1616TIP3   OH2 4732   2.379   4.306   1.089
 1616TIP3    H1 4733   2.420   4.219   1.084
 1616TIP3    H2 4734   2.444   4.365   1.051
 1617TIP3   OH2 4735   2.193   4.579   1.100
 1617TIP3    H1 4736   2.248   4.574   1.021
 1617TIP3    H2 4737   2.219   4.661   1.142
 1618TIP3   OH2 4738   4.087   4.568   1.224
 1618TIP3    H1 4739   4.004   4.601   1.258
 1618TIP3    H2 4740   4.063   4.488   1.176
 1619TIP3   OH2 4741   7.008   8.806   7.813
 1619TIP3    H1 4742   7.058   8.764   7.744
 1619TIP3    H2 4743   7.054   8.889   7.829
 1620TIP3   OH2 4744   2.056   4.180   0.558
 1620TIP3    H1 4745   2.006   4.118   0.610
 1620TIP3    H2 4746   2.037   4.158   0.467
 1621TIP3   OH2 4747   3.329   5.736   0.139
 1621TIP3    H1 4748   3.363   5.738   0.050
 1621TIP3    H2 4749   3.343   5.825   0.172
 1622TIP3   OH2 4750   2.371   4.121   1.441
 1622TIP3    H1 4751   2.311   4.117   1.516
 1622TIP3    H2 4752   2.314   4.116   1.364
 1623TIP3   OH2 4753   2.393   5.544   1.486
 1623TIP3    H1 4754   2.299   5.533   1.474
 1623TIP3    H2 4755   2.407   5.527   1.579
 1624TIP3   OH2 4756   2.602   5.599   1.039
 1624TIP3    H1 4757   2.549   5.672   1.006
 1624TIP3    H2 4758   2.686   5.609   0.993
 1625TIP3   OH2 4759   2.993   5.827   1.176
 1625TIP3    H1 4760   3.031   5.820   1.264
 1625TIP3    H2 4761   3.054   5.882   1.128
 1626TIP3   OH2 4762   3.181   5.984   1.050
 1626TIP3    H1 4763   3.239   5.932   0.993
 1626TIP3    H2 4764   3.241   6.038   1.101
 1627TIP3   OH2 4765   3.997   4.300   1.138
 1627TIP3    H1 4766   3.908   4.280   1.112
 1627TIP3    H2 4767   4.044   4.217   1.132
 1628TIP3   OH2 4768   2.264   5.837   1.089
 1628TIP3    H1 4769   2.172   5.853   1.067
 1628TIP3    H2 4770   2.285   5.905   1.153
 1629TIP3   OH2 4771   2.491   5.828   0.934
 1629TIP3    H1 4772   2.408   5.832   0.982
 1629TIP3    H2 4773   2.466   5.848   0.843
 1630TIP3   OH2 4774   2.906   5.847   0.724
 1630TIP3    H1 4775   2.831   5.855   0.665
 1630TIP3    H2 4776   2.914   5.934   0.764
 1631TIP3   OH2 4777   3.169   5.787   0.778
 1631TIP3    H1 4778   3.077   5.803   0.757
 1631TIP3    H2 4779   3.218   5.851   0.726
 1632TIP3   OH2 4780   3.373   5.957   0.678
 1632TIP3    H1 4781   3.364   6.043   0.636
 1632TIP3    H2 4782   3.398   5.899   0.606
 1633TIP3   OH2 4783   2.182   5.639   0.819
 1633TIP3    H1 4784   2.214   5.610   0.904
 1633TIP3    H2 4785   2.240   5.595   0.756
 1634TIP3   OH2 4786   2.372   5.518   0.662
 1634TIP3    H1 4787   2.382   5.432   0.703
 1634TIP3    H2 4788   2.460   5.556   0.665
 1635TIP3   OH2 4789   2.645   5.590   0.684
 1635TIP3    H1 4790   2.663   5.498   0.665
 1635TIP3    H2 4791   2.698   5.610   0.761
 1636TIP3   OH2 4792   3.219   4.247   0.796
 1636TIP3    H1 4793   3.170   4.179   0.844
 1636TIP3    H2 4794   3.278   4.198   0.739
 1637TIP3   OH2 4795   3.695   4.171   0.675
 1637TIP3    H1 4796   3.726   4.220   0.598
 1637TIP3    H2 4797   3.600   4.173   0.667
 1638TIP3   OH2 4798   3.811   4.228   0.427
 1638TIP3    H1 4799   3.882   4.170   0.399
 1638TIP3    H2 4800   3.847   4.317   0.415
 1639TIP3   OH2 4801   2.396   4.034   0.729
 1639TIP3    H1 4802   2.341   4.003   0.801
 1639TIP3    H2 4803   2.412   3.956   0.676
 1640TIP3   OH2 4804   2.233   3.828   0.409
 1640TIP3    H1 4805   2.325   3.854   0.401
 1640TIP3    H2 4806   2.189   3.871   0.335
 1641TIP3   OH2 4807   2.940   4.018   0.682
 1641TIP3    H1 4808   2.995   4.067   0.621
 1641TIP3    H2 4809   2.983   4.029   0.767
 1642TIP3   OH2 4810   3.414   4.115   0.648
 1642TIP3    H1 4811   3.403   4.080   0.559
 1642TIP3    H2 4812   3.419   4.037   0.704
 1643TIP3   OH2 4813   3.473   4.074   0.196
 1643TIP3    H1 4814   3.396   4.123   0.224
 1643TIP3    H2 4815   3.473   3.996   0.251
 1644TIP3   OH2 4816   1.860   5.439   0.226
 1644TIP3    H1 4817   1.848   5.367   0.165
 1644TIP3    H2 4818   1.889   5.512   0.172
 1645TIP3   OH2 4819   2.357   3.994   0.178
 1645TIP3    H1 4820   2.270   3.971   0.143
 1645TIP3    H2 4821   2.396   3.910   0.202
 1646TIP3   OH2 4822   2.890   4.203   0.323
 1646TIP3    H1 4823   2.949   4.148   0.374
 1646TIP3    H2 4824   2.902   4.291   0.359
 1647TIP3   OH2 4825   9.228   1.004   7.777
 1647TIP3    H1 4826   9.315   1.030   7.745
 1647TIP3    H2 4827   9.212   0.919   7.736
 1648TIP3   OH2 4828   0.147   1.074   7.875
 1648TIP3    H1 4829   0.130   0.980   7.872
 1648TIP3    H2 4830   0.069   1.114   7.837
 1649TIP3   OH2 4831   2.675   4.221   1.669
 1649TIP3    H1 4832   2.641   4.149   1.721
 1649TIP3    H2 4833   2.767   4.229   1.696
 1650TIP3   OH2 4834   2.925   4.226   1.785
 1650TIP3    H1 4835   2.999   4.201   1.729
 1650TIP3    H2 4836   2.918   4.154   1.847
 1651TIP3   OH2 4837   8.575   0.822   7.890
 1651TIP3    H1 4838   8.535   0.883   7.952
 1651TIP3    H2 4839   8.665   0.852   7.880
 1652TIP3   OH2 4840   3.739   4.314   1.559
 1652TIP3    H1 4841   3.755   4.284   1.648
 1652TIP3    H2 4842   3.825   4.310   1.516
 1653TIP3   OH2 4843   3.656   5.849   1.065
 1653TIP3    H1 4844   3.583   5.815   1.012
 1653TIP3    H2 4845   3.639   5.943   1.072
 1654TIP3   OH2 4846   4.900   5.184   0.252
 1654TIP3    H1 4847   4.962   5.170   0.323
 1654TIP3    H2 4848   4.866   5.097   0.231
 1655TIP3   OH2 4849   4.232   5.085   0.571
 1655TIP3    H1 4850   4.262   5.033   0.645
 1655TIP3    H2 4851   4.311   5.102   0.520
 1656TIP3   OH2 4852   4.217   5.530   0.280
 1656TIP3    H1 4853   4.200   5.436   0.274
 1656TIP3    H2 4854   4.300   5.536   0.328
 1657TIP3   OH2 4855   3.910   4.729   0.046
 1657TIP3    H1 4856   3.861   4.806   0.074
 1657TIP3    H2 4857   3.845   4.673   0.004
 1658TIP3   OH2 4858   3.981   5.013   0.271
 1658TIP3    H1 4859   4.030   4.937   0.300
 1658TIP3    H2 4860   4.030   5.046   0.195
 1659TIP3   OH2 4861   4.758   5.415   0.242
 1659TIP3    H1 4862   4.709   5.418   0.160
 1659TIP3    H2 4863   4.804   5.330   0.239
 1660TIP3   OH2 4864   5.688   4.760   0.257
 1660TIP3    H1 4865   5.744   4.822   0.305
 1660TIP3    H2 4866   5.740   4.736   0.180
 1661TIP3   OH2 4867   5.151   4.932   0.288
 1661TIP3    H1 4868   5.189   4.846   0.309
 1661TIP3    H2 4869   5.125   4.925   0.196
 1662TIP3   OH2 4870   4.504   4.593   0.223
 1662TIP3    H1 4871   4.479   4.664   0.164
 1662TIP3    H2 4872   4.451   4.518   0.195
 1663TIP3   OH2 4873   1.864   0.059   7.921
 1663TIP3    H1 4874   1.943   0.063   7.976
 1663TIP3    H2 4875   1.878  -0.018   7.865
 1664TIP3   OH2 4876   4.129   4.801   0.358
 1664TIP3    H1 4877   4.212   4.779   0.402
 1664TIP3    H2 4878   4.131   4.750   0.277
 1665TIP3   OH2 4879   4.546   4.996   0.177
 1665TIP3    H1 4880   4.639   4.973   0.182
 1665TIP3    H2 4881   4.504   4.919   0.140
 1666TIP3   OH2 4882   5.807   4.973   0.382
 1666TIP3    H1 4883   5.731   5.030   0.392
 1666TIP3    H2 4884   5.850   4.977   0.468
 1667TIP3   OH2 4885   4.475   4.596   0.685
 1667TIP3    H1 4886   4.424   4.626   0.610
 1667TIP3    H2 4887   4.418   4.610   0.761
 1668TIP3   OH2 4888   4.556   5.370   0.439
 1668TIP3    H1 4889   4.499   5.433   0.482
 1668TIP3    H2 4890   4.589   5.416   0.362
 1669TIP3   OH2 4891   5.354   4.705   0.070
 1669TIP3    H1 4892   5.397   4.631   0.112
 1669TIP3    H2 4893   5.408   4.780   0.094
 1670TIP3   OH2 4894   4.376   4.698   0.447
 1670TIP3    H1 4895   4.433   4.770   0.474
 1670TIP3    H2 4896   4.422   4.656   0.375
 1671TIP3   OH2 4897   4.400   5.567   0.548
 1671TIP3    H1 4898   4.394   5.660   0.528
 1671TIP3    H2 4899   4.324   5.549   0.604
 1672TIP3   OH2 4900   0.533   0.674   7.826
 1672TIP3    H1 4901   0.448   0.690   7.785
 1672TIP3    H2 4902   0.559   0.759   7.863
 1673TIP3   OH2 4903   2.019   1.185   7.991
 1673TIP3    H1 4904   1.950   1.148   7.936
 1673TIP3    H2 4905   2.097   1.186   7.935
 1674TIP3   OH2 4906   5.503   4.654   0.433
 1674TIP3    H1 4907   5.415   4.662   0.397
 1674TIP3    H2 4908   5.561   4.678   0.360
 1675TIP3   OH2 4909   4.826   4.288   0.421
 1675TIP3    H1 4910   4.819   4.196   0.446
 1675TIP3    H2 4911   4.748   4.330   0.458
 1676TIP3   OH2 4912   5.431   5.619   0.433
 1676TIP3    H1 4913   5.473   5.541   0.399
 1676TIP3    H2 4914   5.381   5.654   0.359
 1677TIP3   OH2 4915   5.540   5.284   0.139
 1677TIP3    H1 4916   5.465   5.334   0.169
 1677TIP3    H2 4917   5.589   5.345   0.082
 1678TIP3   OH2 4918   5.328   5.172   0.572
 1678TIP3    H1 4919   5.324   5.247   0.632
 1678TIP3    H2 4920   5.246   5.175   0.524
 1679TIP3   OH2 4921   4.361   5.153   0.039
 1679TIP3    H1 4922   4.300   5.101  -0.012
 1679TIP3    H2 4923   4.424   5.090   0.074
 1680TIP3   OH2 4924   4.478   5.572   0.162
 1680TIP3    H1 4925   4.391   5.572   0.123
 1680TIP3    H2 4926   4.527   5.507   0.112
 1681TIP3   OH2 4927   4.453   5.118   0.406
 1681TIP3    H1 4928   4.485   5.085   0.323
 1681TIP3    H2 4929   4.488   5.207   0.412
 1682TIP3   OH2 4930   4.849   5.705   0.306
 1682TIP3    H1 4931   4.847   5.789   0.350
 1682TIP3    H2 4932   4.890   5.723   0.221
 1683TIP3   OH2 4933   4.596   5.647   0.734
 1683TIP3    H1 4934   4.538   5.708   0.780
 1683TIP3    H2 4935   4.539   5.598   0.675
 1684TIP3   OH2 4936   4.371   5.224   0.857
 1684TIP3    H1 4937   4.372   5.316   0.883
 1684TIP3    H2 4938   4.278   5.202   0.853
 1685TIP3   OH2 4939   4.404   5.830   0.809
 1685TIP3    H1 4940   4.376   5.839   0.717
 1685TIP3    H2 4941   4.323   5.816   0.857
 1686TIP3   OH2 4942   0.905   0.379   7.910
 1686TIP3    H1 4943   0.843   0.418   7.848
 1686TIP3    H2 4944   0.883   0.286   7.909
 1687TIP3   OH2 4945   4.001   5.387   0.758
 1687TIP3    H1 4946   3.931   5.369   0.696
 1687TIP3    H2 4947   4.034   5.300   0.782
 1688TIP3   OH2 4948   3.837   5.589   0.413
 1688TIP3    H1 4949   3.925   5.616   0.439
 1688TIP3    H2 4950   3.781   5.662   0.440
 1689TIP3   OH2 4951   5.745   6.002   0.356
 1689TIP3    H1 4952   5.729   5.929   0.296
 1689TIP3    H2 4953   5.658   6.025   0.389
 1690TIP3   OH2 4954   4.765   5.818   0.602
 1690TIP3    H1 4955   4.754   5.903   0.644
 1690TIP3    H2 4956   4.705   5.760   0.649
 1691TIP3   OH2 4957   0.748   1.156   7.911
 1691TIP3    H1 4958   0.798   1.149   7.992
 1691TIP3    H2 4959   0.698   1.075   7.906
 1692TIP3   OH2 4960   5.552   5.110   0.741
 1692TIP3    H1 4961   5.481   5.120   0.677
 1692TIP3    H2 4962   5.579   5.018   0.733
 1693TIP3   OH2 4963   4.193   5.580   0.727
 1693TIP3    H1 4964   4.244   5.568   0.808
 1693TIP3    H2 4965   4.123   5.515   0.734
 1694TIP3   OH2 4966   4.586   4.384   0.537
 1694TIP3    H1 4967   4.505   4.347   0.504
 1694TIP3    H2 4968   4.559   4.461   0.588
 1695TIP3   OH2 4969   5.119   4.499   0.741
 1695TIP3    H1 4970   5.190   4.475   0.800
 1695TIP3    H2 4971   5.039   4.480   0.790
 1696TIP3   OH2 4972   5.339   4.908   0.658
 1696TIP3    H1 4973   5.305   4.907   0.748
 1696TIP3    H2 4974   5.320   4.996   0.627
 1697TIP3   OH2 4975   4.528   4.903   0.559
 1697TIP3    H1 4976   4.478   4.909   0.640
 1697TIP3    H2 4977   4.503   4.982   0.510
 1698TIP3   OH2 4978   4.405   4.792   0.061
 1698TIP3    H1 4979   4.316   4.765   0.085
 1698TIP3    H2 4980   4.414   4.766  -0.031
 1699TIP3   OH2 4981   5.063   5.135   0.869
 1699TIP3    H1 4982   5.038   5.067   0.932
 1699TIP3    H2 4983   5.155   5.155   0.889
 1700TIP3   OH2 4984   1.792   0.297   8.029
 1700TIP3    H1 4985   1.739   0.338   7.960
 1700TIP3    H2 4986   1.815   0.211   7.993
 1701TIP3   OH2 4987   4.355   4.926   0.770
 1701TIP3    H1 4988   4.360   4.989   0.842
 1701TIP3    H2 4989   4.333   4.843   0.812
 1702TIP3   OH2 4990   3.943   4.452   0.348
 1702TIP3    H1 4991   4.023   4.480   0.393
 1702TIP3    H2 4992   3.972   4.421   0.263
 1703TIP3   OH2 4993   7.132   9.052   7.858
 1703TIP3    H1 4994   7.180   9.086   7.783
 1703TIP3    H2 4995   7.064   9.117   7.876
 1704TIP3   OH2 4996   5.078   5.130   0.454
 1704TIP3    H1 4997   5.112   5.061   0.397
 1704TIP3    H2 4998   5.040   5.082   0.528
 1705TIP3   OH2 4999   4.778   4.602   0.136
 1705TIP3    H1 5000   4.696   4.591   0.184
 1705TIP3    H2 5001   4.846   4.580   0.200
 1706TIP3   OH2 5002   4.168   4.670   0.121
 1706TIP3    H1 5003   4.079   4.674   0.087
 1706TIP3    H2 5004   4.194   4.578   0.110
 1707TIP3   OH2 5005   1.176   0.069   7.810
 1707TIP3    H1 5006   1.271   0.065   7.823
 1707TIP3    H2 5007   1.165   0.087   7.716
 1708TIP3   OH2 5008   5.219   4.672   0.360
 1708TIP3    H1 5009   5.178   4.688   0.444
 1708TIP3    H2 5010   5.163   4.608   0.316
 1709TIP3   OH2 5011   5.384   6.329   0.476
 1709TIP3    H1 5012   5.433   6.393   0.425
 1709TIP3    H2 5013   5.401   6.353   0.567
 1710TIP3   OH2 5014   4.358   5.492   0.954
 1710TIP3    H1 5015   4.439   5.506   1.004
 1710TIP3    H2 5016   4.288   5.496   1.019
 1711TIP3   OH2 5017   4.814   4.927   0.220
 1711TIP3    H1 5018   4.881   4.874   0.177
 1711TIP3    H2 5019   4.807   4.892   0.308
 1712TIP3   OH2 5020   4.308   4.425   0.108
 1712TIP3    H1 5021   4.281   4.345   0.153
 1712TIP3    H2 5022   4.320   4.399   0.017
 1713TIP3   OH2 5023   4.788   4.861   0.484
 1713TIP3    H1 5024   4.701   4.878   0.519
 1713TIP3    H2 5025   4.848   4.900   0.548
 1714TIP3   OH2 5026   5.339   5.463   0.177
 1714TIP3    H1 5027   5.300   5.545   0.207
 1714TIP3    H2 5028   5.265   5.404   0.165
 1715TIP3   OH2 5029   4.834   5.506   0.563
 1715TIP3    H1 5030   4.825   5.422   0.609
 1715TIP3    H2 5031   4.838   5.571   0.633
 1716TIP3   OH2 5032   4.232   5.257   0.261
 1716TIP3    H1 5033   4.271   5.227   0.179
 1716TIP3    H2 5034   4.262   5.194   0.326
 1717TIP3   OH2 5035   4.098   5.149   0.881
 1717TIP3    H1 5036   4.096   5.120   0.972
 1717TIP3    H2 5037   4.023   5.106   0.841
 1718TIP3   OH2 5038   4.838   5.299   0.904
 1718TIP3    H1 5039   4.769   5.236   0.882
 1718TIP3    H2 5040   4.919   5.256   0.878
 1719TIP3   OH2 5041   5.031   5.773   0.556
 1719TIP3    H1 5042   4.937   5.781   0.571
 1719TIP3    H2 5043   5.071   5.830   0.622
 1720TIP3   OH2 5044   5.700   5.701   0.475
 1720TIP3    H1 5045   5.610   5.676   0.456
 1720TIP3    H2 5046   5.748   5.618   0.475
 1721TIP3   OH2 5047   5.131   5.295   0.144
 1721TIP3    H1 5048   5.046   5.252   0.156
 1721TIP3    H2 5049   5.187   5.228   0.106
 1722TIP3   OH2 5050   1.052   0.939   7.925
 1722TIP3    H1 5051   1.051   1.023   7.880
 1722TIP3    H2 5052   0.961   0.909   7.922
 1723TIP3   OH2 5053   0.631   0.227   7.660
 1723TIP3    H1 5054   0.666   0.313   7.681
 1723TIP3    H2 5055   0.544   0.226   7.699
 1724TIP3   OH2 5056   1.265   0.751   7.991
 1724TIP3    H1 5057   1.207   0.806   7.939
 1724TIP3    H2 5058   1.216   0.669   8.004
 1725TIP3   OH2 5059   4.609   5.907   0.381
 1725TIP3    H1 5060   4.654   5.955   0.312
 1725TIP3    H2 5061   4.679   5.881   0.441
 1726TIP3   OH2 5062   5.038   5.462   0.348
 1726TIP3    H1 5063   5.101   5.474   0.419
 1726TIP3    H2 5064   5.082   5.401   0.288
 1727TIP3   OH2 5065   5.181   6.147   0.411
 1727TIP3    H1 5066   5.219   6.094   0.341
 1727TIP3    H2 5067   5.250   6.210   0.433
 1728TIP3   OH2 5068   4.292   4.678   0.886
 1728TIP3    H1 5069   4.197   4.693   0.894
 1728TIP3    H2 5070   4.313   4.617   0.957
 1729TIP3   OH2 5071   4.049   5.774   0.539
 1729TIP3    H1 5072   4.098   5.714   0.595
 1729TIP3    H2 5073   4.060   5.860   0.581
 1730TIP3   OH2 5074   0.718   0.487   7.731
 1730TIP3    H1 5075   0.653   0.544   7.772
 1730TIP3    H2 5076   0.740   0.530   7.649
 1731TIP3   OH2 5077   5.126   4.738   0.611
 1731TIP3    H1 5078   5.213   4.774   0.630
 1731TIP3    H2 5079   5.123   4.656   0.659
 1732TIP3   OH2 5080   1.448   0.058   7.879
 1732TIP3    H1 5081   1.533   0.086   7.846
 1732TIP3    H2 5082   1.462   0.042   7.972
 1733TIP3   OH2 5083   4.979   4.971   0.652
 1733TIP3    H1 5084   5.005   5.015   0.734
 1733TIP3    H2 5085   5.027   4.888   0.653
 1734TIP3   OH2 5086   4.882   4.386  -0.015
 1734TIP3    H1 5087   4.856   4.468   0.028
 1734TIP3    H2 5088   4.977   4.381   0.000
 1735TIP3   OH2 5089   7.626   9.030   7.831
 1735TIP3    H1 5090   7.625   9.126   7.822
 1735TIP3    H2 5091   7.718   9.006   7.819
 1736TIP3   OH2 5092   5.602   4.842   0.629
 1736TIP3    H1 5093   5.508   4.856   0.646
 1736TIP3    H2 5094   5.604   4.775   0.561
 1737TIP3   OH2 5095   5.283   5.092   0.048
 1737TIP3    H1 5096   5.221   5.020   0.032
 1737TIP3    H2 5097   5.364   5.048   0.075
 1738TIP3   OH2 5098   7.213   9.195   7.638
 1738TIP3    H1 5099   7.203   9.290   7.643
 1738TIP3    H2 5100   7.189   9.173   7.549
 1739TIP3   OH2 5101   4.328   4.292   0.497
 1739TIP3    H1 5102   4.297   4.260   0.412
 1739TIP3    H2 5103   4.317   4.217   0.556
 1740TIP3   OH2 5104   0.559   0.943   7.908
 1740TIP3    H1 5105   0.540   0.971   7.998
 1740TIP3    H2 5106   0.492   0.986   7.855
 1741TIP3   OH2 5107   4.047   6.082   0.958
 1741TIP3    H1 5108   4.129   6.078   1.007
 1741TIP3    H2 5109   4.020   5.990   0.948
 1742TIP3   OH2 5110   4.513   5.989   1.005
 1742TIP3    H1 5111   4.601   5.954   1.016
 1742TIP3    H2 5112   4.476   5.940   0.932
 1743TIP3   OH2 5113   5.150   5.931   0.741
 1743TIP3    H1 5114   5.136   5.861   0.804
 1743TIP3    H2 5115   5.204   5.995   0.788
 1744TIP3   OH2 5116   4.152   5.497   1.142
 1744TIP3    H1 5117   4.172   5.404   1.153
 1744TIP3    H2 5118   4.066   5.498   1.101
 1745TIP3   OH2 5119   4.773   5.572   0.931
 1745TIP3    H1 5120   4.716   5.584   0.855
 1745TIP3    H2 5121   4.812   5.485   0.919
 1746TIP3   OH2 5122   5.196   5.553   0.554
 1746TIP3    H1 5123   5.278   5.590   0.522
 1746TIP3    H2 5124   5.137   5.628   0.561
 1747TIP3   OH2 5125   4.272   5.248   1.150
 1747TIP3    H1 5126   4.343   5.203   1.105
 1747TIP3    H2 5127   4.301   5.256   1.241
 1748TIP3   OH2 5128   4.631   5.126   0.812
 1748TIP3    H1 5129   4.542   5.159   0.823
 1748TIP3    H2 5130   4.661   5.164   0.729
 1749TIP3   OH2 5131   5.117   5.484   0.915
 1749TIP3    H1 5132   5.181   5.445   0.856
 1749TIP3    H2 5133   5.123   5.432   0.995
 1750TIP3   OH2 5134   4.730   4.889   0.918
 1750TIP3    H1 5135   4.730   4.818   0.854
 1750TIP3    H2 5136   4.696   4.964   0.869
 1751TIP3   OH2 5137   4.734   4.684   0.721
 1751TIP3    H1 5138   4.763   4.706   0.633
 1751TIP3    H2 5139   4.643   4.656   0.710
 1752TIP3   OH2 5140   4.745   5.238   0.588
 1752TIP3    H1 5141   4.799   5.185   0.529
 1752TIP3    H2 5142   4.680   5.278   0.532
 1753TIP3   OH2 5143   5.329   5.153   0.965
 1753TIP3    H1 5144   5.338   5.058   0.965
 1753TIP3    H2 5145   5.414   5.185   0.934
 1754TIP3   OH2 5146   5.331   5.402   0.736
 1754TIP3    H1 5147   5.277   5.456   0.677
 1754TIP3    H2 5148   5.421   5.427   0.715
 1755TIP3   OH2 5149   4.618   4.969   1.163
 1755TIP3    H1 5150   4.551   4.905   1.186
 1755TIP3    H2 5151   4.646   4.945   1.075
 1756TIP3   OH2 5152   4.858   4.454   0.824
 1756TIP3    H1 5153   4.815   4.534   0.793
 1756TIP3    H2 5154   4.792   4.385   0.810
 1757TIP3   OH2 5155   4.985   4.922   1.022
 1757TIP3    H1 5156   4.975   4.908   1.116
 1757TIP3    H2 5157   4.899   4.902   0.985
 1758TIP3   OH2 5158   5.240   4.885   0.908
 1758TIP3    H1 5159   5.159   4.878   0.958
 1758TIP3    H2 5160   5.307   4.846   0.964
 1759TIP3   OH2 5161   5.487   4.846   1.039
 1759TIP3    H1 5162   5.497   4.751   1.047
 1759TIP3    H2 5163   5.480   4.877   1.130
 1760TIP3   OH2 5164   4.461   4.744   1.225
 1760TIP3    H1 5165   4.462   4.657   1.187
 1760TIP3    H2 5166   4.499   4.733   1.313
 1761TIP3   OH2 5167   4.928   4.431   1.088
 1761TIP3    H1 5168   4.996   4.363   1.082
 1761TIP3    H2 5169   4.896   4.441   0.998
 1762TIP3   OH2 5170   5.026   4.646   1.229
 1762TIP3    H1 5171   4.995   4.572   1.176
 1762TIP3    H2 5172   4.952   4.707   1.230
 1763TIP3   OH2 5173   0.364   1.215   7.963
 1763TIP3    H1 5174   0.293   1.166   7.923
 1763TIP3    H2 5175   0.397   1.158   8.032
 1764TIP3   OH2 5176   3.781   5.688   0.150
 1764TIP3    H1 5177   3.774   5.626   0.222
 1764TIP3    H2 5178   3.830   5.762   0.186
 1765TIP3   OH2 5179   5.530   6.187   0.194
 1765TIP3    H1 5180   5.506   6.111   0.141
 1765TIP3    H2 5181   5.523   6.156   0.284
 1766TIP3   OH2 5182   5.445   5.832   0.786
 1766TIP3    H1 5183   5.402   5.821   0.871
 1766TIP3    H2 5184   5.538   5.830   0.805
 1767TIP3   OH2 5185   5.291   5.984   0.220
 1767TIP3    H1 5186   5.272   5.906   0.273
 1767TIP3    H2 5187   5.293   5.952   0.130
 1768TIP3   OH2 5188   3.970   5.131   0.517
 1768TIP3    H1 5189   3.960   5.096   0.428
 1768TIP3    H2 5190   4.063   5.125   0.535
 1769TIP3   OH2 5191   5.590   5.465   0.675
 1769TIP3    H1 5192   5.656   5.400   0.696
 1769TIP3    H2 5193   5.591   5.471   0.579
 1770TIP3   OH2 5194   5.769   5.270   0.725
 1770TIP3    H1 5195   5.700   5.204   0.725
 1770TIP3    H2 5196   5.848   5.221   0.749
 1771TIP3   OH2 5197   5.509   4.939   0.117
 1771TIP3    H1 5198   5.564   4.936   0.039
 1771TIP3    H2 5199   5.564   4.905   0.187
 1772TIP3   OH2 5200   5.562   5.128   0.382
 1772TIP3    H1 5201   5.480   5.111   0.429
 1772TIP3    H2 5202   5.535   5.148   0.293
 1773TIP3   OH2 5203   4.202   4.832   1.206
 1773TIP3    H1 5204   4.295   4.812   1.209
 1773TIP3    H2 5205   4.159   4.748   1.219
 1774TIP3   OH2 5206   6.010   4.691   0.919
 1774TIP3    H1 5207   6.077   4.628   0.893
 1774TIP3    H2 5208   5.986   4.735   0.837
 1775TIP3   OH2 5209   4.164   4.515   0.507
 1775TIP3    H1 5210   4.215   4.435   0.515
 1775TIP3    H2 5211   4.229   4.583   0.488
 1776TIP3   OH2 5212   3.946   4.780   0.576
 1776TIP3    H1 5213   3.995   4.762   0.495
 1776TIP3    H2 5214   3.975   4.867   0.603
 1777TIP3   OH2 5215   5.873   4.791   0.699
 1777TIP3    H1 5216   5.787   4.834   0.703
 1777TIP3    H2 5217   5.855   4.705   0.660
 1778TIP3   OH2 5218   3.926   4.310   0.094
 1778TIP3    H1 5219   3.837   4.295   0.125
 1778TIP3    H2 5220   3.915   4.357   0.012
 1779TIP3   OH2 5221   4.156   4.368   0.912
 1779TIP3    H1 5222   4.099   4.346   0.986
 1779TIP3    H2 5223   4.097   4.407   0.847
 1780TIP3   OH2 5224   4.185   5.802   0.976
 1780TIP3    H1 5225   4.091   5.789   0.964
 1780TIP3    H2 5226   4.201   5.782   1.068
 1781TIP3   OH2 5227   4.387   5.839   0.528
 1781TIP3    H1 5228   4.327   5.903   0.489
 1781TIP3    H2 5229   4.471   5.857   0.485
 1782TIP3   OH2 5230   4.758   6.071   0.706
 1782TIP3    H1 5231   4.809   6.062   0.786
 1782TIP3    H2 5232   4.818   6.112   0.644
 1783TIP3   OH2 5233   4.948   6.188   0.548
 1783TIP3    H1 5234   5.036   6.174   0.514
 1783TIP3    H2 5235   4.959   6.257   0.613
 1784TIP3   OH2 5236   5.781   4.532   0.631
 1784TIP3    H1 5237   5.693   4.503   0.608
 1784TIP3    H2 5238   5.834   4.452   0.627
 1785TIP3   OH2 5239   4.058   6.091   0.570
 1785TIP3    H1 5240   3.966   6.107   0.549
 1785TIP3    H2 5241   4.080   6.159   0.634
 1786TIP3   OH2 5242   4.274   6.056   0.406
 1786TIP3    H1 5243   4.195   6.070   0.458
 1786TIP3    H2 5244   4.255   6.093   0.321
 1787TIP3   OH2 5245   4.681   6.067   0.163
 1787TIP3    H1 5246   4.601   6.085   0.115
 1787TIP3    H2 5247   4.699   6.148   0.211
 1788TIP3   OH2 5248   4.932   6.049   0.058
 1788TIP3    H1 5249   4.842   6.042   0.090
 1788TIP3    H2 5250   4.968   6.125   0.104
 1789TIP3   OH2 5251   3.959   5.869   0.292
 1789TIP3    H1 5252   3.986   5.841   0.379
 1789TIP3    H2 5253   4.028   5.836   0.233
 1790TIP3   OH2 5254   4.159   5.757   0.145
 1790TIP3    H1 5255   4.167   5.674   0.191
 1790TIP3    H2 5256   4.244   5.799   0.155
 1791TIP3   OH2 5257   4.421   5.838   0.186
 1791TIP3    H1 5258   4.455   5.749   0.173
 1791TIP3    H2 5259   4.473   5.873   0.258
 1792TIP3   OH2 5260   5.008   4.483   0.260
 1792TIP3    H1 5261   4.973   4.412   0.313
 1792TIP3    H2 5262   5.071   4.440   0.202
 1793TIP3   OH2 5263   5.480   4.467   0.156
 1793TIP3    H1 5264   5.557   4.458   0.100
 1793TIP3    H2 5265   5.416   4.407   0.119
 1794TIP3   OH2 5266   8.953   9.024   7.984
 1794TIP3    H1 5267   9.018   8.955   8.000
 1794TIP3    H2 5268   9.005   9.098   7.952
 1795TIP3   OH2 5269   4.234   4.198   0.254
 1795TIP3    H1 5270   4.146   4.163   0.265
 1795TIP3    H2 5271   4.290   4.121   0.247
 1796TIP3   OH2 5272   7.301   8.716   7.946
 1796TIP3    H1 5273   7.343   8.765   7.875
 1796TIP3    H2 5274   7.270   8.784   8.006
 1797TIP3   OH2 5275   4.724   4.237   0.162
 1797TIP3    H1 5276   4.778   4.284   0.099
 1797TIP3    H2 5277   4.762   4.258   0.247
 1798TIP3   OH2 5278   5.174   4.341   0.086
 1798TIP3    H1 5279   5.240   4.314   0.022
 1798TIP3    H2 5280   5.188   4.282   0.161
 1799TIP3   OH2 5281   7.428   8.850   7.747
 1799TIP3    H1 5282   7.450   8.825   7.658
 1799TIP3    H2 5283   7.494   8.915   7.771
 1800TIP3   OH2 5284   7.901   9.038   7.818
 1800TIP3    H1 5285   7.970   8.985   7.858
 1800TIP3    H2 5286   7.930   9.128   7.829
 1801TIP3   OH2 5287   4.470   4.474   1.143
 1801TIP3    H1 5288   4.434   4.406   1.202
 1801TIP3    H2 5289   4.562   4.482   1.169
 1802TIP3   OH2 5290   4.716   4.482   1.267
 1802TIP3    H1 5291   4.793   4.458   1.214
 1802TIP3    H2 5292   4.709   4.411   1.331
 1803TIP3   OH2 5293   5.528   4.572   1.049
 1803TIP3    H1 5294   5.545   4.542   1.138
 1803TIP3    H2 5295   5.613   4.565   1.005
 1804TIP3   OH2 5296   5.500   6.080   0.441
 1804TIP3    H1 5297   5.440   6.013   0.473
 1804TIP3    H2 5298   5.465   6.162   0.478
 1805TIP3   OH2 5299   6.277   4.722   0.197
 1805TIP3    H1 5300   6.232   4.715   0.113
 1805TIP3    H2 5301   6.210   4.756   0.257
 1806TIP3   OH2 5302   6.119   5.482   0.399
 1806TIP3    H1 5303   6.200   5.534   0.399
 1806TIP3    H2 5304   6.103   5.462   0.307
 1807TIP3   OH2 5305   5.874   5.581   0.250
 1807TIP3    H1 5306   5.801   5.593   0.189
 1807TIP3    H2 5307   5.873   5.488   0.271
 1808TIP3   OH2 5308   6.061   5.749   0.146
 1808TIP3    H1 5309   6.126   5.769   0.213
 1808TIP3    H2 5310   6.010   5.676   0.181
 1809TIP3   OH2 5311   6.934   4.729   0.274
 1809TIP3    H1 5312   7.018   4.688   0.292
 1809TIP3    H2 5313   6.873   4.656   0.261
 1810TIP3   OH2 5314   6.809   5.396   0.454
 1810TIP3    H1 5315   6.796   5.304   0.478
 1810TIP3    H2 5316   6.902   5.401   0.430
 1811TIP3   OH2 5317   6.095   5.189   0.236
 1811TIP3    H1 5318   6.190   5.202   0.242
 1811TIP3    H2 5319   6.065   5.187   0.327
 1812TIP3   OH2 5320   6.185   5.699   0.623
 1812TIP3    H1 5321   6.239   5.774   0.599
 1812TIP3    H2 5322   6.113   5.699   0.559
 1813TIP3   OH2 5323   5.841   5.315   0.300
 1813TIP3    H1 5324   5.888   5.286   0.378
 1813TIP3    H2 5325   5.849   5.242   0.239
 1814TIP3   OH2 5326   6.612   5.474   0.281
 1814TIP3    H1 5327   6.656   5.538   0.225
 1814TIP3    H2 5328   6.681   5.440   0.338
 1815TIP3   OH2 5329   6.088   4.867   0.326
 1815TIP3    H1 5330   6.008   4.895   0.281
 1815TIP3    H2 5331   6.068   4.875   0.419
 1816TIP3   OH2 5332   9.247   9.120   7.997
 1816TIP3    H1 5333   9.318   9.129   7.933
 1816TIP3    H2 5334   9.283   9.060   8.063
 1817TIP3   OH2 5335   5.895   6.246   0.289
 1817TIP3    H1 5336   5.832   6.283   0.351
 1817TIP3    H2 5337   5.859   6.161   0.266
 1818TIP3   OH2 5338   5.874   5.683   0.738
 1818TIP3    H1 5339   5.908   5.594   0.745
 1818TIP3    H2 5340   5.826   5.684   0.656
 1819TIP3   OH2 5341   6.528   5.789   0.418
 1819TIP3    H1 5342   6.566   5.825   0.338
 1819TIP3    H2 5343   6.598   5.737   0.457
 1820TIP3   OH2 5344   6.008   5.448   0.779
 1820TIP3    H1 5345   6.082   5.417   0.728
 1820TIP3    H2 5346   6.039   5.448   0.870
 1821TIP3   OH2 5347   6.332   5.327   0.253
 1821TIP3    H1 5348   6.361   5.374   0.331
 1821TIP3    H2 5349   6.335   5.393   0.183
 1822TIP3   OH2 5350   7.056   5.771   0.433
 1822TIP3    H1 5351   7.023   5.706   0.370
 1822TIP3    H2 5352   7.041   5.730   0.519
 1823TIP3   OH2 5353   6.537   5.172   0.428
 1823TIP3    H1 5354   6.565   5.088   0.463
 1823TIP3    H2 5355   6.469   5.151   0.364
 1824TIP3   OH2 5356   6.511   4.787   0.335
 1824TIP3    H1 5357   6.523   4.864   0.279
 1824TIP3    H2 5358   6.428   4.748   0.305
 1825TIP3   OH2 5359   7.079   5.425   0.425
 1825TIP3    H1 5360   7.120   5.356   0.477
 1825TIP3    H2 5361   7.146   5.449   0.361
 1826TIP3   OH2 5362   6.493   5.344   0.629
 1826TIP3    H1 5363   6.487   5.281   0.700
 1826TIP3    H2 5364   6.518   5.292   0.553
 1827TIP3   OH2 5365   6.680   4.582   0.288
 1827TIP3    H1 5366   6.644   4.670   0.295
 1827TIP3    H2 5367   6.604   4.526   0.273
 1828TIP3   OH2 5368   6.818   5.134   0.542
 1828TIP3    H1 5369   6.778   5.120   0.627
 1828TIP3    H2 5370   6.796   5.056   0.491
 1829TIP3   OH2 5371   7.054   5.073   0.359
 1829TIP3    H1 5372   6.961   5.093   0.367
 1829TIP3    H2 5373   7.071   5.009   0.428
 1830TIP3   OH2 5374   7.371   5.019   0.515
 1830TIP3    H1 5375   7.371   4.924   0.509
 1830TIP3    H2 5376   7.332   5.038   0.600
 1831TIP3   OH2 5377   6.178   4.931   0.851
 1831TIP3    H1 5378   6.202   4.863   0.787
 1831TIP3    H2 5379   6.253   4.936   0.910
 1832TIP3   OH2 5380   6.728   4.639   0.565
 1832TIP3    H1 5381   6.806   4.584   0.565
 1832TIP3    H2 5382   6.691   4.629   0.478
 1833TIP3   OH2 5383   6.813   4.848   0.733
 1833TIP3    H1 5384   6.811   4.769   0.679
 1833TIP3    H2 5385   6.745   4.905   0.695
 1834TIP3   OH2 5386   5.955   5.094   0.832
 1834TIP3    H1 5387   6.033   5.040   0.839
 1834TIP3    H2 5388   5.885   5.041   0.870
 1835TIP3   OH2 5389   5.845   4.731   0.035
 1835TIP3    H1 5390   5.890   4.649   0.018
 1835TIP3    H2 5391   5.915   4.796   0.042
 1836TIP3   OH2 5392   2.437   0.317   7.910
 1836TIP3    H1 5393   2.481   0.236   7.937
 1836TIP3    H2 5394   2.478   0.385   7.963
 1837TIP3   OH2 5395   5.937   4.609   0.409
 1837TIP3    H1 5396   5.883   4.583   0.484
 1837TIP3    H2 5397   5.885   4.586   0.332
 1838TIP3   OH2 5398   5.976   6.020   0.491
 1838TIP3    H1 5399   5.888   6.022   0.455
 1838TIP3    H2 5400   5.963   5.998   0.583
 1839TIP3   OH2 5401   6.251   4.723   0.667
 1839TIP3    H1 5402   6.227   4.646   0.718
 1839TIP3    H2 5403   6.347   4.727   0.673
 1840TIP3   OH2 5404   6.520   4.707   0.737
 1840TIP3    H1 5405   6.593   4.665   0.692
 1840TIP3    H2 5406   6.502   4.651   0.813
 1841TIP3   OH2 5407   7.339   4.743   0.534
 1841TIP3    H1 5408   7.346   4.731   0.629
 1841TIP3    H2 5409   7.418   4.702   0.498
 1842TIP3   OH2 5410   9.636   5.807   2.216
 1842TIP3    H1 5411   9.625   5.712   2.216
 1842TIP3    H2 5412   9.673   5.827   2.302
 1843TIP3   OH2 5413   0.302   5.758   2.085
 1843TIP3    H1 5414   0.360   5.693   2.046
 1843TIP3    H2 5415   0.259   5.800   2.010
 1844TIP3   OH2 5416   0.125   5.864   1.903
 1844TIP3    H1 5417   0.063   5.917   1.954
 1844TIP3    H2 5418   0.072   5.796   1.862
 1845TIP3   OH2 5419   0.038   5.598   1.823
 1845TIP3    H1 5420  -0.055   5.574   1.822
 1845TIP3    H2 5421   0.084   5.516   1.803
 1846TIP3   OH2 5422   9.624   5.526   2.199
 1846TIP3    H1 5423   9.603   5.523   2.293
 1846TIP3    H2 5424   9.720   5.530   2.196
 1847TIP3   OH2 5425   1.819   6.064   0.915
 1847TIP3    H1 5426   1.836   6.144   0.965
 1847TIP3    H2 5427   1.844   6.086   0.825
 1848TIP3   OH2 5428   1.161   6.289   1.014
 1848TIP3    H1 5429   1.170   6.210   1.067
 1848TIP3    H2 5430   1.196   6.265   0.928
 1849TIP3   OH2 5431   1.877   6.280   1.085
 1849TIP3    H1 5432   1.788   6.313   1.073
 1849TIP3    H2 5433   1.902   6.309   1.172
 1850TIP3   OH2 5434   0.558   5.844   1.370
 1850TIP3    H1 5435   0.489   5.874   1.311
 1850TIP3    H2 5436   0.522   5.856   1.458
 1851TIP3   OH2 5437   1.424   6.002   0.740
 1851TIP3    H1 5438   1.387   5.979   0.825
 1851TIP3    H2 5439   1.480   6.077   0.758
 1852TIP3   OH2 5440   1.603   5.960   1.084
 1852TIP3    H1 5441   1.516   5.965   1.044
 1852TIP3    H2 5442   1.663   5.987   1.014
 1853TIP3   OH2 5443   0.885   5.601   1.092
 1853TIP3    H1 5444   0.865   5.508   1.084
 1853TIP3    H2 5445   0.800   5.642   1.107
 1854TIP3   OH2 5446   1.519   6.988   1.046
 1854TIP3    H1 5447   1.500   6.902   1.008
 1854TIP3    H2 5448   1.550   7.040   0.971
 1855TIP3   OH2 5449   1.728   6.618   0.902
 1855TIP3    H1 5450   1.647   6.667   0.915
 1855TIP3    H2 5451   1.761   6.648   0.818
 1856TIP3   OH2 5452   1.429   6.488   1.209
 1856TIP3    H1 5453   1.451   6.554   1.274
 1856TIP3    H2 5454   1.338   6.506   1.185
 1857TIP3   OH2 5455   1.782   7.328   1.150
 1857TIP3    H1 5456   1.776   7.232   1.147
 1857TIP3    H2 5457   1.694   7.356   1.177
 1858TIP3   OH2 5458   1.650   6.446   1.422
 1858TIP3    H1 5459   1.561   6.466   1.450
 1858TIP3    H2 5460   1.651   6.351   1.408
 1859TIP3   OH2 5461   0.631   5.699   1.152
 1859TIP3    H1 5462   0.541   5.671   1.135
 1859TIP3    H2 5463   0.625   5.750   1.233
 1860TIP3   OH2 5464   1.169   5.819   1.390
 1860TIP3    H1 5465   1.241   5.796   1.448
 1860TIP3    H2 5466   1.091   5.788   1.435
 1861TIP3   OH2 5467   1.387   6.249   1.352
 1861TIP3    H1 5468   1.350   6.288   1.432
 1861TIP3    H2 5469   1.397   6.323   1.292
 1862TIP3   OH2 5470   1.160   6.523   1.164
 1862TIP3    H1 5471   1.164   6.461   1.091
 1862TIP3    H2 5472   1.120   6.474   1.235
 1863TIP3   OH2 5473   1.328   5.956   0.997
 1863TIP3    H1 5474   1.293   5.997   1.077
 1863TIP3    H2 5475   1.265   5.887   0.977
 1864TIP3   OH2 5476   0.866   6.088   1.236
 1864TIP3    H1 5477   0.807   6.134   1.176
 1864TIP3    H2 5478   0.936   6.055   1.180
 1865TIP3   OH2 5479   1.492   6.756   0.894
 1865TIP3    H1 5480   1.473   6.793   0.807
 1865TIP3    H2 5481   1.431   6.683   0.902
 1866TIP3   OH2 5482   0.945   6.555   1.561
 1866TIP3    H1 5483   0.922   6.463   1.573
 1866TIP3    H2 5484   1.040   6.553   1.544
 1867TIP3   OH2 5485   1.776   7.038   1.127
 1867TIP3    H1 5486   1.681   7.033   1.118
 1867TIP3    H2 5487   1.809   7.011   1.041
 1868TIP3   OH2 5488   0.430   5.927   1.595
 1868TIP3    H1 5489   0.357   5.982   1.624
 1868TIP3    H2 5490   0.454   5.876   1.672
 1869TIP3   OH2 5491   1.219   6.057   1.229
 1869TIP3    H1 5492   1.272   6.116   1.282
 1869TIP3    H2 5493   1.200   5.983   1.286
 1870TIP3   OH2 5494   1.062   6.331   1.331
 1870TIP3    H1 5495   1.117   6.351   1.408
 1870TIP3    H2 5496   1.030   6.243   1.347
 1871TIP3   OH2 5497   1.643   6.154   1.298
 1871TIP3    H1 5498   1.554   6.173   1.326
 1871TIP3    H2 5499   1.633   6.093   1.225
 1872TIP3   OH2 5500   1.285   6.289   0.752
 1872TIP3    H1 5501   1.290   6.341   0.672
 1872TIP3    H2 5502   1.376   6.265   0.770
 1873TIP3   OH2 5503   1.182   7.292   1.485
 1873TIP3    H1 5504   1.194   7.206   1.526
 1873TIP3    H2 5505   1.269   7.331   1.485
 1874TIP3   OH2 5506   0.834   6.879   1.632
 1874TIP3    H1 5507   0.787   6.855   1.552
 1874TIP3    H2 5508   0.909   6.820   1.634
 1875TIP3   OH2 5509   1.368   6.939   1.276
 1875TIP3    H1 5510   1.435   6.973   1.217
 1875TIP3    H2 5511   1.353   7.011   1.339
 1876TIP3   OH2 5512   0.291   6.594   1.825
 1876TIP3    H1 5513   0.330   6.525   1.771
 1876TIP3    H2 5514   0.342   6.591   1.907
 1877TIP3   OH2 5515   1.200   6.766   1.584
 1877TIP3    H1 5516   1.236   6.694   1.531
 1877TIP3    H2 5517   1.193   6.728   1.672
 1878TIP3   OH2 5518   0.753   6.184   1.590
 1878TIP3    H1 5519   0.774   6.094   1.564
 1878TIP3    H2 5520   0.838   6.224   1.610
 1879TIP3   OH2 5521   0.797   5.946   1.455
 1879TIP3    H1 5522   0.830   5.996   1.380
 1879TIP3    H2 5523   0.712   5.913   1.426
 1880TIP3   OH2 5524   1.474   6.707   1.375
 1880TIP3    H1 5525   1.415   6.777   1.346
 1880TIP3    H2 5526   1.559   6.731   1.339
 1881TIP3   OH2 5527   0.643   6.271   1.829
 1881TIP3    H1 5528   0.582   6.201   1.850
 1881TIP3    H2 5529   0.662   6.260   1.736
 1882TIP3   OH2 5530   0.923   5.709   1.481
 1882TIP3    H1 5531   0.879   5.793   1.473
 1882TIP3    H2 5532   0.856   5.644   1.458
 1883TIP3   OH2 5533   0.992   6.291   1.670
 1883TIP3    H1 5534   1.080   6.323   1.650
 1883TIP3    H2 5535   0.999   6.253   1.757
 1884TIP3   OH2 5536   1.591   6.130   1.735
 1884TIP3    H1 5537   1.554   6.042   1.727
 1884TIP3    H2 5538   1.544   6.169   1.809
 1885TIP3   OH2 5539   0.489   6.051   1.908
 1885TIP3    H1 5540   0.497   5.964   1.869
 1885TIP3    H2 5541   0.531   6.042   1.993
 1886TIP3   OH2 5542   0.973   5.718   1.752
 1886TIP3    H1 5543   1.045   5.655   1.754
 1886TIP3    H2 5544   0.946   5.720   1.660
 1887TIP3   OH2 5545   1.057   5.941   1.896
 1887TIP3    H1 5546   1.030   5.869   1.839
 1887TIP3    H2 5547   0.987   6.005   1.888
 1888TIP3   OH2 5548   1.644   7.132   1.450
 1888TIP3    H1 5549   1.579   7.135   1.520
 1888TIP3    H2 5550   1.691   7.215   1.457
 1889TIP3   OH2 5551   1.712   6.792   1.268
 1889TIP3    H1 5552   1.769   6.717   1.253
 1889TIP3    H2 5553   1.742   6.859   1.207
 1890TIP3   OH2 5554   1.852   6.558   1.271
 1890TIP3    H1 5555   1.777   6.524   1.319
 1890TIP3    H2 5556   1.925   6.502   1.296
 1891TIP3   OH2 5557   1.551   6.242   0.814
 1891TIP3    H1 5558   1.630   6.263   0.765
 1891TIP3    H2 5559   1.564   6.280   0.900
 1892TIP3   OH2 5560   1.627   6.392   1.037
 1892TIP3    H1 5561   1.560   6.419   1.100
 1892TIP3    H2 5562   1.657   6.473   0.997
 1893TIP3   OH2 5563   0.249   6.064   1.756
 1893TIP3    H1 5564   0.322   6.088   1.813
 1893TIP3    H2 5565   0.201   5.997   1.805
 1894TIP3   OH2 5566   2.079   5.998   1.583
 1894TIP3    H1 5567   2.142   5.940   1.539
 1894TIP3    H2 5568   2.038   6.048   1.512
 1895TIP3   OH2 5569   1.580   5.738   0.379
 1895TIP3    H1 5570   1.604   5.747   0.471
 1895TIP3    H2 5571   1.486   5.752   0.377
 1896TIP3   OH2 5572   1.926   6.129   1.396
 1896TIP3    H1 5573   1.868   6.169   1.461
 1896TIP3    H2 5574   1.867   6.080   1.338
 1897TIP3   OH2 5575   0.188   5.680   1.596
 1897TIP3    H1 5576   0.146   5.670   1.681
 1897TIP3    H2 5577   0.168   5.599   1.549
 1898TIP3   OH2 5578   1.829   5.864   1.285
 1898TIP3    H1 5579   1.742   5.860   1.246
 1898TIP3    H2 5580   1.864   5.775   1.275
 1899TIP3   OH2 5581   1.129   5.768   0.968
 1899TIP3    H1 5582   1.034   5.776   0.983
 1899TIP3    H2 5583   1.145   5.674   0.962
 1900TIP3   OH2 5584   1.559   5.699   0.819
 1900TIP3    H1 5585   1.597   5.760   0.757
 1900TIP3    H2 5586   1.465   5.699   0.798
 1901TIP3   OH2 5587   1.703   5.810   0.614
 1901TIP3    H1 5588   1.790   5.783   0.644
 1901TIP3    H2 5589   1.717   5.894   0.570
 1902TIP3   OH2 5590   1.308   5.647   0.729
 1902TIP3    H1 5591   1.243   5.710   0.699
 1902TIP3    H2 5592   1.264   5.596   0.797
 1903TIP3   OH2 5593   0.518   5.778   1.814
 1903TIP3    H1 5594   0.485   5.705   1.867
 1903TIP3    H2 5595   0.610   5.787   1.841
 1904TIP3   OH2 5596   0.765   5.779   1.932
 1904TIP3    H1 5597   0.840   5.756   1.877
 1904TIP3    H2 5598   0.761   5.708   1.996
 1905TIP3   OH2 5599   1.574   5.846   1.701
 1905TIP3    H1 5600   1.594   5.826   1.793
 1905TIP3    H2 5601   1.660   5.855   1.660
 1906TIP3   OH2 5602   1.522   7.387   1.217
 1906TIP3    H1 5603   1.437   7.346   1.199
 1906TIP3    H2 5604   1.499   7.476   1.244
 1907TIP3   OH2 5605   9.296   2.134   7.997
 1907TIP3    H1 5606   9.288   2.229   7.987
 1907TIP3    H2 5607   9.227   2.098   7.942
 1908TIP3   OH2 5608   2.763   6.786   0.387
 1908TIP3    H1 5609   2.817   6.763   0.462
 1908TIP3    H2 5610   2.725   6.703   0.358
 1909TIP3   OH2 5611   2.102   6.678   0.733
 1909TIP3    H1 5612   2.118   6.599   0.786
 1909TIP3    H2 5613   2.181   6.731   0.745
 1910TIP3   OH2 5614   2.982   7.095   0.073
 1910TIP3    H1 5615   2.989   7.030   0.143
 1910TIP3    H2 5616   3.032   7.170   0.105
 1911TIP3   OH2 5617   2.076   7.082   0.498
 1911TIP3    H1 5618   2.076   6.987   0.499
 1911TIP3    H2 5619   2.163   7.107   0.468
 1912TIP3   OH2 5620   1.841   6.582   0.442
 1912TIP3    H1 5621   1.898   6.513   0.476
 1912TIP3    H2 5622   1.872   6.599   0.353
 1913TIP3   OH2 5623   2.791   7.527   0.046
 1913TIP3    H1 5624   2.780   7.444  -0.001
 1913TIP3    H2 5625   2.756   7.510   0.133
 1914TIP3   OH2 5626   2.589   7.011   0.399
 1914TIP3    H1 5627   2.629   6.928   0.373
 1914TIP3    H2 5628   2.662   7.065   0.427
 1915TIP3   OH2 5629   3.620   6.323   0.410
 1915TIP3    H1 5630   3.621   6.413   0.444
 1915TIP3    H2 5631   3.654   6.332   0.320
 1916TIP3   OH2 5632   2.979   6.484   0.441
 1916TIP3    H1 5633   3.015   6.397   0.459
 1916TIP3    H2 5634   2.963   6.484   0.347
 1917TIP3   OH2 5635   2.351   6.158   0.372
 1917TIP3    H1 5636   2.330   6.232   0.315
 1917TIP3    H2 5637   2.296   6.087   0.340
 1918TIP3   OH2 5638   3.029   6.264   0.028
 1918TIP3    H1 5639   3.092   6.247   0.098
 1918TIP3    H2 5640   3.081   6.299  -0.044
 1919TIP3   OH2 5641   1.992   6.373   0.528
 1919TIP3    H1 5642   2.077   6.349   0.565
 1919TIP3    H2 5643   1.990   6.329   0.443
 1920TIP3   OH2 5644   2.408   6.558   0.310
 1920TIP3    H1 5645   2.501   6.541   0.321
 1920TIP3    H2 5646   2.373   6.477   0.272
 1921TIP3   OH2 5647   3.661   6.548   0.579
 1921TIP3    H1 5648   3.573   6.581   0.560
 1921TIP3    H2 5649   3.680   6.579   0.668
 1922TIP3   OH2 5650   2.325   6.147   0.839
 1922TIP3    H1 5651   2.275   6.179   0.764
 1922TIP3    H2 5652   2.268   6.164   0.914
 1923TIP3   OH2 5653   9.310   2.400   7.908
 1923TIP3    H1 5654   9.355   2.390   7.824
 1923TIP3    H2 5655   9.377   2.432   7.968
 1924TIP3   OH2 5656   2.427   6.928   0.607
 1924TIP3    H1 5657   2.373   6.997   0.643
 1924TIP3    H2 5658   2.474   6.969   0.534
 1925TIP3   OH2 5659   3.198   6.257   0.245
 1925TIP3    H1 5660   3.154   6.242   0.329
 1925TIP3    H2 5661   3.251   6.336   0.260
 1926TIP3   OH2 5662   2.227   6.251   0.603
 1926TIP3    H1 5663   2.286   6.321   0.631
 1926TIP3    H2 5664   2.271   6.211   0.528
 1927TIP3   OH2 5665   2.280   7.129   0.722
 1927TIP3    H1 5666   2.261   7.218   0.694
 1927TIP3    H2 5667   2.204   7.105   0.776
 1928TIP3   OH2 5668   3.089   7.344   0.201
 1928TIP3    H1 5669   3.002   7.331   0.239
 1928TIP3    H2 5670   3.084   7.427   0.155
 1929TIP3   OH2 5671   3.408   6.221   0.569
 1929TIP3    H1 5672   3.322   6.239   0.529
 1929TIP3    H2 5673   3.471   6.247   0.502
 1930TIP3   OH2 5674   2.667   5.849   0.569
 1930TIP3    H1 5675   2.659   5.757   0.593
 1930TIP3    H2 5676   2.589   5.891   0.605
 1931TIP3   OH2 5677   3.318   7.215   0.547
 1931TIP3    H1 5678   3.292   7.145   0.487
 1931TIP3    H2 5679   3.301   7.295   0.499
 1932TIP3   OH2 5680   9.134   2.016   7.798
 1932TIP3    H1 5681   9.065   2.080   7.779
 1932TIP3    H2 5682   9.143   1.965   7.718
 1933TIP3   OH2 5683   3.472   6.870   0.378
 1933TIP3    H1 5684   3.389   6.919   0.378
 1933TIP3    H2 5685   3.509   6.885   0.291
 1934TIP3   OH2 5686   9.507   1.992   7.898
 1934TIP3    H1 5687   9.444   2.046   7.945
 1934TIP3    H2 5688   9.505   2.024   7.808
 1935TIP3   OH2 5689   3.183   6.747   0.711
 1935TIP3    H1 5690   3.174   6.829   0.760
 1935TIP3    H2 5691   3.102   6.741   0.660
 1936TIP3   OH2 5692   2.183   6.698   0.236
 1936TIP3    H1 5693   2.114   6.636   0.213
 1936TIP3    H2 5694   2.258   6.643   0.258
 1937TIP3   OH2 5695   2.328   7.112   0.361
 1937TIP3    H1 5696   2.332   7.189   0.305
 1937TIP3    H2 5697   2.418   7.080   0.366
 1938TIP3   OH2 5698   2.347   6.670   0.558
 1938TIP3    H1 5699   2.373   6.644   0.469
 1938TIP3    H2 5700   2.376   6.761   0.565
 1939TIP3   OH2 5701   2.850   7.324   0.321
 1939TIP3    H1 5702   2.822   7.403   0.368
 1939TIP3    H2 5703   2.834   7.253   0.383
 1940TIP3   OH2 5704   2.470   7.234   0.889
 1940TIP3    H1 5705   2.407   7.292   0.932
 1940TIP3    H2 5706   2.416   7.180   0.830
 1941TIP3   OH2 5707   2.220   6.782   1.003
 1941TIP3    H1 5708   2.221   6.872   1.034
 1941TIP3    H2 5709   2.129   6.754   1.013
 1942TIP3   OH2 5710   2.260   7.391   0.970
 1942TIP3    H1 5711   2.228   7.399   0.880
 1942TIP3    H2 5712   2.183   7.369   1.022
 1943TIP3   OH2 5713   1.889   6.908   0.909
 1943TIP3    H1 5714   1.844   6.881   0.829
 1943TIP3    H2 5715   1.918   6.826   0.949
 1944TIP3   OH2 5716   3.519   7.596   0.622
 1944TIP3    H1 5717   3.519   7.501   0.613
 1944TIP3    H2 5718   3.431   7.617   0.654
 1945TIP3   OH2 5719   2.656   7.372   0.748
 1945TIP3    H1 5720   2.651   7.464   0.774
 1945TIP3    H2 5721   2.590   7.328   0.801
 1946TIP3   OH2 5722   3.425   6.698   0.872
 1946TIP3    H1 5723   3.345   6.711   0.822
 1946TIP3    H2 5724   3.442   6.604   0.868
 1947TIP3   OH2 5725   2.065   7.116   0.892
 1947TIP3    H1 5726   2.113   7.110   0.975
 1947TIP3    H2 5727   1.999   7.047   0.897
 1948TIP3   OH2 5728   2.426   5.937   0.687
 1948TIP3    H1 5729   2.342   5.905   0.653
 1948TIP3    H2 5730   2.403   6.014   0.738
 1949TIP3   OH2 5731   2.964   6.064   0.890
 1949TIP3    H1 5732   3.031   6.037   0.953
 1949TIP3    H2 5733   2.881   6.047   0.934
 1950TIP3   OH2 5734   3.196   6.487   0.815
 1950TIP3    H1 5735   3.151   6.484   0.899
 1950TIP3    H2 5736   3.171   6.571   0.777
 1951TIP3   OH2 5737   9.183   1.381   7.657
 1951TIP3    H1 5738   9.131   1.361   7.735
 1951TIP3    H2 5739   9.125   1.363   7.584
 1952TIP3   OH2 5740   2.377   6.453   0.715
 1952TIP3    H1 5741   2.323   6.465   0.792
 1952TIP3    H2 5742   2.365   6.533   0.663
 1953TIP3   OH2 5743   2.258   6.353   0.199
 1953TIP3    H1 5744   2.169   6.330   0.226
 1953TIP3    H2 5745   2.265   6.324   0.109
 1954TIP3   OH2 5746   9.272   1.821   7.945
 1954TIP3    H1 5747   9.216   1.884   7.901
 1954TIP3    H2 5748   9.360   1.840   7.912
 1955TIP3   OH2 5749   2.908   6.693   1.018
 1955TIP3    H1 5750   2.880   6.625   1.080
 1955TIP3    H2 5751   3.000   6.708   1.039
 1956TIP3   OH2 5752   2.895   6.456   0.180
 1956TIP3    H1 5753   2.826   6.482   0.119
 1956TIP3    H2 5754   2.941   6.385   0.136
 1957TIP3   OH2 5755   2.190   6.479   0.915
 1957TIP3    H1 5756   2.182   6.543   0.986
 1957TIP3    H2 5757   2.176   6.394   0.957
 1958TIP3   OH2 5758   8.776   1.414   7.636
 1958TIP3    H1 5759   8.781   1.332   7.687
 1958TIP3    H2 5760   8.738   1.387   7.553
 1959TIP3   OH2 5761   1.798   6.016   0.457
 1959TIP3    H1 5762   1.848   6.064   0.523
 1959TIP3    H2 5763   1.864   5.966   0.408
 1960TIP3   OH2 5764   2.930   6.697   0.597
 1960TIP3    H1 5765   2.955   6.629   0.534
 1960TIP3    H2 5766   2.886   6.650   0.667
 1961TIP3   OH2 5767   2.621   6.140   0.276
 1961TIP3    H1 5768   2.540   6.143   0.327
 1961TIP3    H2 5769   2.690   6.136   0.342
 1962TIP3   OH2 5770   2.022   6.240   0.287
 1962TIP3    H1 5771   1.927   6.246   0.272
 1962TIP3    H2 5772   2.044   6.149   0.266
 1963TIP3   OH2 5773   8.844   1.615   7.945
 1963TIP3    H1 5774   8.932   1.612   7.982
 1963TIP3    H2 5775   8.858   1.616   7.850
 1964TIP3   OH2 5776   3.064   6.224   0.491
 1964TIP3    H1 5777   3.042   6.246   0.581
 1964TIP3    H2 5778   2.994   6.165   0.463
 1965TIP3   OH2 5779   3.255   7.940   0.698
 1965TIP3    H1 5780   3.250   7.950   0.603
 1965TIP3    H2 5781   3.334   7.987   0.723
 1966TIP3   OH2 5782   2.207   7.036   1.120
 1966TIP3    H1 5783   2.287   7.058   1.168
 1966TIP3    H2 5784   2.137   7.052   1.183
 1967TIP3   OH2 5785   2.673   6.508   0.373
 1967TIP3    H1 5786   2.750   6.471   0.330
 1967TIP3    H2 5787   2.670   6.466   0.459
 1968TIP3   OH2 5788   2.158   5.995   0.251
 1968TIP3    H1 5789   2.132   5.915   0.298
 1968TIP3    H2 5790   2.189   5.963   0.166
 1969TIP3   OH2 5791   2.639   6.409   0.636
 1969TIP3    H1 5792   2.552   6.437   0.665
 1969TIP3    H2 5793   2.699   6.461   0.690
 1970TIP3   OH2 5794   3.244   7.025   0.365
 1970TIP3    H1 5795   3.281   7.066   0.286
 1970TIP3    H2 5796   3.160   6.990   0.336
 1971TIP3   OH2 5797   2.783   7.110   0.771
 1971TIP3    H1 5798   2.824   7.098   0.857
 1971TIP3    H2 5799   2.738   7.194   0.777
 1972TIP3   OH2 5800   2.091   6.810   0.474
 1972TIP3    H1 5801   2.120   6.762   0.396
 1972TIP3    H2 5802   2.110   6.750   0.546
 1973TIP3   OH2 5803   1.963   6.675   1.042
 1973TIP3    H1 5804   1.953   6.650   1.134
 1973TIP3    H2 5805   1.889   6.634   0.997
 1974TIP3   OH2 5806   2.679   6.849   1.062
 1974TIP3    H1 5807   2.607   6.793   1.033
 1974TIP3    H2 5808   2.758   6.807   1.029
 1975TIP3   OH2 5809   2.924   7.393   0.663
 1975TIP3    H1 5810   2.829   7.378   0.665
 1975TIP3    H2 5811   2.944   7.429   0.750
 1976TIP3   OH2 5812   3.557   7.322   0.633
 1976TIP3    H1 5813   3.466   7.293   0.638
 1976TIP3    H2 5814   3.588   7.288   0.549
 1977TIP3   OH2 5815   3.001   6.908   0.283
 1977TIP3    H1 5816   2.912   6.883   0.305
 1977TIP3    H2 5817   3.044   6.826   0.258
 1978TIP3   OH2 5818   2.349   6.837   0.023
 1978TIP3    H1 5819   2.309   6.903   0.079
 1978TIP3    H2 5820   2.335   6.754   0.070
 1979TIP3   OH2 5821   2.463   7.452   0.558
 1979TIP3    H1 5822   2.505   7.525   0.514
 1979TIP3    H2 5823   2.533   7.411   0.609
 1980TIP3   OH2 5824   2.829   7.109   0.499
 1980TIP3    H1 5825   2.818   7.105   0.594
 1980TIP3    H2 5826   2.904   7.051   0.481
 1981TIP3   OH2 5827   3.056   7.612   0.549
 1981TIP3    H1 5828   2.992   7.542   0.564
 1981TIP3    H2 5829   3.026   7.653   0.467
 1982TIP3   OH2 5830   2.148   6.228   1.040
 1982TIP3    H1 5831   2.053   6.239   1.047
 1982TIP3    H2 5832   2.172   6.172   1.113
 1983TIP3   OH2 5833   1.949   7.265   0.688
 1983TIP3    H1 5834   1.984   7.210   0.617
 1983TIP3    H2 5835   1.989   7.229   0.767
 1984TIP3   OH2 5836   3.000   6.297   0.749
 1984TIP3    H1 5837   3.081   6.336   0.783
 1984TIP3    H2 5838   2.988   6.218   0.802
 1985TIP3   OH2 5839   9.393   1.438   7.938
 1985TIP3    H1 5840   9.371   1.455   7.847
 1985TIP3    H2 5841   9.450   1.511   7.963
 1986TIP3   OH2 5842   2.574   6.229   0.018
 1986TIP3    H1 5843   2.635   6.297  -0.010
 1986TIP3    H2 5844   2.598   6.210   0.109
 1987TIP3   OH2 5845   2.838   6.527   0.791
 1987TIP3    H1 5846   2.861   6.568   0.875
 1987TIP3    H2 5847   2.890   6.447   0.788
 1988TIP3   OH2 5848   2.709   5.927   0.118
 1988TIP3    H1 5849   2.680   6.002   0.170
 1988TIP3    H2 5850   2.771   5.964   0.056
 1989TIP3   OH2 5851   8.800   1.324   8.001
 1989TIP3    H1 5852   8.771   1.411   7.971
 1989TIP3    H2 5853   8.890   1.317   7.971
 1990TIP3   OH2 5854   3.455   6.418   0.784
 1990TIP3    H1 5855   3.361   6.433   0.799
 1990TIP3    H2 5856   3.458   6.363   0.706
 1991TIP3   OH2 5857   3.099   6.663   0.217
 1991TIP3    H1 5858   3.029   6.604   0.190
 1991TIP3    H2 5859   3.179   6.623   0.182
 1992TIP3   OH2 5860   3.107   7.603   0.078
 1992TIP3    H1 5861   3.103   7.562  -0.008
 1992TIP3    H2 5862   3.195   7.641   0.082
 1993TIP3   OH2 5863   2.160   5.858   0.644
 1993TIP3    H1 5864   2.129   5.822   0.561
 1993TIP3    H2 5865   2.157   5.784   0.705
 1994TIP3   OH2 5866   1.886   7.610   1.136
 1994TIP3    H1 5867   1.972   7.605   1.179
 1994TIP3    H2 5868   1.856   7.519   1.134
 1995TIP3   OH2 5869   2.367   7.551   1.164
 1995TIP3    H1 5870   2.458   7.521   1.169
 1995TIP3    H2 5871   2.329   7.501   1.092
 1996TIP3   OH2 5872   2.977   7.491   0.914
 1996TIP3    H1 5873   2.992   7.421   0.977
 1996TIP3    H2 5874   3.048   7.553   0.929
 1997TIP3   OH2 5875   1.993   7.046   1.299
 1997TIP3    H1 5876   2.013   6.953   1.310
 1997TIP3    H2 5877   1.910   7.047   1.250
 1998TIP3   OH2 5878   2.625   7.125   1.084
 1998TIP3    H1 5879   2.577   7.148   1.005
 1998TIP3    H2 5880   2.654   7.035   1.069
 1999TIP3   OH2 5881   3.090   7.169   0.701
 1999TIP3    H1 5882   3.167   7.196   0.649
 1999TIP3    H2 5883   3.025   7.237   0.683
 2000TIP3   OH2 5884   2.110   6.794   1.309
 2000TIP3    H1 5885   2.188   6.767   1.261
 2000TIP3    H2 5886   2.142   6.812   1.398
 2001TIP3   OH2 5887   2.476   6.674   0.966
 2001TIP3    H1 5888   2.389   6.713   0.972
 2001TIP3    H2 5889   2.510   6.703   0.882
 2002TIP3   OH2 5890   2.967   7.045   1.044
 2002TIP3    H1 5891   3.030   7.001   0.987
 2002TIP3    H2 5892   2.961   6.988   1.121
 2003TIP3   OH2 5893   2.577   6.440   1.067
 2003TIP3    H1 5894   2.577   6.370   1.002
 2003TIP3    H2 5895   2.542   6.516   1.020
 2004TIP3   OH2 5896   2.583   6.240   0.867
 2004TIP3    H1 5897   2.609   6.275   0.782
 2004TIP3    H2 5898   2.492   6.213   0.855
 2005TIP3   OH2 5899   2.604   6.776   0.749
 2005TIP3    H1 5900   2.691   6.806   0.724
 2005TIP3    H2 5901   2.543   6.830   0.699
 2006TIP3   OH2 5902   3.173   6.729   1.113
 2006TIP3    H1 5903   3.208   6.640   1.106
 2006TIP3    H2 5904   3.249   6.786   1.100
 2007TIP3   OH2 5905   3.199   6.986   0.865
 2007TIP3    H1 5906   3.148   7.049   0.816
 2007TIP3    H2 5907   3.288   6.997   0.833
 2008TIP3   OH2 5908   2.464   6.523   1.312
 2008TIP3    H1 5909   2.394   6.461   1.333
 2008TIP3    H2 5910   2.489   6.501   1.223
 2009TIP3   OH2 5911   2.702   6.010   0.970
 2009TIP3    H1 5912   2.662   6.090   0.937
 2009TIP3    H2 5913   2.636   5.942   0.957
 2010TIP3   OH2 5914   2.829   6.479   1.173
 2010TIP3    H1 5915   2.814   6.466   1.266
 2010TIP3    H2 5916   2.745   6.459   1.132
 2011TIP3   OH2 5917   3.081   6.447   1.055
 2011TIP3    H1 5918   2.999   6.442   1.104
 2011TIP3    H2 5919   3.147   6.413   1.115
 2012TIP3   OH2 5920   3.320   6.400   1.198
 2012TIP3    H1 5921   3.329   6.305   1.203
 2012TIP3    H2 5922   3.313   6.428   1.289
 2013TIP3   OH2 5923   2.301   6.303   1.376
 2013TIP3    H1 5924   2.303   6.215   1.339
 2013TIP3    H2 5925   2.338   6.293   1.464
 2014TIP3   OH2 5926   2.767   5.986   1.236
 2014TIP3    H1 5927   2.834   5.917   1.228
 2014TIP3    H2 5928   2.736   5.999   1.147
 2015TIP3   OH2 5929   2.866   6.199   1.381
 2015TIP3    H1 5930   2.834   6.127   1.327
 2015TIP3    H2 5931   2.794   6.262   1.382
 2016TIP3   OH2 5932   3.347   7.726   0.094
 2016TIP3    H1 5933   3.375   7.717   0.185
 2016TIP3    H2 5934   3.377   7.813   0.068
 2017TIP3   OH2 5935   3.374   7.694   0.370
 2017TIP3    H1 5936   3.333   7.608   0.380
 2017TIP3    H2 5937   3.465   7.680   0.396
 2018TIP3   OH2 5938   3.436   7.376   0.941
 2018TIP3    H1 5939   3.363   7.382   1.002
 2018TIP3    H2 5940   3.474   7.464   0.940
 2019TIP3   OH2 5941   3.443   7.126   0.197
 2019TIP3    H1 5942   3.495   7.061   0.149
 2019TIP3    H2 5943   3.458   7.208   0.148
 2020TIP3   OH2 5944   3.243   7.445   0.412
 2020TIP3    H1 5945   3.173   7.491   0.457
 2020TIP3    H2 5946   3.201   7.406   0.335
 2021TIP3   OH2 5947   9.767   1.937   7.989
 2021TIP3    H1 5948   9.779   1.858   7.936
 2021TIP3    H2 5949   9.681   1.970   7.963
 2022TIP3   OH2 5950   1.840   6.721   0.676
 2022TIP3    H1 5951   1.830   6.670   0.595
 2022TIP3    H2 5952   1.934   6.720   0.693
 2023TIP3   OH2 5953   3.452   7.030   0.761
 2023TIP3    H1 5954   3.523   6.969   0.743
 2023TIP3    H2 5955   3.439   7.077   0.678
 2024TIP3   OH2 5956   3.644   6.825   0.770
 2024TIP3    H1 5957   3.566   6.782   0.808
 2024TIP3    H2 5958   3.717   6.768   0.795
 2025TIP3   OH2 5959   9.733   1.717   7.821
 2025TIP3    H1 5960   9.764   1.627   7.830
 2025TIP3    H2 5961   9.722   1.730   7.727
 2026TIP3   OH2 5962   3.342   6.479   0.322
 2026TIP3    H1 5963   3.417   6.508   0.270
 2026TIP3    H2 5964   3.344   6.534   0.400
 2027TIP3   OH2 5965   3.404   6.656   0.539
 2027TIP3    H1 5966   3.325   6.684   0.586
 2027TIP3    H2 5967   3.424   6.729   0.480
 2028TIP3   OH2 5968   2.039   6.370   1.327
 2028TIP3    H1 5969   2.134   6.362   1.341
 2028TIP3    H2 5970   2.003   6.287   1.360
 2029TIP3   OH2 5971   3.870   6.254   1.073
 2029TIP3    H1 5972   3.936   6.200   1.029
 2029TIP3    H2 5973   3.829   6.304   1.002
 2030TIP3   OH2 5974   0.001   1.459   7.860
 2030TIP3    H1 5975   0.063   1.448   7.932
 2030TIP3    H2 5976  -0.037   1.372   7.847
 2031TIP3   OH2 5977   1.992   6.078   0.652
 2031TIP3    H1 5978   2.046   6.000   0.661
 2031TIP3    H2 5979   2.054   6.149   0.638
 2032TIP3   OH2 5980   1.792   6.340   0.724
 2032TIP3    H1 5981   1.856   6.343   0.653
 2032TIP3    H2 5982   1.811   6.416   0.778
 2033TIP3   OH2 5983   3.717   6.367   0.878
 2033TIP3    H1 5984   3.633   6.407   0.902
 2033TIP3    H2 5985   3.693   6.294   0.820
 2034TIP3   OH2 5986   1.812   5.795   0.247
 2034TIP3    H1 5987   1.735   5.759   0.290
 2034TIP3    H2 5988   1.781   5.875   0.205
 2035TIP3   OH2 5989   2.002   5.915   1.065
 2035TIP3    H1 5990   1.950   5.906   1.145
 2035TIP3    H2 5991   1.942   5.956   1.002
 2036TIP3   OH2 5992   2.055   7.339   1.145
 2036TIP3    H1 5993   1.961   7.330   1.130
 2036TIP3    H2 5994   2.064   7.339   1.241
 2037TIP3   OH2 5995   2.225   7.398   0.693
 2037TIP3    H1 5996   2.150   7.440   0.652
 2037TIP3    H2 5997   2.301   7.434   0.647
 2038TIP3   OH2 5998   2.647   7.641   0.815
 2038TIP3    H1 5999   2.681   7.636   0.904
 2038TIP3    H2 6000   2.713   7.691   0.766
 2039TIP3   OH2 6001   2.861   7.780   0.702
 2039TIP3    H1 6002   2.930   7.728   0.660
 2039TIP3    H2 6003   2.908   7.846   0.752
 2040TIP3   OH2 6004   3.628   6.120   0.770
 2040TIP3    H1 6005   3.541   6.117   0.730
 2040TIP3    H2 6006   3.661   6.030   0.764
 2041TIP3   OH2 6007   2.534   7.663   0.393
 2041TIP3    H1 6008   2.525   7.610   0.313
 2041TIP3    H2 6009   2.528   7.754   0.362
 2042TIP3   OH2 6010   2.794   7.576   0.416
 2042TIP3    H1 6011   2.709   7.619   0.423
 2042TIP3    H2 6012   2.849   7.640   0.371
 2043TIP3   OH2 6013   2.993   7.730   0.304
 2043TIP3    H1 6014   2.999   7.824   0.287
 2043TIP3    H2 6015   3.028   7.689   0.225
 2044TIP3   OH2 6016   2.286   7.487   0.353
 2044TIP3    H1 6017   2.350   7.496   0.283
 2044TIP3    H2 6018   2.337   7.460   0.429
 2045TIP3   OH2 6019   2.843   6.052   0.429
 2045TIP3    H1 6020   2.799   5.979   0.471
 2045TIP3    H2 6021   2.907   6.011   0.371
 2046TIP3   OH2 6022   3.333   5.972   0.294
 2046TIP3    H1 6023   3.369   6.025   0.222
 2046TIP3    H2 6024   3.240   5.994   0.296
 2047TIP3   OH2 6025   3.460   6.036   0.054
 2047TIP3    H1 6026   3.520   5.969   0.022
 2047TIP3    H2 6027   3.505   6.119   0.036
 2048TIP3   OH2 6028   2.057   5.778   0.394
 2048TIP3    H1 6029   1.979   5.758   0.341
 2048TIP3    H2 6030   2.107   5.697   0.395
 2049TIP3   OH2 6031   1.927   5.647   0.047
 2049TIP3    H1 6032   1.926   5.706  -0.028
 2049TIP3    H2 6033   1.888   5.698   0.118
 2050TIP3   OH2 6034   2.563   5.785   0.311
 2050TIP3    H1 6035   2.610   5.830   0.241
 2050TIP3    H2 6036   2.603   5.817   0.392
 2051TIP3   OH2 6037   3.046   5.941   0.279
 2051TIP3    H1 6038   3.035   5.914   0.188
 2051TIP3    H2 6039   3.053   5.859   0.328
 2052TIP3   OH2 6040   9.696   1.204   7.833
 2052TIP3    H1 6041   9.629   1.211   7.765
 2052TIP3    H2 6042   9.660   1.141   7.896
 2053TIP3   OH2 6043   8.735   1.167   7.778
 2053TIP3    H1 6044   8.644   1.162   7.749
 2053TIP3    H2 6045   8.730   1.207   7.865
 2054TIP3   OH2 6046   9.059   1.359   7.909
 2054TIP3    H1 6047   9.117   1.306   7.965
 2054TIP3    H2 6048   9.080   1.449   7.931
 2055TIP3   OH2 6049   2.309   6.034   1.291
 2055TIP3    H1 6050   2.272   5.965   1.347
 2055TIP3    H2 6051   2.400   6.041   1.318
 2056TIP3   OH2 6052   2.555   6.040   1.417
 2056TIP3    H1 6053   2.630   6.016   1.363
 2056TIP3    H2 6054   2.546   5.969   1.480
 2057TIP3   OH2 6055   3.376   6.127   1.198
 2057TIP3    H1 6056   3.395   6.098   1.287
 2057TIP3    H2 6057   3.460   6.122   1.153
 2058TIP3   OH2 6058   3.271   7.666   0.711
 2058TIP3    H1 6059   3.197   7.638   0.657
 2058TIP3    H2 6060   3.265   7.761   0.713
 2059TIP3   OH2 6061   3.871   6.913   0.219
 2059TIP3    H1 6062   3.870   6.872   0.305
 2059TIP3    H2 6063   3.926   6.991   0.230
 2060TIP3   OH2 6064   0.457   1.990   8.005
 2060TIP3    H1 6065   0.546   1.954   8.006
 2060TIP3    H2 6066   0.421   1.963   7.921
 2061TIP3   OH2 6067   4.084   6.398   0.325
 2061TIP3    H1 6068   4.028   6.421   0.251
 2061TIP3    H2 6069   4.030   6.415   0.403
 2062TIP3   OH2 6070   3.982   6.497   0.065
 2062TIP3    H1 6071   4.014   6.573   0.114
 2062TIP3    H2 6072   4.042   6.490  -0.010
 2063TIP3   OH2 6073   4.088   7.432   0.272
 2063TIP3    H1 6074   4.096   7.409   0.179
 2063TIP3    H2 6075   4.005   7.392   0.299
 2064TIP3   OH2 6076   4.430   6.081   0.050
 2064TIP3    H1 6077   4.418   5.991   0.079
 2064TIP3    H2 6078   4.355   6.128   0.086
 2065TIP3   OH2 6079   4.266   7.542   0.447
 2065TIP3    H1 6080   4.250   7.635   0.436
 2065TIP3    H2 6081   4.198   7.500   0.394
 2066TIP3   OH2 6082   3.916   7.085   0.495
 2066TIP3    H1 6083   3.905   7.165   0.546
 2066TIP3    H2 6084   3.835   7.037   0.508
 2067TIP3   OH2 6085   3.927   7.653   0.313
 2067TIP3    H1 6086   3.988   7.589   0.278
 2067TIP3    H2 6087   3.929   7.640   0.408
 2068TIP3   OH2 6088   3.624   7.197   0.398
 2068TIP3    H1 6089   3.558   7.183   0.330
 2068TIP3    H2 6090   3.640   7.110   0.435
 2069TIP3   OH2 6091   3.525   7.361   0.086
 2069TIP3    H1 6092   3.516   7.408   0.003
 2069TIP3    H2 6093   3.558   7.427   0.147
 2070TIP3   OH2 6094   5.229   6.904   0.336
 2070TIP3    H1 6095   5.149   6.895   0.285
 2070TIP3    H2 6096   5.299   6.904   0.271
 2071TIP3   OH2 6097   3.841   7.361   0.370
 2071TIP3    H1 6098   3.858   7.386   0.461
 2071TIP3    H2 6099   3.762   7.309   0.373
 2072TIP3   OH2 6100   4.209   6.194   0.175
 2072TIP3    H1 6101   4.124   6.159   0.149
 2072TIP3    H2 6102   4.188   6.273   0.225
 2073TIP3   OH2 6103   4.757   6.261   0.344
 2073TIP3    H1 6104   4.823   6.256   0.414
 2073TIP3    H2 6105   4.675   6.241   0.388
 2074TIP3   OH2 6106   4.984   6.845   0.222
 2074TIP3    H1 6107   5.002   6.770   0.279
 2074TIP3    H2 6108   4.925   6.810   0.155
 2075TIP3   OH2 6109   4.065   6.700   0.229
 2075TIP3    H1 6110   4.005   6.698   0.303
 2075TIP3    H2 6111   4.038   6.777   0.178
 2076TIP3   OH2 6112   4.635   6.987   0.637
 2076TIP3    H1 6113   4.603   6.903   0.670
 2076TIP3    H2 6114   4.711   6.965   0.584
 2077TIP3   OH2 6115   3.907   6.744   0.446
 2077TIP3    H1 6116   3.979   6.786   0.492
 2077TIP3    H2 6117   3.890   6.664   0.496
 2078TIP3   OH2 6118   0.374   1.608   7.986
 2078TIP3    H1 6119   0.413   1.655   8.059
 2078TIP3    H2 6120   0.448   1.568   7.941
 2079TIP3   OH2 6121   3.916   7.310   0.657
 2079TIP3    H1 6122   3.917   7.239   0.721
 2079TIP3    H2 6123   3.856   7.375   0.694
 2080TIP3   OH2 6124   4.431   6.597   0.165
 2080TIP3    H1 6125   4.440   6.665   0.231
 2080TIP3    H2 6126   4.464   6.636   0.085
 2081TIP3   OH2 6127   4.550   7.427   0.147
 2081TIP3    H1 6128   4.510   7.413   0.232
 2081TIP3    H2 6129   4.615   7.495   0.162
 2082TIP3   OH2 6130   3.675   6.962   0.536
 2082TIP3    H1 6131   3.683   6.912   0.617
 2082TIP3    H2 6132   3.612   6.913   0.483
 2083TIP3   OH2 6133   4.396   7.079   0.559
 2083TIP3    H1 6134   4.378   7.067   0.466
 2083TIP3    H2 6135   4.483   7.042   0.572
 2084TIP3   OH2 6136   3.926   6.467   0.543
 2084TIP3    H1 6137   3.831   6.477   0.548
 2084TIP3    H2 6138   3.948   6.409   0.616
 2085TIP3   OH2 6139   3.646   7.556   0.240
 2085TIP3    H1 6140   3.728   7.550   0.288
 2085TIP3    H2 6141   3.661   7.624   0.175
 2086TIP3   OH2 6142   4.707   6.530   0.288
 2086TIP3    H1 6143   4.782   6.566   0.241
 2086TIP3    H2 6144   4.726   6.437   0.296
 2087TIP3   OH2 6145   4.573   6.844   0.296
 2087TIP3    H1 6146   4.644   6.863   0.358
 2087TIP3    H2 6147   4.618   6.817   0.216
 2088TIP3   OH2 6148   3.952   6.107   0.148
 2088TIP3    H1 6149   3.918   6.076   0.064
 2088TIP3    H2 6150   3.945   6.031   0.206
 2089TIP3   OH2 6151   3.644   7.842   0.636
 2089TIP3    H1 6152   3.716   7.829   0.698
 2089TIP3    H2 6153   3.600   7.757   0.632
 2090TIP3   OH2 6154   4.110   7.840   0.691
 2090TIP3    H1 6155   4.191   7.885   0.671
 2090TIP3    H2 6156   4.060   7.842   0.609
 2091TIP3   OH2 6157   4.773   7.849   0.322
 2091TIP3    H1 6158   4.797   7.776   0.378
 2091TIP3    H2 6159   4.835   7.845   0.249
 2092TIP3   OH2 6160   3.724   7.296   0.863
 2092TIP3    H1 6161   3.734   7.200   0.866
 2092TIP3    H2 6162   3.652   7.310   0.801
 2093TIP3   OH2 6163   4.416   7.382   0.623
 2093TIP3    H1 6164   4.374   7.437   0.557
 2093TIP3    H2 6165   4.348   7.318   0.647
 2094TIP3   OH2 6166   3.936   7.085   0.811
 2094TIP3    H1 6167   4.022   7.059   0.778
 2094TIP3    H2 6168   3.946   7.087   0.906
 2095TIP3   OH2 6169   4.123   6.912   0.484
 2095TIP3    H1 6170   4.055   6.979   0.497
 2095TIP3    H2 6171   4.188   6.954   0.429
 2096TIP3   OH2 6172   4.848   7.251   0.699
 2096TIP3    H1 6173   4.828   7.224   0.609
 2096TIP3    H2 6174   4.764   7.247   0.744
 2097TIP3   OH2 6175   4.275   6.592   0.636
 2097TIP3    H1 6176   4.292   6.501   0.613
 2097TIP3    H2 6177   4.273   6.638   0.552
 2098TIP3   OH2 6178   4.352   6.412   0.369
 2098TIP3    H1 6179   4.381   6.473   0.301
 2098TIP3    H2 6180   4.257   6.411   0.362
 2099TIP3   OH2 6181   4.334   6.976   0.309
 2099TIP3    H1 6182   4.420   6.935   0.296
 2099TIP3    H2 6183   4.316   7.020   0.226
 2100TIP3   OH2 6184   4.929   6.970   0.740
 2100TIP3    H1 6185   5.012   6.926   0.720
 2100TIP3    H2 6186   4.934   7.053   0.693
 2101TIP3   OH2 6187   5.056   7.178   0.251
 2101TIP3    H1 6188   4.971   7.221   0.241
 2101TIP3    H2 6189   5.118   7.249   0.263
 2102TIP3   OH2 6190   4.231   6.785   0.829
 2102TIP3    H1 6191   4.155   6.750   0.876
 2102TIP3    H2 6192   4.241   6.727   0.754
 2103TIP3   OH2 6193   4.504   6.209   0.459
 2103TIP3    H1 6194   4.453   6.281   0.423
 2103TIP3    H2 6195   4.453   6.130   0.439
 2104TIP3   OH2 6196   4.518   6.758   0.713
 2104TIP3    H1 6197   4.487   6.699   0.781
 2104TIP3    H2 6198   4.515   6.706   0.633
 2105TIP3   OH2 6199   4.799   6.667   0.621
 2105TIP3    H1 6200   4.723   6.633   0.575
 2105TIP3    H2 6201   4.846   6.590   0.651
 2106TIP3   OH2 6202   5.127   6.609   0.714
 2106TIP3    H1 6203   5.110   6.515   0.722
 2106TIP3    H2 6204   5.106   6.645   0.800
 2107TIP3   OH2 6205   4.074   6.553   0.894
 2107TIP3    H1 6206   4.090   6.478   0.837
 2107TIP3    H2 6207   4.116   6.530   0.977
 2108TIP3   OH2 6208   4.518   6.204   0.743
 2108TIP3    H1 6209   4.594   6.148   0.752
 2108TIP3    H2 6210   4.489   6.191   0.653
 2109TIP3   OH2 6211   4.635   6.434   0.882
 2109TIP3    H1 6212   4.607   6.370   0.818
 2109TIP3    H2 6213   4.561   6.494   0.891
 2110TIP3   OH2 6214   5.133   7.645   0.429
 2110TIP3    H1 6215   5.140   7.654   0.524
 2110TIP3    H2 6216   5.211   7.690   0.395
 2111TIP3   OH2 6217   3.608   6.903   0.140
 2111TIP3    H1 6218   3.604   6.873   0.050
 2111TIP3    H2 6219   3.702   6.910   0.160
 2112TIP3   OH2 6220   3.817   6.622   0.831
 2112TIP3    H1 6221   3.912   6.612   0.845
 2112TIP3    H2 6222   3.780   6.538   0.858
 2113TIP3   OH2 6223   5.736   6.395   0.453
 2113TIP3    H1 6224   5.801   6.458   0.485
 2113TIP3    H2 6225   5.663   6.448   0.423
 2114TIP3   OH2 6226   3.797   6.330   0.187
 2114TIP3    H1 6227   3.853   6.252   0.187
 2114TIP3    H2 6228   3.848   6.396   0.142
 2115TIP3   OH2 6229   3.579   6.599   0.239
 2115TIP3    H1 6230   3.626   6.591   0.155
 2115TIP3    H2 6231   3.575   6.693   0.255
 2116TIP3   OH2 6232   5.527   6.546   0.376
 2116TIP3    H1 6233   5.443   6.575   0.412
 2116TIP3    H2 6234   5.566   6.625   0.339
 2117TIP3   OH2 6235   3.795   6.161   0.545
 2117TIP3    H1 6236   3.741   6.150   0.623
 2117TIP3    H2 6237   3.741   6.212   0.485
 2118TIP3   OH2 6238   3.769   7.559   0.724
 2118TIP3    H1 6239   3.681   7.568   0.686
 2118TIP3    H2 6240   3.756   7.565   0.818
 2119TIP3   OH2 6241   5.285   6.314   0.151
 2119TIP3    H1 6242   5.295   6.408   0.165
 2119TIP3    H2 6243   5.372   6.278   0.167
 2120TIP3   OH2 6244   3.647   7.997   0.115
 2120TIP3    H1 6245   3.567   8.038   0.083
 2120TIP3    H2 6246   3.628   7.971   0.205
 2121TIP3   OH2 6247   0.581   1.383   7.922
 2121TIP3    H1 6248   0.498   1.335   7.923
 2121TIP3    H2 6249   0.646   1.317   7.896
 2122TIP3   OH2 6250   4.098   6.287   0.775
 2122TIP3    H1 6251   4.059   6.218   0.830
 2122TIP3    H2 6252   4.186   6.298   0.809
 2123TIP3   OH2 6253   4.331   6.294   0.923
 2123TIP3    H1 6254   4.402   6.263   0.866
 2123TIP3    H2 6255   4.320   6.224   0.987
 2124TIP3   OH2 6256   5.173   6.331   0.713
 2124TIP3    H1 6257   5.149   6.316   0.804
 2124TIP3    H2 6258   5.268   6.342   0.714
 2125TIP3   OH2 6259   6.073   6.516   0.408
 2125TIP3    H1 6260   6.066   6.511   0.313
 2125TIP3    H2 6261   6.167   6.519   0.425
 2126TIP3   OH2 6262   1.726   7.831   1.169
 2126TIP3    H1 6263   1.784   7.755   1.158
 2126TIP3    H2 6264   1.679   7.837   1.086
 2127TIP3   OH2 6265   3.247   8.304   0.234
 2127TIP3    H1 6266   3.220   8.360   0.162
 2127TIP3    H2 6267   3.306   8.358   0.286
 2128TIP3   OH2 6268   3.038   8.000   0.260
 2128TIP3    H1 6269   3.019   8.070   0.322
 2128TIP3    H2 6270   3.051   8.045   0.177
 2129TIP3   OH2 6271   3.030   8.510   0.576
 2129TIP3    H1 6272   3.048   8.532   0.484
 2129TIP3    H2 6273   3.092   8.440   0.595
 2130TIP3   OH2 6274   2.669   7.884   0.533
 2130TIP3    H1 6275   2.733   7.848   0.595
 2130TIP3    H2 6276   2.602   7.924   0.589
 2131TIP3   OH2 6277   2.821   8.372   0.393
 2131TIP3    H1 6278   2.800   8.358   0.485
 2131TIP3    H2 6279   2.745   8.338   0.346
 2132TIP3   OH2 6280   2.602   8.558   0.750
 2132TIP3    H1 6281   2.560   8.472   0.757
 2132TIP3    H2 6282   2.696   8.539   0.749
 2133TIP3   OH2 6283   2.687   8.114   0.385
 2133TIP3    H1 6284   2.708   8.154   0.470
 2133TIP3    H2 6285   2.673   8.021   0.406
 2134TIP3   OH2 6286   3.060   8.226   0.422
 2134TIP3    H1 6287   2.983   8.283   0.418
 2134TIP3    H2 6288   3.121   8.263   0.358
 2135TIP3   OH2 6289   2.871   8.507   0.798
 2135TIP3    H1 6290   2.893   8.417   0.819
 2135TIP3    H2 6291   2.923   8.526   0.719
 2136TIP3   OH2 6292   2.381   7.772   0.618
 2136TIP3    H1 6293   2.382   7.863   0.588
 2136TIP3    H2 6294   2.450   7.729   0.567
 2137TIP3   OH2 6295   2.502   8.301   0.790
 2137TIP3    H1 6296   2.500   8.294   0.885
 2137TIP3    H2 6297   2.415   8.271   0.762
 2138TIP3   OH2 6298   2.735   8.248   0.634
 2138TIP3    H1 6299   2.655   8.260   0.685
 2138TIP3    H2 6300   2.804   8.235   0.700
 2139TIP3   OH2 6301   2.948   8.230   0.837
 2139TIP3    H1 6302   2.961   8.136   0.835
 2139TIP3    H2 6303   2.939   8.251   0.930
 2140TIP3   OH2 6304   2.043   8.249   1.074
 2140TIP3    H1 6305   2.002   8.208   0.998
 2140TIP3    H2 6306   2.051   8.179   1.138
 2141TIP3   OH2 6307   2.404   7.788   0.894
 2141TIP3    H1 6308   2.475   7.724   0.894
 2141TIP3    H2 6309   2.372   7.788   0.804
 2142TIP3   OH2 6310   2.501   8.015   1.018
 2142TIP3    H1 6311   2.470   7.938   0.971
 2142TIP3    H2 6312   2.430   8.079   1.010
 2143TIP3   OH2 6313   3.272   8.690   0.497
 2143TIP3    H1 6314   3.197   8.686   0.437
 2143TIP3    H2 6315   3.324   8.613   0.475
 2144TIP3   OH2 6316   3.095   8.589   0.308
 2144TIP3    H1 6317   3.008   8.606   0.271
 2144TIP3    H2 6318   3.149   8.567   0.232
 2145TIP3   OH2 6319   3.508   8.067   0.713
 2145TIP3    H1 6320   3.560   7.999   0.670
 2145TIP3    H2 6321   3.473   8.119   0.642
 2146TIP3   OH2 6322   3.346   8.196   0.532
 2146TIP3    H1 6323   3.269   8.231   0.576
 2146TIP3    H2 6324   3.313   8.127   0.475
 2147TIP3   OH2 6325   3.266   7.949   0.416
 2147TIP3    H1 6326   3.183   7.952   0.368
 2147TIP3    H2 6327   3.300   7.862   0.398
 2148TIP3   OH2 6328   1.955   7.796   0.932
 2148TIP3    H1 6329   1.927   7.726   0.991
 2148TIP3    H2 6330   2.036   7.828   0.971
 2149TIP3   OH2 6331   2.188   7.851   1.084
 2149TIP3    H1 6332   2.262   7.826   1.029
 2149TIP3    H2 6333   2.176   7.777   1.144
 2150TIP3   OH2 6334   3.019   7.962   0.842
 2150TIP3    H1 6335   3.036   7.931   0.931
 2150TIP3    H2 6336   3.104   7.954   0.798
 2151TIP3   OH2 6337   3.533   8.790   0.519
 2151TIP3    H1 6338   3.573   8.840   0.448
 2151TIP3    H2 6339   3.439   8.788   0.497
 2152TIP3   OH2 6340   3.840   8.686   0.381
 2152TIP3    H1 6341   3.805   8.603   0.350
 2152TIP3    H2 6342   3.933   8.683   0.356
 2153TIP3   OH2 6343   3.644   8.418   0.550
 2153TIP3    H1 6344   3.643   8.338   0.498
 2153TIP3    H2 6345   3.639   8.388   0.641
 2154TIP3   OH2 6346   4.232   8.326   0.463
 2154TIP3    H1 6347   4.168   8.257   0.445
 2154TIP3    H2 6348   4.192   8.406   0.429
 2155TIP3   OH2 6349   3.397   8.449   0.427
 2155TIP3    H1 6350   3.486   8.475   0.450
 2155TIP3    H2 6351   3.386   8.364   0.469
 2156TIP3   OH2 6352   3.368   8.036   0.158
 2156TIP3    H1 6353   3.344   8.019   0.250
 2156TIP3    H2 6354   3.336   8.125   0.141
 2157TIP3   OH2 6355   3.656   7.922   0.375
 2157TIP3    H1 6356   3.656   7.884   0.463
 2157TIP3    H2 6357   3.664   8.017   0.390
 2158TIP3   OH2 6358   3.846   8.095   0.629
 2158TIP3    H1 6359   3.937   8.114   0.655
 2158TIP3    H2 6360   3.827   8.009   0.668
 2159TIP3   OH2 6361   8.023   9.093   4.788
 2159TIP3    H1 6362   7.955   9.100   4.722
 2159TIP3    H2 6363   8.039   9.184   4.816
 2160TIP3   OH2 6364   1.767   0.363   4.796
 2160TIP3    H1 6365   1.828   0.340   4.865
 2160TIP3    H2 6366   1.683   0.376   4.841
 2161TIP3   OH2 6367   1.490   0.666   4.951
 2161TIP3    H1 6368   1.483   0.719   4.872
 2161TIP3    H2 6369   1.544   0.719   5.010
 2162TIP3   OH2 6370   1.785   0.039   4.912
 2162TIP3    H1 6371   1.695   0.071   4.922
 2162TIP3    H2 6372   1.781  -0.019   4.836
 2163TIP3   OH2 6373   1.271   0.333   4.799
 2163TIP3    H1 6374   1.225   0.256   4.765
 2163TIP3    H2 6375   1.311   0.373   4.722
 2164TIP3   OH2 6376   1.308   0.122   5.028
 2164TIP3    H1 6377   1.220   0.157   5.039
 2164TIP3    H2 6378   1.349   0.133   5.114
 2165TIP3   OH2 6379   1.634   0.497   4.221
 2165TIP3    H1 6380   1.648   0.485   4.315
 2165TIP3    H2 6381   1.712   0.459   4.181
 2166TIP3   OH2 6382   1.697   0.444   4.497
 2166TIP3    H1 6383   1.624   0.425   4.557
 2166TIP3    H2 6384   1.767   0.385   4.524
 2167TIP3   OH2 6385   1.563   0.023   5.183
 2167TIP3    H1 6386   1.577   0.015   5.277
 2167TIP3    H2 6387   1.596   0.110   5.161
 2168TIP3   OH2 6388   1.432   0.181   4.580
 2168TIP3    H1 6389   1.348   0.139   4.600
 2168TIP3    H2 6390   1.442   0.170   4.485
 2169TIP3   OH2 6391   8.289   8.914   5.013
 2169TIP3    H1 6392   8.320   8.825   4.998
 2169TIP3    H2 6393   8.277   8.950   4.925
 2170TIP3   OH2 6394   8.395   8.668   4.989
 2170TIP3    H1 6395   8.357   8.616   5.060
 2170TIP3    H2 6396   8.474   8.621   4.964
 2171TIP3   OH2 6397   1.101   0.532   4.872
 2171TIP3    H1 6398   1.169   0.471   4.844
 2171TIP3    H2 6399   1.134   0.568   4.955
 2172TIP3   OH2 6400   1.191   0.376   4.496
 2172TIP3    H1 6401   1.173   0.464   4.529
 2172TIP3    H2 6402   1.193   0.386   4.401
 2173TIP3   OH2 6403   1.520   0.394   4.915
 2173TIP3    H1 6404   1.442   0.385   4.860
 2173TIP3    H2 6405   1.518   0.485   4.944
 2174TIP3   OH2 6406   9.424   8.962   3.741
 2174TIP3    H1 6407   9.404   9.055   3.731
 2174TIP3    H2 6408   9.339   8.919   3.732
 2175TIP3   OH2 6409   9.411   8.953   4.107
 2175TIP3    H1 6410   9.456   8.937   4.190
 2175TIP3    H2 6411   9.375   8.867   4.083
 2176TIP3   OH2 6412   8.724   8.831   4.376
 2176TIP3    H1 6413   8.723   8.782   4.458
 2176TIP3    H2 6414   8.817   8.848   4.359
 2177TIP3   OH2 6415   3.155   0.031   3.801
 2177TIP3    H1 6416   3.129  -0.031   3.869
 2177TIP3    H2 6417   3.169   0.113   3.847
 2178TIP3   OH2 6418   2.099   0.097   4.229
 2178TIP3    H1 6419   2.163   0.031   4.201
 2178TIP3    H2 6420   2.131   0.127   4.314
 2179TIP3   OH2 6421   2.803   0.455   3.825
 2179TIP3    H1 6422   2.827   0.393   3.756
 2179TIP3    H2 6423   2.801   0.402   3.905
 2180TIP3   OH2 6424   9.242   9.181   4.103
 2180TIP3    H1 6425   9.285   9.099   4.079
 2180TIP3    H2 6426   9.312   9.238   4.134
 2181TIP3   OH2 6427   9.656   8.679   4.159
 2181TIP3    H1 6428   9.734   8.630   4.185
 2181TIP3    H2 6429   9.610   8.621   4.098
 2182TIP3   OH2 6430   0.368   8.623   4.347
 2182TIP3    H1 6431   0.316   8.700   4.325
 2182TIP3    H2 6432   0.441   8.658   4.399
 2183TIP3   OH2 6433   2.783  -0.033   3.668
 2183TIP3    H1 6434   2.858   0.009   3.626
 2183TIP3    H2 6435   2.710   0.027   3.652
 2184TIP3   OH2 6436   9.081   9.134   4.315
 2184TIP3    H1 6437   9.028   9.209   4.339
 2184TIP3    H2 6438   9.131   9.164   4.239
 2185TIP3   OH2 6439   2.395   0.108   4.388
 2185TIP3    H1 6440   2.362   0.198   4.386
 2185TIP3    H2 6441   2.334   0.062   4.446
 2186TIP3   OH2 6442   3.178   0.280   3.932
 2186TIP3    H1 6443   3.089   0.274   3.967
 2186TIP3    H2 6444   3.180   0.362   3.884
 2187TIP3   OH2 6445   2.881   0.316   3.600
 2187TIP3    H1 6446   2.933   0.237   3.590
 2187TIP3    H2 6447   2.930   0.384   3.554
 2188TIP3   OH2 6448   3.016   0.083   3.570
 2188TIP3    H1 6449   3.051   0.034   3.495
 2188TIP3    H2 6450   3.072   0.059   3.643
 2189TIP3   OH2 6451   3.415   0.161   4.281
 2189TIP3    H1 6452   3.391   0.089   4.222
 2189TIP3    H2 6453   3.399   0.240   4.230
 2190TIP3   OH2 6454   0.310   9.080   4.157
 2190TIP3    H1 6455   0.224   9.122   4.151
 2190TIP3    H2 6456   0.344   9.083   4.067
 2191TIP3   OH2 6457   9.615   8.948   3.537
 2191TIP3    H1 6458   9.551   8.952   3.608
 2191TIP3    H2 6459   9.691   8.904   3.576
 2192TIP3   OH2 6460   9.815   8.935   4.451
 2192TIP3    H1 6461   9.812   9.015   4.504
 2192TIP3    H2 6462   9.730   8.934   4.406
 2193TIP3   OH2 6463   2.449   0.071   4.042
 2193TIP3    H1 6464   2.388   0.004   4.071
 2193TIP3    H2 6465   2.534   0.028   4.043
 2194TIP3   OH2 6466   8.958   8.901   4.249
 2194TIP3    H1 6467   8.961   8.897   4.154
 2194TIP3    H2 6468   9.012   8.976   4.273
 2195TIP3   OH2 6469   2.939   0.270   4.061
 2195TIP3    H1 6470   2.925   0.349   4.113
 2195TIP3    H2 6471   2.928   0.198   4.123
 2196TIP3   OH2 6472   2.571   0.159   4.599
 2196TIP3    H1 6473   2.509   0.221   4.637
 2196TIP3    H2 6474   2.523   0.118   4.527
 2197TIP3   OH2 6475   8.884   8.938   4.691
 2197TIP3    H1 6476   8.886   8.986   4.773
 2197TIP3    H2 6477   8.793   8.943   4.662
 2198TIP3   OH2 6478   2.634   0.200   3.596
 2198TIP3    H1 6479   2.719   0.242   3.605
 2198TIP3    H2 6480   2.578   0.267   3.558
 2199TIP3   OH2 6481   2.386   0.352   4.666
 2199TIP3    H1 6482   2.383   0.373   4.572
 2199TIP3    H2 6483   2.296   0.360   4.696
 2200TIP3   OH2 6484   3.251   0.160   2.989
 2200TIP3    H1 6485   3.246   0.236   2.933
 2200TIP3    H2 6486   3.326   0.111   2.956
 2201TIP3   OH2 6487   8.459   9.183   4.555
 2201TIP3    H1 6488   8.444   9.176   4.460
 2201TIP3    H2 6489   8.372   9.171   4.594
 2202TIP3   OH2 6490   4.149   1.244   1.941
 2202TIP3    H1 6491   4.204   1.169   1.964
 2202TIP3    H2 6492   4.105   1.268   2.022
 2203TIP3   OH2 6493   3.642   0.527   4.349
 2203TIP3    H1 6494   3.648   0.432   4.361
 2203TIP3    H2 6495   3.563   0.552   4.396
 2204TIP3   OH2 6496   2.754   0.316   4.466
 2204TIP3    H1 6497   2.742   0.406   4.497
 2204TIP3    H2 6498   2.686   0.266   4.511
 2205TIP3   OH2 6499   2.510   0.416   3.460
 2205TIP3    H1 6500   2.425   0.384   3.428
 2205TIP3    H2 6501   2.491   0.504   3.491
 2206TIP3   OH2 6502   2.746   0.423   3.311
 2206TIP3    H1 6503   2.666   0.410   3.362
 2206TIP3    H2 6504   2.805   0.354   3.341
 2207TIP3   OH2 6505   0.284   8.865   4.646
 2207TIP3    H1 6506   0.207   8.901   4.601
 2207TIP3    H2 6507   0.322   8.803   4.583
 2208TIP3   OH2 6508   2.070   0.043   4.773
 2208TIP3    H1 6509   2.166   0.047   4.765
 2208TIP3    H2 6510   2.040   0.019   4.685
 2209TIP3   OH2 6511  -0.022   8.707   4.605
 2209TIP3    H1 6512   0.048   8.644   4.589
 2209TIP3    H2 6513  -0.001   8.782   4.550
 2210TIP3   OH2 6514   8.909   8.579   4.303
 2210TIP3    H1 6515   8.926   8.644   4.371
 2210TIP3    H2 6516   8.958   8.610   4.227
 2211TIP3   OH2 6517   9.573   8.944   4.743
 2211TIP3    H1 6518   9.539   8.882   4.808
 2211TIP3    H2 6519   9.668   8.937   4.751
 2212TIP3   OH2 6520   9.545   8.622   3.889
 2212TIP3    H1 6521   9.535   8.701   3.835
 2212TIP3    H2 6522   9.603   8.565   3.838
 2213TIP3   OH2 6523   8.676   8.670   4.596
 2213TIP3    H1 6524   8.646   8.671   4.687
 2213TIP3    H2 6525   8.696   8.578   4.579
 2214TIP3   OH2 6526   9.564   8.878   4.329
 2214TIP3    H1 6527   9.597   8.810   4.270
 2214TIP3    H2 6528   9.532   8.830   4.406
 2215TIP3   OH2 6529   3.357   0.867   4.440
 2215TIP3    H1 6530   3.354   0.885   4.346
 2215TIP3    H2 6531   3.435   0.913   4.471
 2216TIP3   OH2 6532   2.345   0.002   4.825
 2216TIP3    H1 6533   2.389   0.085   4.845
 2216TIP3    H2 6534   2.332  -0.039   4.911
 2217TIP3   OH2 6535   9.347   8.678   4.072
 2217TIP3    H1 6536   9.410   8.645   4.007
 2217TIP3    H2 6537   9.373   8.634   4.153
 2218TIP3   OH2 6538   9.399   8.582   4.326
 2218TIP3    H1 6539   9.312   8.620   4.335
 2218TIP3    H2 6540   9.450   8.622   4.396
 2219TIP3   OH2 6541   0.077   9.211   4.098
 2219TIP3    H1 6542   0.110   9.261   4.023
 2219TIP3    H2 6543  -0.004   9.171   4.066
 2220TIP3   OH2 6544   2.879   0.054   4.502
 2220TIP3    H1 6545   2.924   0.041   4.585
 2220TIP3    H2 6546   2.835   0.138   4.511
 2221TIP3   OH2 6547   8.488   8.836   4.787
 2221TIP3    H1 6548   8.523   8.898   4.852
 2221TIP3    H2 6549   8.444   8.769   4.840
 2222TIP3   OH2 6550   9.339   9.071   4.829
 2222TIP3    H1 6551   9.270   9.028   4.778
 2222TIP3    H2 6552   9.420   9.037   4.792
 2223TIP3   OH2 6553   3.023   0.331   4.395
 2223TIP3    H1 6554   2.928   0.320   4.399
 2223TIP3    H2 6555   3.046   0.367   4.481
 2224TIP3   OH2 6556   3.658   0.252   4.368
 2224TIP3    H1 6557   3.565   0.232   4.367
 2224TIP3    H2 6558   3.691   0.220   4.284
 2225TIP3   OH2 6559   3.133   0.182   3.237
 2225TIP3    H1 6560   3.116   0.097   3.278
 2225TIP3    H2 6561   3.169   0.160   3.150
 2226TIP3   OH2 6562   9.647   9.082   4.005
 2226TIP3    H1 6563   9.558   9.057   4.028
 2226TIP3    H2 6564   9.686   9.003   3.970
 2227TIP3   OH2 6565   2.587   0.386   4.243
 2227TIP3    H1 6566   2.622   0.461   4.196
 2227TIP3    H2 6567   2.660   0.354   4.296
 2228TIP3   OH2 6568   2.933   0.047   4.233
 2228TIP3    H1 6569   2.913   0.048   4.326
 2228TIP3    H2 6570   3.020   0.008   4.227
 2229TIP3   OH2 6571   3.171   0.541   4.281
 2229TIP3    H1 6572   3.103   0.478   4.301
 2229TIP3    H2 6573   3.136   0.593   4.208
 2230TIP3   OH2 6574   3.245   0.423   2.895
 2230TIP3    H1 6575   3.301   0.499   2.877
 2230TIP3    H2 6576   3.171   0.460   2.943
 2231TIP3   OH2 6577   9.646   9.165   3.365
 2231TIP3    H1 6578   9.618   9.086   3.412
 2231TIP3    H2 6579   9.732   9.143   3.331
 2232TIP3   OH2 6580   1.986   0.397   4.361
 2232TIP3    H1 6581   2.045   0.334   4.404
 2232TIP3    H2 6582   2.002   0.480   4.408
 2233TIP3   OH2 6583   9.511   8.707   4.538
 2233TIP3    H1 6584   9.446   8.724   4.606
 2233TIP3    H2 6585   9.595   8.706   4.584
 2234TIP3   OH2 6586   9.750   8.832   3.938
 2234TIP3    H1 6587   9.683   8.789   3.991
 2234TIP3    H2 6588   9.833   8.805   3.977
 2235TIP3   OH2 6589   3.215   0.544   3.840
 2235TIP3    H1 6590   3.171   0.595   3.772
 2235TIP3    H2 6591   3.308   0.562   3.826
 2236TIP3   OH2 6592   2.047   0.594   4.870
 2236TIP3    H1 6593   2.123   0.599   4.928
 2236TIP3    H2 6594   2.058   0.511   4.823
 2237TIP3   OH2 6595   2.480   0.489   4.889
 2237TIP3    H1 6596   2.569   0.459   4.906
 2237TIP3    H2 6597   2.453   0.444   4.809
 2238TIP3   OH2 6598   3.079   0.429   4.644
 2238TIP3    H1 6599   3.090   0.361   4.710
 2238TIP3    H2 6600   3.152   0.490   4.659
 2239TIP3   OH2 6601   8.600   9.258   5.157
 2239TIP3    H1 6602   8.591   9.207   5.238
 2239TIP3    H2 6603   8.548   9.210   5.093
 2240TIP3   OH2 6604   2.735   0.098   4.812
 2240TIP3    H1 6605   2.685   0.103   4.731
 2240TIP3    H2 6606   2.774   0.010   4.811
 2241TIP3   OH2 6607   3.185   0.101   4.426
 2241TIP3    H1 6608   3.265   0.131   4.382
 2241TIP3    H2 6609   3.122   0.173   4.414
 2242TIP3   OH2 6610   8.728   8.889   4.938
 2242TIP3    H1 6611   8.784   8.869   5.013
 2242TIP3    H2 6612   8.702   8.980   4.952
 2243TIP3   OH2 6613   9.161   8.959   4.660
 2243TIP3    H1 6614   9.067   8.973   4.644
 2243TIP3    H2 6615   9.202   8.974   4.575
 2244TIP3   OH2 6616   9.606   9.225   4.807
 2244TIP3    H1 6617   9.623   9.155   4.745
 2244TIP3    H2 6618   9.606   9.183   4.893
 2245TIP3   OH2 6619   9.064   8.511   4.869
 2245TIP3    H1 6620   9.159   8.500   4.865
 2245TIP3    H2 6621   9.051   8.606   4.872
 2246TIP3   OH2 6622   9.299   8.993   4.433
 2246TIP3    H1 6623   9.390   9.007   4.406
 2246TIP3    H2 6624   9.250   9.060   4.385
 2247TIP3   OH2 6625   0.026   8.926   4.852
 2247TIP3    H1 6626   0.076   8.844   4.846
 2247TIP3    H2 6627   0.093   8.994   4.859
 2248TIP3   OH2 6628   0.043   9.168   4.598
 2248TIP3    H1 6629  -0.015   9.230   4.554
 2248TIP3    H2 6630   0.130   9.186   4.561
 2249TIP3   OH2 6631   9.120   8.729   5.121
 2249TIP3    H1 6632   9.162   8.643   5.129
 2249TIP3    H2 6633   9.102   8.737   5.027
 2250TIP3   OH2 6634   9.532   8.789   4.963
 2250TIP3    H1 6635   9.485   8.794   5.047
 2250TIP3    H2 6636   9.578   8.705   4.966
 2251TIP3   OH2 6637   3.481   0.630   3.840
 2251TIP3    H1 6638   3.500   0.605   3.931
 2251TIP3    H2 6639   3.497   0.724   3.837
 2252TIP3   OH2 6640   3.490   0.612   4.123
 2252TIP3    H1 6641   3.440   0.530   4.121
 2252TIP3    H2 6642   3.557   0.597   4.190
 2253TIP3   OH2 6643   3.541   0.324   4.690
 2253TIP3    H1 6644   3.468   0.331   4.752
 2253TIP3    H2 6645   3.587   0.407   4.698
 2254TIP3   OH2 6646   0.101   9.098   3.299
 2254TIP3    H1 6647   0.170   9.154   3.264
 2254TIP3    H2 6648   0.142   9.049   3.370
 2255TIP3   OH2 6649   0.212   8.963   3.513
 2255TIP3    H1 6650   0.146   8.938   3.579
 2255TIP3    H2 6651   0.279   9.009   3.563
 2256TIP3   OH2 6652   3.533   0.110   3.939
 2256TIP3    H1 6653   3.573   0.033   3.898
 2256TIP3    H2 6654   3.548   0.181   3.877
 2257TIP3   OH2 6655   3.342   0.379   4.133
 2257TIP3    H1 6656   3.274   0.425   4.182
 2257TIP3    H2 6657   3.295   0.340   4.059
 2258TIP3   OH2 6658   0.029   8.823   3.675
 2258TIP3    H1 6659   0.070   8.736   3.676
 2258TIP3    H2 6660   0.001   8.837   3.765
 2259TIP3   OH2 6661   0.291   9.209   4.488
 2259TIP3    H1 6662   0.366   9.151   4.478
 2259TIP3    H2 6663   0.292   9.264   4.410
 2260TIP3   OH2 6664   0.523   9.059   4.533
 2260TIP3    H1 6665   0.496   9.035   4.622
 2260TIP3    H2 6666   0.599   9.116   4.545
 2261TIP3   OH2 6667   0.169   8.732   4.058
 2261TIP3    H1 6668   0.244   8.756   4.005
 2261TIP3    H2 6669   0.195   8.752   4.148
 2262TIP3   OH2 6670   0.232   8.856   4.301
 2262TIP3    H1 6671   0.154   8.887   4.347
 2262TIP3    H2 6672   0.265   8.934   4.256
 2263TIP3   OH2 6673   3.007   0.523   3.475
 2263TIP3    H1 6674   3.069   0.499   3.406
 2263TIP3    H2 6675   3.058   0.580   3.533
 2264TIP3   OH2 6676   2.125   0.342   4.757
 2264TIP3    H1 6677   2.044   0.296   4.778
 2264TIP3    H2 6678   2.183   0.323   4.831
 2265TIP3   OH2 6679   2.365   0.383   4.398
 2265TIP3    H1 6680   2.313   0.456   4.364
 2265TIP3    H2 6681   2.444   0.382   4.344
 2266TIP3   OH2 6682   2.731   0.578   4.553
 2266TIP3    H1 6683   2.769   0.571   4.641
 2266TIP3    H2 6684   2.793   0.632   4.505
 2267TIP3   OH2 6685   2.926   0.730   4.430
 2267TIP3    H1 6686   2.990   0.675   4.384
 2267TIP3    H2 6687   2.980   0.788   4.484
 2268TIP3   OH2 6688   2.028   0.645   4.462
 2268TIP3    H1 6689   1.950   0.678   4.418
 2268TIP3    H2 6690   2.038   0.699   4.540
 2269TIP3   OH2 6691   2.242   0.602   4.297
 2269TIP3    H1 6692   2.166   0.620   4.353
 2269TIP3    H2 6693   2.210   0.614   4.208
 2270TIP3   OH2 6694   2.648   0.607   4.093
 2270TIP3    H1 6695   2.573   0.619   4.034
 2270TIP3    H2 6696   2.657   0.692   4.137
 2271TIP3   OH2 6697   2.905   0.530   4.151
 2271TIP3    H1 6698   2.816   0.555   4.127
 2271TIP3    H2 6699   2.961   0.591   4.104
 2272TIP3   OH2 6700   3.110   0.690   4.050
 2272TIP3    H1 6701   3.110   0.779   4.014
 2272TIP3    H2 6702   3.144   0.635   3.979
 2273TIP3   OH2 6703   1.877   0.380   4.123
 2273TIP3    H1 6704   1.918   0.397   4.208
 2273TIP3    H2 6705   1.948   0.352   4.067
 2274TIP3   OH2 6706   2.118   0.300   4.033
 2274TIP3    H1 6707   2.118   0.223   4.090
 2274TIP3    H2 6708   2.211   0.323   4.024
 2275TIP3   OH2 6709   2.398   0.342   4.040
 2275TIP3    H1 6710   2.412   0.250   4.019
 2275TIP3    H2 6711   2.457   0.358   4.115
 2276TIP3   OH2 6712   3.175   0.451   3.265
 2276TIP3    H1 6713   3.165   0.356   3.262
 2276TIP3    H2 6714   3.137   0.482   3.183
 2277TIP3   OH2 6715   3.392   0.594   4.444
 2277TIP3    H1 6716   3.317   0.564   4.393
 2277TIP3    H2 6717   3.380   0.688   4.453
 2278TIP3   OH2 6718   4.661  -0.007   3.216
 2278TIP3    H1 6719   4.630   0.080   3.192
 2278TIP3    H2 6720   4.600  -0.067   3.173
 2279TIP3   OH2 6721   1.373   9.234   3.579
 2279TIP3    H1 6722   1.413   9.214   3.664
 2279TIP3    H2 6723   1.348   9.149   3.543
 2280TIP3   OH2 6724   0.667   9.153   3.951
 2280TIP3    H1 6725   0.713   9.101   4.017
 2280TIP3    H2 6726   0.736   9.183   3.892
 2281TIP3   OH2 6727   4.942   0.271   3.293
 2281TIP3    H1 6728   4.918   0.217   3.368
 2281TIP3    H2 6729   4.959   0.358   3.330
 2282TIP3   OH2 6730   3.894   0.288   3.657
 2282TIP3    H1 6731   3.885   0.195   3.641
 2282TIP3    H2 6732   3.988   0.305   3.647
 2283TIP3   OH2 6733   0.277   8.732   3.386
 2283TIP3    H1 6734   0.259   8.816   3.427
 2283TIP3    H2 6735   0.193   8.704   3.349
 2284TIP3   OH2 6736   0.440   9.062   3.639
 2284TIP3    H1 6737   0.487   8.980   3.644
 2284TIP3    H2 6738   0.506   9.127   3.614
 2285TIP3   OH2 6739   4.604   0.714   3.312
 2285TIP3    H1 6740   4.618   0.660   3.235
 2285TIP3    H2 6741   4.630   0.658   3.385
 2286TIP3   OH2 6742   4.455   0.212   3.620
 2286TIP3    H1 6743   4.493   0.132   3.584
 2286TIP3    H2 6744   4.529   0.269   3.636
 2287TIP3   OH2 6745   1.638   8.980   3.626
 2287TIP3    H1 6746   1.705   8.913   3.621
 2287TIP3    H2 6747   1.600   8.983   3.539
 2288TIP3   OH2 6748   0.544   8.810   3.691
 2288TIP3    H1 6749   0.627   8.789   3.732
 2288TIP3    H2 6750   0.548   8.769   3.605
 2289TIP3   OH2 6751   1.003   9.078   3.565
 2289TIP3    H1 6752   1.094   9.048   3.564
 2289TIP3    H2 6753   0.951   8.999   3.550
 2290TIP3   OH2 6754   2.253   8.856   3.802
 2290TIP3    H1 6755   2.242   8.949   3.781
 2290TIP3    H2 6756   2.341   8.851   3.841
 2291TIP3   OH2 6757   4.525   0.187   3.080
 2291TIP3    H1 6758   4.510   0.170   2.987
 2291TIP3    H2 6759   4.488   0.274   3.095
 2292TIP3   OH2 6760   4.319   0.146   3.850
 2292TIP3    H1 6761   4.258   0.217   3.873
 2292TIP3    H2 6762   4.360   0.177   3.769
 2293TIP3   OH2 6763   0.805   8.752   3.743
 2293TIP3    H1 6764   0.846   8.814   3.804
 2293TIP3    H2 6765   0.840   8.776   3.658
 2294TIP3   OH2 6766   4.145   0.338   3.936
 2294TIP3    H1 6767   4.131   0.425   3.899
 2294TIP3    H2 6768   4.066   0.320   3.987
 2295TIP3   OH2 6769   3.554   0.036   3.194
 2295TIP3    H1 6770   3.513   0.050   3.109
 2295TIP3    H2 6771   3.569   0.124   3.228
 2296TIP3   OH2 6772   4.968   0.524   3.422
 2296TIP3    H1 6773   4.877   0.524   3.451
 2296TIP3    H2 6774   4.978   0.606   3.375
 2297TIP3   OH2 6775   4.677   0.566   3.087
 2297TIP3    H1 6776   4.724   0.483   3.078
 2297TIP3    H2 6777   4.740   0.632   3.060
 2298TIP3   OH2 6778   4.825   0.342   3.049
 2298TIP3    H1 6779   4.846   0.280   2.979
 2298TIP3    H2 6780   4.869   0.307   3.126
 2299TIP3   OH2 6781   5.209   0.428   3.784
 2299TIP3    H1 6782   5.187   0.357   3.723
 2299TIP3    H2 6783   5.191   0.507   3.734
 2300TIP3   OH2 6784   1.236   9.078   3.045
 2300TIP3    H1 6785   1.146   9.109   3.035
 2300TIP3    H2 6786   1.275   9.089   2.958
 2301TIP3   OH2 6787   1.200   8.896   2.745
 2301TIP3    H1 6788   1.271   8.951   2.778
 2301TIP3    H2 6789   1.216   8.810   2.785
 2302TIP3   OH2 6790   5.397   0.121   3.629
 2302TIP3    H1 6791   5.310   0.162   3.629
 2302TIP3    H2 6792   5.429   0.133   3.540
 2303TIP3   OH2 6793   1.580   9.186   3.007
 2303TIP3    H1 6794   1.531   9.204   3.087
 2303TIP3    H2 6795   1.662   9.146   3.038
 2304TIP3   OH2 6796   5.001   0.024   3.921
 2304TIP3    H1 6797   5.002   0.119   3.907
 2304TIP3    H2 6798   4.925  -0.006   3.871
 2305TIP3   OH2 6799   0.799   9.176   3.391
 2305TIP3    H1 6800   0.759   9.102   3.345
 2305TIP3    H2 6801   0.876   9.138   3.434
 2306TIP3   OH2 6802   4.167   0.297   3.580
 2306TIP3    H1 6803   4.148   0.310   3.487
 2306TIP3    H2 6804   4.260   0.274   3.582
 2307TIP3   OH2 6805   0.875   9.196   3.772
 2307TIP3    H1 6806   0.920   9.162   3.694
 2307TIP3    H2 6807   0.934   9.262   3.807
 2308TIP3   OH2 6808   4.715   0.543   3.526
 2308TIP3    H1 6809   4.718   0.615   3.589
 2308TIP3    H2 6810   4.705   0.465   3.580
 2309TIP3   OH2 6811   4.353   0.436   4.090
 2309TIP3    H1 6812   4.291   0.492   4.137
 2309TIP3    H2 6813   4.298   0.380   4.036
 2310TIP3   OH2 6814   1.417   9.047   2.836
 2310TIP3    H1 6815   1.473   9.095   2.896
 2310TIP3    H2 6816   1.447   9.072   2.749
 2311TIP3   OH2 6817   4.077   0.005   4.242
 2311TIP3    H1 6818   4.086   0.096   4.269
 2311TIP3    H2 6819   3.983  -0.014   4.251
 2312TIP3   OH2 6820   4.427   0.446   3.089
 2312TIP3    H1 6821   4.512   0.489   3.096
 2312TIP3    H2 6822   4.374   0.504   3.035
 2313TIP3   OH2 6823   4.138   0.584   4.179
 2313TIP3    H1 6824   4.109   0.591   4.088
 2313TIP3    H2 6825   4.057   0.569   4.229
 2314TIP3   OH2 6826   0.660   8.985   3.246
 2314TIP3    H1 6827   0.618   9.049   3.188
 2314TIP3    H2 6828   0.612   8.904   3.228
 2315TIP3   OH2 6829   5.009   0.366   2.449
 2315TIP3    H1 6830   5.001   0.458   2.422
 2315TIP3    H2 6831   5.099   0.342   2.425
 2316TIP3   OH2 6832   3.735   0.144   4.131
 2316TIP3    H1 6833   3.664   0.131   4.068
 2316TIP3    H2 6834   3.769   0.056   4.147
 2317TIP3   OH2 6835   3.642   0.315   3.779
 2317TIP3    H1 6836   3.726   0.295   3.737
 2317TIP3    H2 6837   3.661   0.386   3.839
 2318TIP3   OH2 6838   5.439   0.791   3.834
 2318TIP3    H1 6839   5.447   0.697   3.846
 2318TIP3    H2 6840   5.360   0.815   3.882
 2319TIP3   OH2 6841   4.540   0.576   3.945
 2319TIP3    H1 6842   4.538   0.665   3.980
 2319TIP3    H2 6843   4.475   0.527   3.995
 2320TIP3   OH2 6844   4.321   0.650   2.918
 2320TIP3    H1 6845   4.283   0.630   2.833
 2320TIP3    H2 6846   4.287   0.737   2.940
 2321TIP3   OH2 6847   3.755   0.519   3.301
 2321TIP3    H1 6848   3.768   0.504   3.395
 2321TIP3    H2 6849   3.709   0.441   3.271
 2322TIP3   OH2 6850   4.521   0.613   2.563
 2322TIP3    H1 6851   4.565   0.533   2.536
 2322TIP3    H2 6852   4.558   0.633   2.649
 2323TIP3   OH2 6853   4.581   0.656   2.828
 2323TIP3    H1 6854   4.494   0.647   2.867
 2323TIP3    H2 6855   4.641   0.620   2.894
 2324TIP3   OH2 6856   2.075   9.183   4.000
 2324TIP3    H1 6857   2.040   9.264   4.037
 2324TIP3    H2 6858   2.005   9.119   4.015
 2325TIP3   OH2 6859   3.925   0.341   4.103
 2325TIP3    H1 6860   3.977   0.331   4.183
 2325TIP3    H2 6861   3.859   0.272   4.109
 2326TIP3   OH2 6862   1.842   9.079   4.096
 2326TIP3    H1 6863   1.794   8.996   4.088
 2326TIP3    H2 6864   1.801   9.136   4.031
 2327TIP3   OH2 6865   1.516   9.086   2.592
 2327TIP3    H1 6866   1.474   9.083   2.506
 2327TIP3    H2 6867   1.606   9.114   2.574
 2328TIP3   OH2 6868   0.921   8.952   3.888
 2328TIP3    H1 6869   0.884   8.957   3.976
 2328TIP3    H2 6870   0.895   9.034   3.846
 2329TIP3   OH2 6871   0.832   8.878   3.499
 2329TIP3    H1 6872   0.750   8.834   3.476
 2329TIP3    H2 6873   0.884   8.876   3.418
 2330TIP3   OH2 6874   1.444   8.930   3.150
 2330TIP3    H1 6875   1.371   8.967   3.100
 2330TIP3    H2 6876   1.450   8.839   3.120
 2331TIP3   OH2 6877   4.798   0.031   4.163
 2331TIP3    H1 6878   4.831   0.006   4.249
 2331TIP3    H2 6879   4.869   0.083   4.125
 2332TIP3   OH2 6880   1.510   9.049   3.384
 2332TIP3    H1 6881   1.470   9.131   3.353
 2332TIP3    H2 6882   1.504   8.990   3.309
 2333TIP3   OH2 6883   0.808   8.995   4.129
 2333TIP3    H1 6884   0.815   9.068   4.189
 2333TIP3    H2 6885   0.764   8.926   4.179
 2334TIP3   OH2 6886   1.516   9.148   3.796
 2334TIP3    H1 6887   1.565   9.087   3.741
 2334TIP3    H2 6888   1.496   9.098   3.875
 2335TIP3   OH2 6889   0.629   8.693   3.451
 2335TIP3    H1 6890   0.601   8.725   3.365
 2335TIP3    H2 6891   0.573   8.617   3.468
 2336TIP3   OH2 6892   0.897   8.616   3.195
 2336TIP3    H1 6893   0.993   8.616   3.196
 2336TIP3    H2 6894   0.874   8.689   3.138
 2337TIP3   OH2 6895   0.729   8.765   3.019
 2337TIP3    H1 6896   0.654   8.735   3.070
 2337TIP3    H2 6897   0.740   8.697   2.952
 2338TIP3   OH2 6898   5.151   1.126   3.924
 2338TIP3    H1 6899   5.147   1.139   3.829
 2338TIP3    H2 6900   5.230   1.172   3.951
 2339TIP3   OH2 6901   4.078   0.265   4.336
 2339TIP3    H1 6902   4.161   0.277   4.380
 2339TIP3    H2 6903   4.012   0.272   4.405
 2340TIP3   OH2 6904   1.244   8.931   3.594
 2340TIP3    H1 6905   1.182   8.859   3.583
 2340TIP3    H2 6906   1.269   8.928   3.686
 2341TIP3   OH2 6907   1.274   8.848   3.853
 2341TIP3    H1 6908   1.192   8.799   3.857
 2341TIP3    H2 6909   1.326   8.817   3.927
 2342TIP3   OH2 6910   0.992   9.195   2.977
 2342TIP3    H1 6911   0.919   9.135   2.957
 2342TIP3    H2 6912   0.963   9.244   3.054
 2343TIP3   OH2 6913   5.151   0.243   3.592
 2343TIP3    H1 6914   5.187   0.296   3.522
 2343TIP3    H2 6915   5.065   0.215   3.560
 2344TIP3   OH2 6916   4.710   0.331   3.961
 2344TIP3    H1 6917   4.662   0.251   3.981
 2344TIP3    H2 6918   4.651   0.401   3.987
 2345TIP3   OH2 6919   1.472   8.778   2.869
 2345TIP3    H1 6920   1.548   8.778   2.927
 2345TIP3    H2 6921   1.457   8.870   2.849
 2346TIP3   OH2 6922   0.650   9.247   3.613
 2346TIP3    H1 6923   0.691   9.233   3.527
 2346TIP3    H2 6924   0.721   9.233   3.675
 2347TIP3   OH2 6925   4.423   0.110   2.819
 2347TIP3    H1 6926   4.377   0.194   2.817
 2347TIP3    H2 6927   4.367   0.054   2.873
 2348TIP3   OH2 6928   0.551   9.147   4.270
 2348TIP3    H1 6929   0.555   9.111   4.358
 2348TIP3    H2 6930   0.473   9.107   4.231
 2349TIP3   OH2 6931   4.552   0.093   4.287
 2349TIP3    H1 6932   4.480   0.038   4.256
 2349TIP3    H2 6933   4.624   0.076   4.225
 2350TIP3   OH2 6934   4.818   0.601   3.865
 2350TIP3    H1 6935   4.724   0.581   3.870
 2350TIP3    H2 6936   4.841   0.626   3.954
 2351TIP3   OH2 6937   1.988   8.804   2.894
 2351TIP3    H1 6938   2.004   8.724   2.844
 2351TIP3    H2 6939   1.945   8.863   2.832
 2352TIP3   OH2 6940   5.457   0.517   3.855
 2352TIP3    H1 6941   5.364   0.497   3.853
 2352TIP3    H2 6942   5.491   0.484   3.771
 2353TIP3   OH2 6943   4.939   0.431   2.710
 2353TIP3    H1 6944   4.911   0.352   2.756
 2353TIP3    H2 6945   4.959   0.401   2.621
 2354TIP3   OH2 6946   4.902   0.113   3.531
 2354TIP3    H1 6947   4.814   0.075   3.528
 2354TIP3    H2 6948   4.958   0.041   3.558
 2355TIP3   OH2 6949   4.077   0.334   3.318
 2355TIP3    H1 6950   4.075   0.412   3.262
 2355TIP3    H2 6951   4.001   0.283   3.291
 2356TIP3   OH2 6952   0.395   8.901   2.994
 2356TIP3    H1 6953   0.433   8.987   3.014
 2356TIP3    H2 6954   0.420   8.846   3.068
 2357TIP3   OH2 6955   4.156   0.097   3.184
 2357TIP3    H1 6956   4.178   0.180   3.226
 2357TIP3    H2 6957   4.124   0.041   3.255
 2358TIP3   OH2 6958   4.347   0.688   3.759
 2358TIP3    H1 6959   4.388   0.744   3.694
 2358TIP3    H2 6960   4.419   0.642   3.801
 2359TIP3   OH2 6961   3.992   0.548   3.159
 2359TIP3    H1 6962   3.906   0.550   3.200
 2359TIP3    H2 6963   4.020   0.640   3.159
 2360TIP3   OH2 6964   4.711   0.314   3.684
 2360TIP3    H1 6965   4.715   0.318   3.779
 2360TIP3    H2 6966   4.780   0.253   3.659
 2361TIP3   OH2 6967   4.700   0.164   2.633
 2361TIP3    H1 6968   4.758   0.163   2.708
 2361TIP3    H2 6969   4.615   0.135   2.667
 2362TIP3   OH2 6970   4.974   0.806   3.765
 2362TIP3    H1 6971   4.907   0.740   3.785
 2362TIP3    H2 6972   4.936   0.857   3.694
 2363TIP3   OH2 6973   5.014   0.637   2.403
 2363TIP3    H1 6974   5.019   0.682   2.318
 2363TIP3    H2 6975   4.948   0.686   2.452
 2364TIP3   OH2 6976   4.887   0.159   2.836
 2364TIP3    H1 6977   4.869   0.084   2.893
 2364TIP3    H2 6978   4.978   0.146   2.808
 2365TIP3   OH2 6979   3.773   0.518   3.931
 2365TIP3    H1 6980   3.827   0.462   3.987
 2365TIP3    H2 6981   3.781   0.605   3.971
 2366TIP3   OH2 6982   4.052   0.144   2.614
 2366TIP3    H1 6983   4.067   0.054   2.587
 2366TIP3    H2 6984   4.042   0.139   2.709
 2367TIP3   OH2 6985   4.007   0.167   2.890
 2367TIP3    H1 6986   4.069   0.136   2.957
 2367TIP3    H2 6987   4.013   0.262   2.895
 2368TIP3   OH2 6988   0.501   9.141   3.086
 2368TIP3    H1 6989   0.432   9.182   3.139
 2368TIP3    H2 6990   0.510   9.199   3.010
 2369TIP3   OH2 6991   4.276   0.338   2.818
 2369TIP3    H1 6992   4.196   0.367   2.862
 2369TIP3    H2 6993   4.297   0.409   2.757
 2370TIP3   OH2 6994   1.171   8.595   3.232
 2370TIP3    H1 6995   1.207   8.678   3.262
 2370TIP3    H2 6996   1.220   8.529   3.280
 2371TIP3   OH2 6997   1.470   9.037   4.041
 2371TIP3    H1 6998   1.468   9.121   4.087
 2371TIP3    H2 6999   1.546   8.992   4.076
 2372TIP3   OH2 7000   4.032   0.438   2.908
 2372TIP3    H1 7001   4.010   0.507   2.846
 2372TIP3    H2 7002   4.021   0.479   2.994
 2373TIP3   OH2 7003   1.786   9.056   3.369
 2373TIP3    H1 7004   1.694   9.080   3.381
 2373TIP3    H2 7005   1.831   9.093   3.446
 2374TIP3   OH2 7006   3.753   0.063   2.858
 2374TIP3    H1 7007   3.830   0.118   2.871
 2374TIP3    H2 7008   3.781  -0.004   2.795
 2375TIP3   OH2 7009   5.004   0.787   3.340
 2375TIP3    H1 7010   4.963   0.840   3.272
 2375TIP3    H2 7011   5.098   0.800   3.328
 2376TIP3   OH2 7012   3.585   0.301   3.275
 2376TIP3    H1 7013   3.534   0.332   3.350
 2376TIP3    H2 7014   3.542   0.340   3.199
 2377TIP3   OH2 7015   3.788   0.836   4.338
 2377TIP3    H1 7016   3.868   0.843   4.388
 2377TIP3    H2 7017   3.775   0.741   4.325
 2378TIP3   OH2 7018   4.244   0.747   4.376
 2378TIP3    H1 7019   4.336   0.721   4.388
 2378TIP3    H2 7020   4.213   0.693   4.303
 2379TIP3   OH2 7021   4.216   0.342   2.509
 2379TIP3    H1 7022   4.172   0.270   2.553
 2379TIP3    H2 7023   4.289   0.301   2.463
 2380TIP3   OH2 7024   4.873   0.689   4.119
 2380TIP3    H1 7025   4.879   0.626   4.190
 2380TIP3    H2 7026   4.946   0.750   4.134
 2381TIP3   OH2 7027   4.631   0.382   2.483
 2381TIP3    H1 7028   4.671   0.311   2.532
 2381TIP3    H2 7029   4.678   0.383   2.399
 2382TIP3   OH2 7030   3.881   0.249   4.530
 2382TIP3    H1 7031   3.904   0.156   4.538
 2382TIP3    H2 7032   3.795   0.248   4.488
 2383TIP3   OH2 7033   0.627   9.116   2.719
 2383TIP3    H1 7034   0.674   9.082   2.796
 2383TIP3    H2 7035   0.690   9.109   2.648
 2384TIP3   OH2 7036   4.500   0.360   4.308
 2384TIP3    H1 7037   4.459   0.378   4.223
 2384TIP3    H2 7038   4.536   0.271   4.299
 2385TIP3   OH2 7039   4.412   0.049   2.550
 2385TIP3    H1 7040   4.409   0.066   2.644
 2385TIP3    H2 7041   4.410  -0.047   2.543
 2386TIP3   OH2 7042   4.973   0.299   3.897
 2386TIP3    H1 7043   5.017   0.375   3.859
 2386TIP3    H2 7044   4.884   0.330   3.916
 2387TIP3   OH2 7045   0.728   9.234   4.546
 2387TIP3    H1 7046   0.810   9.201   4.510
 2387TIP3    H2 7047   0.749   9.262   4.635
 2388TIP3   OH2 7048   0.793   9.013   2.914
 2388TIP3    H1 7049   0.758   8.951   2.978
 2388TIP3    H2 7050   0.834   8.958   2.847
 2389TIP3   OH2 7051   1.078   9.172   4.210
 2389TIP3    H1 7052   0.987   9.202   4.216
 2389TIP3    H2 7053   1.092   9.156   4.117
 2390TIP3   OH2 7054   0.933   8.846   2.746
 2390TIP3    H1 7055   0.934   8.788   2.671
 2390TIP3    H2 7056   1.023   8.878   2.753
 2391TIP3   OH2 7057   4.895   0.275   4.319
 2391TIP3    H1 7058   4.968   0.248   4.263
 2391TIP3    H2 7059   4.890   0.207   4.387
 2392TIP3   OH2 7060   1.752   9.112   2.452
 2392TIP3    H1 7061   1.742   9.071   2.367
 2392TIP3    H2 7062   1.713   9.199   2.441
 2393TIP3   OH2 7063   1.209   8.924   4.259
 2393TIP3    H1 7064   1.130   8.894   4.303
 2393TIP3    H2 7065   1.181   9.000   4.207
 2394TIP3   OH2 7066   4.562   0.103   3.970
 2394TIP3    H1 7067   4.589   0.015   3.946
 2394TIP3    H2 7068   4.472   0.110   3.938
 2395TIP3   OH2 7069   1.949   9.117   4.426
 2395TIP3    H1 7070   1.863   9.113   4.385
 2395TIP3    H2 7071   1.934   9.166   4.507
 2396TIP3   OH2 7072   5.098   0.242   4.130
 2396TIP3    H1 7073   5.042   0.269   4.057
 2396TIP3    H2 7074   5.184   0.227   4.090
 2397TIP3   OH2 7075   0.979   9.127   4.518
 2397TIP3    H1 7076   0.985   9.056   4.582
 2397TIP3    H2 7077   1.069   9.138   4.486
 2398TIP3   OH2 7078   1.436   9.057   4.350
 2398TIP3    H1 7079   1.460   9.004   4.426
 2398TIP3    H2 7080   1.354   9.017   4.319
 2399TIP3   OH2 7081   4.013   0.643   2.723
 2399TIP3    H1 7082   4.102   0.623   2.695
 2399TIP3    H2 7083   3.975   0.690   2.649
 2400TIP3   OH2 7084   3.486   0.029   2.920
 2400TIP3    H1 7085   3.574   0.051   2.890
 2400TIP3    H2 7086   3.478  -0.065   2.902
 2401TIP3   OH2 7087   3.382   0.608   3.358
 2401TIP3    H1 7088   3.318   0.550   3.317
 2401TIP3    H2 7089   3.428   0.552   3.421
 2402TIP3   OH2 7090   3.529   0.450   3.533
 2402TIP3    H1 7091   3.516   0.379   3.596
 2402TIP3    H2 7092   3.588   0.511   3.578
 2403TIP3   OH2 7093   5.272   0.845   3.330
 2403TIP3    H1 7094   5.294   0.874   3.418
 2403TIP3    H2 7095   5.327   0.898   3.272
 2404TIP3   OH2 7096   5.285   0.876   3.610
 2404TIP3    H1 7097   5.239   0.792   3.605
 2404TIP3    H2 7098   5.355   0.861   3.674
 2405TIP3   OH2 7099   5.327   0.590   4.171
 2405TIP3    H1 7100   5.257   0.598   4.235
 2405TIP3    H2 7101   5.377   0.671   4.180
 2406TIP3   OH2 7102   5.153   0.117   2.776
 2406TIP3    H1 7103   5.213   0.189   2.756
 2406TIP3    H2 7104   5.192   0.073   2.851
 2407TIP3   OH2 7105   2.000   9.232   2.990
 2407TIP3    H1 7106   1.939   9.183   3.045
 2407TIP3    H2 7107   2.062   9.272   3.051
 2408TIP3   OH2 7108   5.325   0.379   3.429
 2408TIP3    H1 7109   5.372   0.309   3.383
 2408TIP3    H2 7110   5.330   0.454   3.371
 2409TIP3   OH2 7111   5.139   0.637   3.619
 2409TIP3    H1 7112   5.073   0.688   3.665
 2409TIP3    H2 7113   5.091   0.596   3.547
 2410TIP3   OH2 7114   5.236   0.008   2.533
 2410TIP3    H1 7115   5.158  -0.040   2.505
 2410TIP3    H2 7116   5.212   0.044   2.619
 2411TIP3   OH2 7117   1.823   8.755   2.502
 2411TIP3    H1 7118   1.746   8.764   2.446
 2411TIP3    H2 7119   1.788   8.746   2.591
 2412TIP3   OH2 7120   1.808   9.053   3.098
 2412TIP3    H1 7121   1.784   8.964   3.073
 2412TIP3    H2 7122   1.811   9.051   3.194
 2413TIP3   OH2 7123   0.408   9.111   3.902
 2413TIP3    H1 7124   0.405   9.100   3.807
 2413TIP3    H2 7125   0.499   9.130   3.921
 2414TIP3   OH2 7126   5.332   0.242   3.980
 2414TIP3    H1 7127   5.417   0.211   3.950
 2414TIP3    H2 7128   5.304   0.305   3.913
 2415TIP3   OH2 7129   5.573   0.089   4.006
 2415TIP3    H1 7130   5.503   0.023   4.012
 2415TIP3    H2 7131   5.607   0.096   4.094
 2416TIP3   OH2 7132   1.702   8.772   3.019
 2416TIP3    H1 7133   1.768   8.750   3.084
 2416TIP3    H2 7134   1.740   8.743   2.936
 2417TIP3   OH2 7135   2.033   8.937   3.554
 2417TIP3    H1 7136   2.061   9.017   3.508
 2417TIP3    H2 7137   2.033   8.962   3.646
 2418TIP3   OH2 7138   2.164   9.111   3.745
 2418TIP3    H1 7139   2.137   9.133   3.835
 2418TIP3    H2 7140   2.154   9.193   3.697
 2419TIP3   OH2 7141   0.375   8.832   3.908
 2419TIP3    H1 7142   0.426   8.815   3.829
 2419TIP3    H2 7143   0.378   8.927   3.918
 2420TIP3   OH2 7144   4.838   0.755   2.983
 2420TIP3    H1 7145   4.886   0.738   2.902
 2420TIP3    H2 7146   4.882   0.830   3.021
 2421TIP3   OH2 7147   3.916   0.561   4.348
 2421TIP3    H1 7148   3.823   0.537   4.343
 2421TIP3    H2 7149   3.937   0.554   4.441
 2422TIP3   OH2 7150   4.118   0.613   3.893
 2422TIP3    H1 7151   4.064   0.689   3.870
 2422TIP3    H2 7152   4.202   0.630   3.851
 2423TIP3   OH2 7153   4.531   0.837   4.042
 2423TIP3    H1 7154   4.570   0.826   4.129
 2423TIP3    H2 7155   4.595   0.888   3.993
 2424TIP3   OH2 7156   4.728   0.984   3.916
 2424TIP3    H1 7157   4.789   0.925   3.873
 2424TIP3    H2 7158   4.782   1.043   3.969
 2425TIP3   OH2 7159   3.789   0.820   3.959
 2425TIP3    H1 7160   3.699   0.840   3.933
 2425TIP3    H2 7161   3.811   0.887   4.023
 2426TIP3   OH2 7162   3.972   0.855   3.759
 2426TIP3    H1 7163   3.913   0.826   3.829
 2426TIP3    H2 7164   3.945   0.946   3.741
 2427TIP3   OH2 7165   4.455   0.872   3.568
 2427TIP3    H1 7166   4.469   0.902   3.479
 2427TIP3    H2 7167   4.467   0.950   3.622
 2428TIP3   OH2 7168   4.709   0.793   3.642
 2428TIP3    H1 7169   4.619   0.814   3.618
 2428TIP3    H2 7170   4.762   0.857   3.595
 2429TIP3   OH2 7171   4.904   0.957   3.534
 2429TIP3    H1 7172   4.905   1.044   3.494
 2429TIP3    H2 7173   4.937   0.898   3.466
 2430TIP3   OH2 7174   3.762   0.580   3.648
 2430TIP3    H1 7175   3.737   0.588   3.740
 2430TIP3    H2 7176   3.811   0.498   3.644
 2431TIP3   OH2 7177   3.478   0.417   3.056
 2431TIP3    H1 7178   3.401   0.373   3.021
 2431TIP3    H2 7179   3.478   0.503   3.014
 2432TIP3   OH2 7180   4.267   0.569   2.650
 2432TIP3    H1 7181   4.349   0.602   2.614
 2432TIP3    H2 7182   4.240   0.499   2.591
 2433TIP3   OH2 7183   4.974   0.701   2.748
 2433TIP3    H1 7184   4.967   0.606   2.739
 2433TIP3    H2 7185   4.932   0.736   2.670
 2434TIP3   OH2 7186   3.593   0.386   2.703
 2434TIP3    H1 7187   3.602   0.381   2.798
 2434TIP3    H2 7188   3.672   0.344   2.669
 2435TIP3   OH2 7189   5.190   0.853   3.933
 2435TIP3    H1 7190   5.117   0.824   3.878
 2435TIP3    H2 7191   5.178   0.948   3.941
 2436TIP3   OH2 7192   6.456   0.256   2.690
 2436TIP3    H1 7193   6.431   0.347   2.677
 2436TIP3    H2 7194   6.385   0.205   2.651
 2437TIP3   OH2 7195   6.410   0.240   3.028
 2437TIP3    H1 7196   6.462   0.236   3.108
 2437TIP3    H2 7197   6.363   0.156   3.027
 2438TIP3   OH2 7198   5.738   0.162   3.436
 2438TIP3    H1 7199   5.778   0.110   3.506
 2438TIP3    H2 7200   5.812   0.188   3.380
 2439TIP3   OH2 7201   6.764   0.530   2.757
 2439TIP3    H1 7202   6.724   0.476   2.825
 2439TIP3    H2 7203   6.770   0.617   2.796
 2440TIP3   OH2 7204   5.745   0.529   3.133
 2440TIP3    H1 7205   5.724   0.436   3.132
 2440TIP3    H2 7206   5.840   0.533   3.121
 2441TIP3   OH2 7207   2.165   9.040   2.885
 2441TIP3    H1 7208   2.121   9.120   2.913
 2441TIP3    H2 7209   2.095   8.975   2.878
 2442TIP3   OH2 7210   5.504   0.080   3.113
 2442TIP3    H1 7211   5.553   0.000   3.133
 2442TIP3    H2 7212   5.571   0.144   3.091
 2443TIP3   OH2 7213   6.387   0.970   2.781
 2443TIP3    H1 7214   6.419   0.908   2.716
 2443TIP3    H2 7215   6.391   0.921   2.864
 2444TIP3   OH2 7216   6.260   0.469   3.093
 2444TIP3    H1 7217   6.296   0.391   3.051
 2444TIP3    H2 7218   6.337   0.518   3.123
 2445TIP3   OH2 7219   3.453   9.204   3.175
 2445TIP3    H1 7220   3.439   9.122   3.126
 2445TIP3    H2 7221   3.427   9.273   3.115
 2446TIP3   OH2 7222   2.349   9.087   3.205
 2446TIP3    H1 7223   2.441   9.067   3.223
 2446TIP3    H2 7224   2.318   9.013   3.151
 2447TIP3   OH2 7225   6.058   0.089   3.043
 2447TIP3    H1 7226   6.147   0.056   3.032
 2447TIP3    H2 7227   6.002   0.012   3.033
 2448TIP3   OH2 7228   7.406   0.193   3.277
 2448TIP3    H1 7229   7.315   0.169   3.259
 2448TIP3    H2 7230   7.458   0.123   3.240
 2449TIP3   OH2 7231   6.316   0.458   2.574
 2449TIP3    H1 7232   6.306   0.447   2.479
 2449TIP3    H2 7233   6.280   0.545   2.591
 2450TIP3   OH2 7234   6.121   0.403   3.323
 2450TIP3    H1 7235   6.060   0.473   3.349
 2450TIP3    H2 7236   6.162   0.436   3.243
 2451TIP3   OH2 7237   2.598   8.989   3.240
 2451TIP3    H1 7238   2.630   9.009   3.328
 2451TIP3    H2 7239   2.674   9.005   3.183
 2452TIP3   OH2 7240   5.946   0.591   3.414
 2452TIP3    H1 7241   5.933   0.680   3.384
 2452TIP3    H2 7242   5.868   0.572   3.467
 2453TIP3   OH2 7243   5.335   0.300   2.676
 2453TIP3    H1 7244   5.297   0.316   2.590
 2453TIP3    H2 7245   5.355   0.387   2.710
 2454TIP3   OH2 7246   6.773   0.778   2.894
 2454TIP3    H1 7247   6.688   0.772   2.937
 2454TIP3    H2 7248   6.771   0.861   2.847
 2455TIP3   OH2 7249   6.483   0.819   2.572
 2455TIP3    H1 7250   6.526   0.734   2.560
 2455TIP3    H2 7251   6.551   0.883   2.551
 2456TIP3   OH2 7252   6.624   0.596   2.527
 2456TIP3    H1 7253   6.633   0.533   2.456
 2456TIP3    H2 7254   6.680   0.563   2.597
 2457TIP3   OH2 7255   7.006   0.692   3.243
 2457TIP3    H1 7256   6.985   0.621   3.183
 2457TIP3    H2 7257   6.992   0.772   3.193
 2458TIP3   OH2 7258   6.299   0.117   2.496
 2458TIP3    H1 7259   6.207   0.143   2.498
 2458TIP3    H2 7260   6.334   0.159   2.418
 2459TIP3   OH2 7261   2.997   9.163   2.191
 2459TIP3    H1 7262   3.069   9.202   2.239
 2459TIP3    H2 7263   3.031   9.079   2.161
 2460TIP3   OH2 7264   7.169   0.363   3.046
 2460TIP3    H1 7265   7.086   0.410   3.055
 2460TIP3    H2 7266   7.212   0.404   2.972
 2461TIP3   OH2 7267   6.639   0.178   2.497
 2461TIP3    H1 7268   6.581   0.210   2.565
 2461TIP3    H2 7269   6.726   0.179   2.537
 2462TIP3   OH2 7270   6.806   0.373   3.267
 2462TIP3    H1 7271   6.860   0.412   3.199
 2462TIP3    H2 7272   6.792   0.444   3.330
 2463TIP3   OH2 7273   5.857   0.186   2.874
 2463TIP3    H1 7274   5.824   0.114   2.820
 2463TIP3    H2 7275   5.932   0.150   2.920
 2464TIP3   OH2 7276   6.005   0.568   3.035
 2464TIP3    H1 7277   5.984   0.560   2.942
 2464TIP3    H2 7278   6.094   0.536   3.043
 2465TIP3   OH2 7279   5.955   0.195   3.267
 2465TIP3    H1 7280   5.996   0.165   3.186
 2465TIP3    H2 7281   6.011   0.267   3.297
 2466TIP3   OH2 7282   6.540   0.781   3.032
 2466TIP3    H1 7283   6.522   0.861   3.081
 2466TIP3    H2 7284   6.519   0.710   3.093
 2467TIP3   OH2 7285   6.148   0.687   3.580
 2467TIP3    H1 7286   6.086   0.745   3.625
 2467TIP3    H2 7287   6.093   0.635   3.521
 2468TIP3   OH2 7288   6.510   0.046   2.288
 2468TIP3    H1 7289   6.562   0.086   2.357
 2468TIP3    H2 7290   6.484   0.119   2.231
 2469TIP3   OH2 7291   5.899   0.262   3.724
 2469TIP3    H1 7292   5.910   0.354   3.749
 2469TIP3    H2 7293   5.806   0.244   3.738
 2470TIP3   OH2 7294   6.222   0.717   2.578
 2470TIP3    H1 7295   6.308   0.759   2.580
 2470TIP3    H2 7296   6.169   0.774   2.522
 2471TIP3   OH2 7297   5.938   0.843   3.668
 2471TIP3    H1 7298   5.913   0.854   3.576
 2471TIP3    H2 7299   5.855   0.828   3.713
 2472TIP3   OH2 7300   2.480   9.246   2.688
 2472TIP3    H1 7301   2.417   9.309   2.655
 2472TIP3    H2 7302   2.433   9.162   2.688
 2473TIP3   OH2 7303   6.794   0.635   1.902
 2473TIP3    H1 7304   6.810   0.729   1.899
 2473TIP3    H2 7305   6.742   0.616   1.825
 2474TIP3   OH2 7306   5.535   0.409   3.618
 2474TIP3    H1 7307   5.465   0.394   3.555
 2474TIP3    H2 7308   5.573   0.322   3.632
 2475TIP3   OH2 7309   5.383   0.596   3.270
 2475TIP3    H1 7310   5.476   0.617   3.281
 2475TIP3    H2 7311   5.337   0.676   3.297
 2476TIP3   OH2 7312   7.233   1.051   3.321
 2476TIP3    H1 7313   7.238   0.956   3.332
 2476TIP3    H2 7314   7.153   1.076   3.367
 2477TIP3   OH2 7315   6.334   0.839   3.439
 2477TIP3    H1 7316   6.325   0.927   3.475
 2477TIP3    H2 7317   6.273   0.786   3.491
 2478TIP3   OH2 7318   6.112   0.913   2.396
 2478TIP3    H1 7319   6.090   0.902   2.303
 2478TIP3    H2 7320   6.071   0.996   2.420
 2479TIP3   OH2 7321   5.553   0.780   2.774
 2479TIP3    H1 7322   5.599   0.771   2.858
 2479TIP3    H2 7323   5.504   0.699   2.764
 2480TIP3   OH2 7324   6.379   0.939   2.342
 2480TIP3    H1 7325   6.287   0.920   2.356
 2480TIP3    H2 7326   6.425   0.884   2.405
 2481TIP3   OH2 7327   3.817   9.136   3.734
 2481TIP3    H1 7328   3.749   9.203   3.738
 2481TIP3    H2 7329   3.899   9.185   3.719
 2482TIP3   OH2 7330   5.730   0.601   3.586
 2482TIP3    H1 7331   5.782   0.591   3.666
 2482TIP3    H2 7332   5.660   0.536   3.595
 2483TIP3   OH2 7333   3.576   9.139   3.527
 2483TIP3    H1 7334   3.611   9.060   3.567
 2483TIP3    H2 7335   3.624   9.210   3.569
 2484TIP3   OH2 7336   2.748   9.191   3.389
 2484TIP3    H1 7337   2.695   9.195   3.469
 2484TIP3    H2 7338   2.717   9.265   3.336
 2485TIP3   OH2 7339   2.607   9.142   2.984
 2485TIP3    H1 7340   2.536   9.078   2.980
 2485TIP3    H2 7341   2.667   9.115   2.913
 2486TIP3   OH2 7342   3.205   9.196   2.628
 2486TIP3    H1 7343   3.144   9.253   2.581
 2486TIP3    H2 7344   3.259   9.157   2.559
 2487TIP3   OH2 7345   6.586   0.270   3.647
 2487TIP3    H1 7346   6.541   0.227   3.719
 2487TIP3    H2 7347   6.602   0.359   3.678
 2488TIP3   OH2 7348   6.558   0.049   2.874
 2488TIP3    H1 7349   6.510   0.131   2.887
 2488TIP3    H2 7350   6.530   0.018   2.788
 2489TIP3   OH2 7351   5.878   0.005   3.618
 2489TIP3    H1 7352   5.885   0.082   3.675
 2489TIP3    H2 7353   5.825  -0.057   3.667
 2490TIP3   OH2 7354   6.583   0.222   3.233
 2490TIP3    H1 7355   6.660   0.278   3.248
 2490TIP3    H2 7356   6.570   0.178   3.317
 2491TIP3   OH2 7357   2.415   8.944   2.955
 2491TIP3    H1 7358   2.344   9.001   2.927
 2491TIP3    H2 7359   2.376   8.857   2.963
 2492TIP3   OH2 7360   2.686   8.846   2.674
 2492TIP3    H1 7361   2.780   8.850   2.663
 2492TIP3    H2 7362   2.651   8.915   2.618
 2493TIP3   OH2 7363   2.549   9.005   2.497
 2493TIP3    H1 7364   2.460   9.011   2.531
 2493TIP3    H2 7365   2.543   8.943   2.425
 2494TIP3   OH2 7366   6.947   1.383   3.410
 2494TIP3    H1 7367   6.943   1.400   3.316
 2494TIP3    H2 7368   7.027   1.427   3.440
 2495TIP3   OH2 7369   5.885   0.525   3.817
 2495TIP3    H1 7370   5.966   0.537   3.866
 2495TIP3    H2 7371   5.816   0.529   3.884
 2496TIP3   OH2 7372   3.042   9.217   3.032
 2496TIP3    H1 7373   3.055   9.149   2.966
 2496TIP3    H2 7374   3.054   9.171   3.116
 2497TIP3   OH2 7375   3.099   9.113   3.280
 2497TIP3    H1 7376   3.085   9.191   3.332
 2497TIP3    H2 7377   3.037   9.048   3.315
 2498TIP3   OH2 7378   6.051   0.225   2.459
 2498TIP3    H1 7379   5.975   0.172   2.437
 2498TIP3    H2 7380   6.026   0.269   2.540
 2499TIP3   OH2 7381   6.928   0.506   3.051
 2499TIP3    H1 7382   6.972   0.559   2.985
 2499TIP3    H2 7383   6.846   0.479   3.010
 2500TIP3   OH2 7384   6.475   0.557   3.463
 2500TIP3    H1 7385   6.440   0.473   3.493
 2500TIP3    H2 7386   6.444   0.620   3.528
 2501TIP3   OH2 7387   3.305   9.047   2.410
 2501TIP3    H1 7388   3.386   9.013   2.373
 2501TIP3    H2 7389   3.286   9.125   2.358
 2502TIP3   OH2 7390   5.726   0.248   3.107
 2502TIP3    H1 7391   5.764   0.236   3.020
 2502TIP3    H2 7392   5.797   0.225   3.167
 2503TIP3   OH2 7393   6.219   0.385   2.315
 2503TIP3    H1 7394   6.177   0.471   2.307
 2503TIP3    H2 7395   6.158   0.333   2.368
 2504TIP3   OH2 7396   5.640   0.175   3.755
 2504TIP3    H1 7397   5.639   0.154   3.848
 2504TIP3    H2 7398   5.561   0.135   3.719
 2505TIP3   OH2 7399   6.318   0.335   3.764
 2505TIP3    H1 7400   6.268   0.255   3.779
 2505TIP3    H2 7401   6.338   0.334   3.670
 2506TIP3   OH2 7402   6.607   0.845   3.367
 2506TIP3    H1 7403   6.513   0.829   3.372
 2506TIP3    H2 7404   6.630   0.883   3.452
 2507TIP3   OH2 7405   7.249   0.777   3.344
 2507TIP3    H1 7406   7.157   0.752   3.347
 2507TIP3    H2 7407   7.280   0.743   3.259
 2508TIP3   OH2 7408   6.758   0.694   2.181
 2508TIP3    H1 7409   6.716   0.624   2.232
 2508TIP3    H2 7410   6.766   0.658   2.093
 2509TIP3   OH2 7411   6.690   0.371   2.975
 2509TIP3    H1 7412   6.597   0.346   2.975
 2509TIP3    H2 7413   6.736   0.294   3.006
 2510TIP3   OH2 7414   5.878   0.585   2.788
 2510TIP3    H1 7415   5.876   0.660   2.728
 2510TIP3    H2 7416   5.786   0.568   2.809
 2511TIP3   OH2 7417   2.195   9.195   2.403
 2511TIP3    H1 7418   2.251   9.246   2.462
 2511TIP3    H2 7419   2.107   9.203   2.440
 2512TIP3   OH2 7420   5.957   0.348   2.676
 2512TIP3    H1 7421   5.951   0.438   2.708
 2512TIP3    H2 7422   5.921   0.295   2.747
 2513TIP3   OH2 7423   6.155   0.896   3.234
 2513TIP3    H1 7424   6.190   0.969   3.184
 2513TIP3    H2 7425   6.228   0.866   3.288
 2514TIP3   OH2 7426   5.788   0.795   2.630
 2514TIP3    H1 7427   5.700   0.803   2.666
 2514TIP3    H2 7428   5.825   0.883   2.635
 2515TIP3   OH2 7429   6.504   0.559   3.194
 2515TIP3    H1 7430   6.494   0.565   3.289
 2515TIP3    H2 7431   6.583   0.506   3.183
 2516TIP3   OH2 7432   6.435   0.276   2.173
 2516TIP3    H1 7433   6.506   0.329   2.138
 2516TIP3    H2 7434   6.378   0.339   2.218
 2517TIP3   OH2 7435   6.758   1.055   3.252
 2517TIP3    H1 7436   6.690   0.991   3.271
 2517TIP3    H2 7437   6.723   1.107   3.179
 2518TIP3   OH2 7438   6.814   0.911   1.875
 2518TIP3    H1 7439   6.818   0.974   1.803
 2518TIP3    H2 7440   6.743   0.944   1.931
 2519TIP3   OH2 7441   6.661   0.409   2.332
 2519TIP3    H1 7442   6.646   0.325   2.374
 2519TIP3    H2 7443   6.749   0.401   2.295
 2520TIP3   OH2 7444   5.586   0.796   3.402
 2520TIP3    H1 7445   5.638   0.738   3.458
 2520TIP3    H2 7446   5.602   0.884   3.438
 2521TIP3   OH2 7447   5.862   0.416   2.098
 2521TIP3    H1 7448   5.942   0.368   2.078
 2521TIP3    H2 7449   5.847   0.401   2.191
 2522TIP3   OH2 7450   5.810   0.413   2.369
 2522TIP3    H1 7451   5.872   0.389   2.438
 2522TIP3    H2 7452   5.808   0.509   2.372
 2523TIP3   OH2 7453   5.550   0.154   2.573
 2523TIP3    H1 7454   5.480   0.193   2.625
 2523TIP3    H2 7455   5.561   0.214   2.499
 2524TIP3   OH2 7456   6.077   0.613   2.296
 2524TIP3    H1 7457   5.993   0.638   2.334
 2524TIP3    H2 7458   6.103   0.689   2.244
 2525TIP3   OH2 7459   2.964   8.828   2.680
 2525TIP3    H1 7460   2.987   8.916   2.710
 2525TIP3    H2 7461   3.007   8.770   2.743
 2526TIP3   OH2 7462   6.609   0.075   3.466
 2526TIP3    H1 7463   6.618   0.151   3.523
 2526TIP3    H2 7464   6.542   0.021   3.508
 2527TIP3   OH2 7465   5.822   0.685   2.381
 2527TIP3    H1 7466   5.806   0.755   2.318
 2527TIP3    H2 7467   5.809   0.725   2.467
 2528TIP3   OH2 7468   6.819   0.081   2.806
 2528TIP3    H1 7469   6.724   0.074   2.817
 2528TIP3    H2 7470   6.850   0.119   2.888
 2529TIP3   OH2 7471   5.538   0.310   2.343
 2529TIP3    H1 7472   5.596   0.382   2.367
 2529TIP3    H2 7473   5.558   0.293   2.251
 2530TIP3   OH2 7474   2.130   8.899   2.466
 2530TIP3    H1 7475   2.178   8.964   2.518
 2530TIP3    H2 7476   2.065   8.951   2.418
 2531TIP3   OH2 7477   6.788   1.046   2.819
 2531TIP3    H1 7478   6.743   1.100   2.754
 2531TIP3    H2 7479   6.881   1.065   2.805
 2532TIP3   OH2 7480   5.375   0.564   2.751
 2532TIP3    H1 7481   5.332   0.602   2.827
 2532TIP3    H2 7482   5.332   0.604   2.675
 2533TIP3   OH2 7483   5.584   1.096   3.824
 2533TIP3    H1 7484   5.666   1.101   3.873
 2533TIP3    H2 7485   5.571   1.002   3.809
 2534TIP3   OH2 7486   6.046   1.001   3.865
 2534TIP3    H1 7487   6.138   0.974   3.874
 2534TIP3    H2 7488   6.013   0.949   3.792
 2535TIP3   OH2 7489   6.012   0.627   1.994
 2535TIP3    H1 7490   5.964   0.557   2.038
 2535TIP3    H2 7491   6.086   0.583   1.952
 2536TIP3   OH2 7492   6.667   0.950   3.613
 2536TIP3    H1 7493   6.678   0.881   3.679
 2536TIP3    H2 7494   6.741   1.009   3.627
 2537TIP3   OH2 7495   6.461   0.613   1.913
 2537TIP3    H1 7496   6.423   0.698   1.937
 2537TIP3    H2 7497   6.498   0.627   1.826
 2538TIP3   OH2 7498   5.683   0.516   4.010
 2538TIP3    H1 7499   5.712   0.425   4.017
 2538TIP3    H2 7500   5.597   0.511   3.968
 2539TIP3   OH2 7501   5.676   0.043   2.203
 2539TIP3    H1 7502   5.729   0.069   2.279
 2539TIP3    H2 7503   5.733   0.058   2.128
 2540TIP3   OH2 7504   6.300   0.607   3.790
 2540TIP3    H1 7505   6.251   0.627   3.710
 2540TIP3    H2 7506   6.322   0.514   3.783
 2541TIP3   OH2 7507   6.118   0.323   2.064
 2541TIP3    H1 7508   6.163   0.333   2.148
 2541TIP3    H2 7509   6.127   0.230   2.043
 2542TIP3   OH2 7510   6.780   0.620   3.383
 2542TIP3    H1 7511   6.856   0.665   3.347
 2542TIP3    H2 7512   6.709   0.685   3.379
 2543TIP3   OH2 7513   5.816   0.278   4.021
 2543TIP3    H1 7514   5.895   0.233   3.990
 2543TIP3    H2 7515   5.833   0.296   4.113
 2544TIP3   OH2 7516   5.845   0.048   2.418
 2544TIP3    H1 7517   5.828   0.016   2.507
 2544TIP3    H2 7518   5.893  -0.023   2.376
 2545TIP3   OH2 7519   6.139   0.122   3.723
 2545TIP3    H1 7520   6.061   0.178   3.727
 2545TIP3    H2 7521   6.168   0.128   3.632
 2546TIP3   OH2 7522   2.734   9.105   2.274
 2546TIP3    H1 7523   2.719   9.027   2.220
 2546TIP3    H2 7524   2.817   9.140   2.243
 2547TIP3   OH2 7525   6.656   0.509   3.770
 2547TIP3    H1 7526   6.739   0.503   3.723
 2547TIP3    H2 7527   6.673   0.465   3.854
 2548TIP3   OH2 7528   2.879   9.070   3.623
 2548TIP3    H1 7529   2.947   9.065   3.690
 2548TIP3    H2 7530   2.822   9.141   3.653
 2549TIP3   OH2 7531   6.320   0.321   3.491
 2549TIP3    H1 7532   6.320   0.227   3.473
 2549TIP3    H2 7533   6.253   0.357   3.432
 2550TIP3   OH2 7534   6.932   0.067   4.061
 2550TIP3    H1 7535   6.877   0.095   3.989
 2550TIP3    H2 7536   6.968   0.148   4.097
 2551TIP3   OH2 7537   6.884   0.513   3.613
 2551TIP3    H1 7538   6.840   0.551   3.537
 2551TIP3    H2 7539   6.959   0.466   3.576
 2552TIP3   OH2 7540   6.056   0.139   4.026
 2552TIP3    H1 7541   6.027   0.058   4.069
 2552TIP3    H2 7542   6.151   0.134   4.029
 2553TIP3   OH2 7543   6.478   0.082   3.821
 2553TIP3    H1 7544   6.480   0.055   3.913
 2553TIP3    H2 7545   6.530   0.016   3.775
 2554TIP3   OH2 7546   5.828   0.892   2.199
 2554TIP3    H1 7547   5.918   0.885   2.167
 2554TIP3    H2 7548   5.780   0.937   2.129
 2555TIP3   OH2 7549   5.267   0.280   2.400
 2555TIP3    H1 7550   5.359   0.293   2.376
 2555TIP3    H2 7551   5.256   0.185   2.402
 2556TIP3   OH2 7552   5.177   0.863   2.837
 2556TIP3    H1 7553   5.114   0.807   2.791
 2556TIP3    H2 7554   5.224   0.804   2.895
 2557TIP3   OH2 7555   5.324   0.699   3.003
 2557TIP3    H1 7556   5.318   0.629   3.069
 2557TIP3    H2 7557   5.378   0.766   3.045
 2558TIP3   OH2 7558   7.056   1.112   2.817
 2558TIP3    H1 7559   7.074   1.138   2.908
 2558TIP3    H2 7560   7.105   1.175   2.764
 2559TIP3   OH2 7561   7.076   1.140   3.096
 2559TIP3    H1 7562   7.029   1.057   3.091
 2559TIP3    H2 7563   7.146   1.124   3.160
 2560TIP3   OH2 7564   7.119   0.840   3.655
 2560TIP3    H1 7565   7.048   0.845   3.719
 2560TIP3    H2 7566   7.165   0.923   3.663
 2561TIP3   OH2 7567   6.922   0.383   2.264
 2561TIP3    H1 7568   6.988   0.448   2.240
 2561TIP3    H2 7569   6.972   0.310   2.300
 2562TIP3   OH2 7570   7.071   0.190   2.388
 2562TIP3    H1 7571   7.046   0.109   2.433
 2562TIP3    H2 7572   7.143   0.225   2.439
 2563TIP3   OH2 7573   7.129   0.625   2.903
 2563TIP3    H1 7574   7.186   0.571   2.848
 2563TIP3    H2 7575   7.126   0.710   2.859
 2564TIP3   OH2 7576   6.930   0.905   3.091
 2564TIP3    H1 7577   6.862   0.949   3.143
 2564TIP3    H2 7578   6.883   0.864   3.019
 2565TIP3   OH2 7579   7.057   0.068   2.672
 2565TIP3    H1 7580   7.044  -0.017   2.629
 2565TIP3    H2 7581   6.974   0.086   2.715
 2566TIP3   OH2 7582   5.479   0.161   3.369
 2566TIP3    H1 7583   5.477   0.145   3.275
 2566TIP3    H2 7584   5.572   0.168   3.390
 2567TIP3   OH2 7585   7.148   0.470   3.498
 2567TIP3    H1 7586   7.215   0.402   3.510
 2567TIP3    H2 7587   7.179   0.521   3.423
 2568TIP3   OH2 7588   7.388   0.325   3.554
 2568TIP3    H1 7589   7.466   0.373   3.526
 2568TIP3    H2 7590   7.373   0.353   3.645
 2569TIP3   OH2 7591   3.831   9.181   3.009
 2569TIP3    H1 7592   3.885   9.225   2.943
 2569TIP3    H2 7593   3.865   9.213   3.093
 2570TIP3   OH2 7594   7.156   0.138   3.193
 2570TIP3    H1 7595   7.081   0.136   3.252
 2570TIP3    H2 7596   7.153   0.224   3.152
 2571TIP3   OH2 7597   2.151   9.130   3.392
 2571TIP3    H1 7598   2.228   9.116   3.337
 2571TIP3    H2 7599   2.142   9.225   3.398
 2572TIP3   OH2 7600   6.663   1.003   2.485
 2572TIP3    H1 7601   6.697   0.986   2.397
 2572TIP3    H2 7602   6.687   1.093   2.504
 2573TIP3   OH2 7603   5.714   0.820   3.833
 2573TIP3    H1 7604   5.621   0.798   3.828
 2573TIP3    H2 7605   5.736   0.809   3.926
 2574TIP3   OH2 7606   5.928   0.864   3.386
 2574TIP3    H1 7607   5.879   0.940   3.355
 2574TIP3    H2 7608   6.013   0.871   3.341
 2575TIP3   OH2 7609   6.323   1.100   3.531
 2575TIP3    H1 7610   6.363   1.091   3.617
 2575TIP3    H2 7611   6.386   1.149   3.480
 2576TIP3   OH2 7612   6.518   1.243   3.399
 2576TIP3    H1 7613   6.580   1.188   3.352
 2576TIP3    H2 7614   6.572   1.301   3.452
 2577TIP3   OH2 7615   5.589   1.091   3.440
 2577TIP3    H1 7616   5.499   1.110   3.416
 2577TIP3    H2 7617   5.612   1.159   3.504
 2578TIP3   OH2 7618   5.818   1.094   3.285
 2578TIP3    H1 7619   5.734   1.095   3.331
 2578TIP3    H2 7620   5.796   1.115   3.195
 2579TIP3   OH2 7621   6.230   1.108   3.076
 2579TIP3    H1 7622   6.158   1.119   3.013
 2579TIP3    H2 7623   6.241   1.195   3.115
 2580TIP3   OH2 7624   6.493   1.038   3.120
 2580TIP3    H1 7625   6.401   1.060   3.102
 2580TIP3    H2 7626   6.543   1.105   3.073
 2581TIP3   OH2 7627   6.694   1.207   3.023
 2581TIP3    H1 7628   6.696   1.295   2.985
 2581TIP3    H2 7629   6.723   1.150   2.952
 2582TIP3   OH2 7630   5.498   0.876   3.151
 2582TIP3    H1 7631   5.527   0.854   3.240
 2582TIP3    H2 7632   5.569   0.845   3.094
 2583TIP3   OH2 7633   5.699   0.766   3.008
 2583TIP3    H1 7634   5.710   0.682   3.054
 2583TIP3    H2 7635   5.786   0.806   3.010
 2584TIP3   OH2 7636   5.967   0.847   3.036
 2584TIP3    H1 7637   5.983   0.753   3.022
 2584TIP3    H2 7638   6.024   0.870   3.109
 2585TIP3   OH2 7639   5.260   0.676   2.529
 2585TIP3    H1 7640   5.178   0.648   2.489
 2585TIP3    H2 7641   5.268   0.769   2.505
 2586TIP3   OH2 7642   6.092   0.853   2.120
 2586TIP3    H1 7643   6.158   0.895   2.064
 2586TIP3    H2 7644   6.061   0.779   2.068
 2587TIP3   OH2 7645   6.771   0.964   2.233
 2587TIP3    H1 7646   6.769   0.869   2.220
 2587TIP3    H2 7647   6.723   0.999   2.158
 2588TIP3   OH2 7648   5.429   0.715   2.211
 2588TIP3    H1 7649   5.396   0.698   2.299
 2588TIP3    H2 7650   5.492   0.645   2.195
 2589TIP3   OH2 7651   6.980   1.109   3.415
 2589TIP3    H1 7652   6.906   1.080   3.363
 2589TIP3    H2 7653   6.968   1.204   3.423
 2590TIP3   OH2 7654   8.212   0.464   2.553
 2590TIP3    H1 7655   8.266   0.450   2.630
 2590TIP3    H2 7656   8.267   0.516   2.494
 2591TIP3   OH2 7657   7.556   0.419   2.945
 2591TIP3    H1 7658   7.584   0.355   3.011
 2591TIP3    H2 7659   7.597   0.501   2.971
 2592TIP3   OH2 7660   7.548   0.770   2.612
 2592TIP3    H1 7661   7.532   0.676   2.622
 2592TIP3    H2 7662   7.643   0.776   2.597
 2593TIP3   OH2 7663   7.274   0.289   2.560
 2593TIP3    H1 7664   7.362   0.251   2.551
 2593TIP3    H2 7665   7.284   0.380   2.532
 2594TIP3   OH2 7666   8.148   1.251   2.255
 2594TIP3    H1 7667   8.202   1.181   2.217
 2594TIP3    H2 7668   8.138   1.226   2.347
 2595TIP3   OH2 7669   8.054   0.699   2.596
 2595TIP3    H1 7670   8.085   0.612   2.571
 2595TIP3    H2 7671   8.133   0.748   2.618
 2596TIP3   OH2 7672   7.392   0.065   2.659
 2596TIP3    H1 7673   7.482   0.049   2.688
 2596TIP3    H2 7674   7.378   0.001   2.589
 2597TIP3   OH2 7675   7.897   0.651   2.817
 2597TIP3    H1 7676   7.836   0.719   2.846
 2597TIP3    H2 7677   7.939   0.687   2.739
 2598TIP3   OH2 7678   4.370   9.203   2.701
 2598TIP3    H1 7679   4.375   9.166   2.789
 2598TIP3    H2 7680   4.458   9.192   2.665
 2599TIP3   OH2 7681   7.733   0.847   2.907
 2599TIP3    H1 7682   7.724   0.937   2.876
 2599TIP3    H2 7683   7.655   0.832   2.960
 2600TIP3   OH2 7684   7.120   0.560   2.184
 2600TIP3    H1 7685   7.086   0.584   2.098
 2600TIP3    H2 7686   7.149   0.643   2.222
 2601TIP3   OH2 7687   8.576   1.060   2.426
 2601TIP3    H1 7688   8.485   1.040   2.445
 2601TIP3    H2 7689   8.574   1.144   2.381
 2602TIP3   OH2 7690   8.294   1.065   2.120
 2602TIP3    H1 7691   8.354   1.002   2.160
 2602TIP3    H2 7692   8.348   1.114   2.059
 2603TIP3   OH2 7693   8.603   0.505   2.918
 2603TIP3    H1 7694   8.630   0.583   2.965
 2603TIP3    H2 7695   8.531   0.534   2.862
 2604TIP3   OH2 7696   7.650   0.402   2.384
 2604TIP3    H1 7697   7.606   0.392   2.300
 2604TIP3    H2 7698   7.720   0.337   2.383
 2605TIP3   OH2 7699   7.807   0.817   2.515
 2605TIP3    H1 7700   7.788   0.809   2.422
 2605TIP3    H2 7701   7.895   0.780   2.525
 2606TIP3   OH2 7702   7.782   0.429   2.706
 2606TIP3    H1 7703   7.846   0.412   2.637
 2606TIP3    H2 7704   7.817   0.505   2.753
 2607TIP3   OH2 7705   8.318   1.018   2.506
 2607TIP3    H1 7706   8.300   1.101   2.552
 2607TIP3    H2 7707   8.297   0.951   2.571
 2608TIP3   OH2 7708   7.940   0.938   3.069
 2608TIP3    H1 7709   7.881   0.998   3.114
 2608TIP3    H2 7710   7.883   0.887   3.011
 2609TIP3   OH2 7711   7.668   0.581   3.138
 2609TIP3    H1 7712   7.679   0.659   3.193
 2609TIP3    H2 7713   7.591   0.537   3.174
 2610TIP3   OH2 7714   7.958   1.007   2.102
 2610TIP3    H1 7715   8.042   1.046   2.124
 2610TIP3    H2 7716   7.922   1.064   2.034
 2611TIP3   OH2 7717   7.737   1.100   3.154
 2611TIP3    H1 7718   7.712   1.114   3.063
 2611TIP3    H2 7719   7.653   1.087   3.200
 2612TIP3   OH2 7720   7.324   0.667   3.106
 2612TIP3    H1 7721   7.254   0.644   3.044
 2612TIP3    H2 7722   7.353   0.583   3.141
 2613TIP3   OH2 7723   7.173   0.864   2.774
 2613TIP3    H1 7724   7.262   0.893   2.796
 2613TIP3    H2 7725   7.118   0.940   2.792
 2614TIP3   OH2 7726   8.128   1.085   2.927
 2614TIP3    H1 7727   8.121   1.174   2.961
 2614TIP3    H2 7728   8.065   1.035   2.979
 2615TIP3   OH2 7729   7.871   1.176   1.892
 2615TIP3    H1 7730   7.795   1.157   1.837
 2615TIP3    H2 7731   7.854   1.262   1.928
 2616TIP3   OH2 7732   7.356   1.036   2.267
 2616TIP3    H1 7733   7.401   1.028   2.351
 2616TIP3    H2 7734   7.304   0.956   2.261
 2617TIP3   OH2 7735   8.124   1.129   1.794
 2617TIP3    H1 7736   8.033   1.135   1.824
 2617TIP3    H2 7737   8.159   1.053   1.841
 2618TIP3   OH2 7738   7.513   0.864   3.073
 2618TIP3    H1 7739   7.558   0.866   3.158
 2618TIP3    H2 7740   7.447   0.796   3.082
 2619TIP3   OH2 7741   7.814   0.233   2.896
 2619TIP3    H1 7742   7.763   0.251   2.975
 2619TIP3    H2 7743   7.780   0.295   2.831
 2620TIP3   OH2 7744   8.383   0.554   3.145
 2620TIP3    H1 7745   8.378   0.496   3.221
 2620TIP3    H2 7746   8.476   0.555   3.122
 2621TIP3   OH2 7747   7.675   0.256   3.128
 2621TIP3    H1 7748   7.735   0.260   3.203
 2621TIP3    H2 7749   7.626   0.174   3.141
 2622TIP3   OH2 7750   8.390   0.392   2.747
 2622TIP3    H1 7751   8.469   0.338   2.742
 2622TIP3    H2 7752   8.348   0.367   2.829
 2623TIP3   OH2 7753   8.724   1.647   2.888
 2623TIP3    H1 7754   8.709   1.657   2.794
 2623TIP3    H2 7755   8.793   1.710   2.908
 2624TIP3   OH2 7756   7.675   0.785   3.316
 2624TIP3    H1 7757   7.757   0.796   3.364
 2624TIP3    H2 7758   7.607   0.785   3.384
 2625TIP3   OH2 7759   8.122   0.045   2.839
 2625TIP3    H1 7760   8.117   0.140   2.834
 2625TIP3    H2 7761   8.174   0.027   2.917
 2626TIP3   OH2 7762   8.287   0.806   2.953
 2626TIP3    H1 7763   8.248   0.725   2.987
 2626TIP3    H2 7764   8.248   0.876   3.006
 2627TIP3   OH2 7765   7.517   0.475   2.617
 2627TIP3    H1 7766   7.557   0.459   2.532
 2627TIP3    H2 7767   7.586   0.454   2.680
 2628TIP3   OH2 7768   7.441   0.465   3.253
 2628TIP3    H1 7769   7.486   0.484   3.335
 2628TIP3    H2 7770   7.425   0.370   3.256
 2629TIP3   OH2 7771   8.124   0.592   3.256
 2629TIP3    H1 7772   8.045   0.547   3.226
 2629TIP3    H2 7773   8.186   0.582   3.184
 2630TIP3   OH2 7774   8.398   1.092   2.857
 2630TIP3    H1 7775   8.303   1.082   2.862
 2630TIP3    H2 7776   8.423   1.133   2.939
 2631TIP3   OH2 7777   7.698   0.826   2.258
 2631TIP3    H1 7778   7.729   0.893   2.197
 2631TIP3    H2 7779   7.603   0.834   2.257
 2632TIP3   OH2 7780   7.838   0.585   2.272
 2632TIP3    H1 7781   7.804   0.671   2.247
 2632TIP3    H2 7782   7.769   0.547   2.326
 2633TIP3   OH2 7783   7.954   1.152   2.719
 2633TIP3    H1 7784   7.990   1.226   2.670
 2633TIP3    H2 7785   8.027   1.122   2.774
 2634TIP3   OH2 7786   7.573   1.041   2.099
 2634TIP3    H1 7787   7.493   1.048   2.151
 2634TIP3    H2 7788   7.617   1.125   2.113
 2635TIP3   OH2 7789   8.304   0.797   2.682
 2635TIP3    H1 7790   8.292   0.804   2.777
 2635TIP3    H2 7791   8.399   0.794   2.670
 2636TIP3   OH2 7792   8.557   1.295   2.742
 2636TIP3    H1 7793   8.490   1.228   2.757
 2636TIP3    H2 7794   8.528   1.340   2.664
 2637TIP3   OH2 7795   7.379   1.048   2.889
 2637TIP3    H1 7796   7.429   0.991   2.948
 2637TIP3    H2 7797   7.392   1.136   2.924
 2638TIP3   OH2 7798   8.344   0.315   3.012
 2638TIP3    H1 7799   8.339   0.403   3.048
 2638TIP3    H2 7800   8.434   0.287   3.026
 2639TIP3   OH2 7801   7.477   0.987   1.841
 2639TIP3    H1 7802   7.539   1.046   1.797
 2639TIP3    H2 7803   7.505   0.987   1.933
 2640TIP3   OH2 7804   8.595   1.310   2.302
 2640TIP3    H1 7805   8.545   1.357   2.235
 2640TIP3    H2 7806   8.682   1.300   2.265
 2641TIP3   OH2 7807   7.177   0.823   2.257
 2641TIP3    H1 7808   7.136   0.860   2.335
 2641TIP3    H2 7809   7.127   0.859   2.184
 2642TIP3   OH2 7810   7.377   1.348   3.311
 2642TIP3    H1 7811   7.460   1.352   3.359
 2642TIP3    H2 7812   7.360   1.255   3.299
 2643TIP3   OH2 7813   7.842   1.257   3.355
 2643TIP3    H1 7814   7.934   1.232   3.365
 2643TIP3    H2 7815   7.811   1.205   3.281
 2644TIP3   OH2 7816   8.456   1.204   3.100
 2644TIP3    H1 7817   8.463   1.137   3.169
 2644TIP3    H2 7818   8.532   1.261   3.115
 2645TIP3   OH2 7819   7.472   0.793   3.502
 2645TIP3    H1 7820   7.457   0.729   3.572
 2645TIP3    H2 7821   7.392   0.789   3.449
 2646TIP3   OH2 7822   8.099   0.865   3.276
 2646TIP3    H1 7823   8.049   0.884   3.197
 2646TIP3    H2 7824   8.119   0.771   3.270
 2647TIP3   OH2 7825   8.580   0.873   2.852
 2647TIP3    H1 7826   8.635   0.923   2.791
 2647TIP3    H2 7827   8.503   0.928   2.866
 2648TIP3   OH2 7828   7.595   0.492   3.477
 2648TIP3    H1 7829   7.686   0.467   3.459
 2648TIP3    H2 7830   7.600   0.547   3.555
 2649TIP3   OH2 7831   7.913   0.463   3.130
 2649TIP3    H1 7832   7.823   0.496   3.136
 2649TIP3    H2 7833   7.949   0.506   3.052
 2650TIP3   OH2 7834   8.506   0.776   3.305
 2650TIP3    H1 7835   8.522   0.744   3.216
 2650TIP3    H2 7836   8.475   0.699   3.353
 2651TIP3   OH2 7837   8.076   0.251   3.170
 2651TIP3    H1 7838   8.024   0.178   3.205
 2651TIP3    H2 7839   8.014   0.324   3.166
 2652TIP3   OH2 7840   8.118   0.576   2.961
 2652TIP3    H1 7841   8.129   0.488   2.925
 2652TIP3    H2 7842   8.050   0.617   2.907
 2653TIP3   OH2 7843   8.754   0.434   3.477
 2653TIP3    H1 7844   8.707   0.434   3.394
 2653TIP3    H2 7845   8.742   0.523   3.511
 2654TIP3   OH2 7846   8.670   0.731   3.065
 2654TIP3    H1 7847   8.633   0.789   2.998
 2654TIP3    H2 7848   8.764   0.734   3.050
 2655TIP3   OH2 7849   7.858   0.412   3.493
 2655TIP3    H1 7850   7.821   0.392   3.578
 2655TIP3    H2 7851   7.952   0.425   3.510
 2656TIP3   OH2 7852   8.368   0.340   3.314
 2656TIP3    H1 7853   8.386   0.292   3.395
 2656TIP3    H2 7854   8.299   0.290   3.270
 2657TIP3   OH2 7855   7.646   1.181   1.720
 2657TIP3    H1 7856   7.634   1.276   1.732
 2657TIP3    H2 7857   7.609   1.164   1.633
 2658TIP3   OH2 7858   6.976   1.119   2.325
 2658TIP3    H1 7859   6.912   1.065   2.279
 2658TIP3    H2 7860   7.018   1.060   2.387
 2659TIP3   OH2 7861   7.118   0.957   2.500
 2659TIP3    H1 7862   7.106   0.891   2.568
 2659TIP3    H2 7863   7.172   1.024   2.540
 2660TIP3   OH2 7864   8.694   1.046   2.675
 2660TIP3    H1 7865   8.675   1.135   2.702
 2660TIP3    H2 7866   8.667   1.042   2.583
 2661TIP3   OH2 7867   7.320   0.443   2.818
 2661TIP3    H1 7868   7.357   0.465   2.733
 2661TIP3    H2 7869   7.397   0.431   2.875
 2662TIP3   OH2 7870   7.265   0.137   2.894
 2662TIP3    H1 7871   7.354   0.103   2.900
 2662TIP3    H2 7872   7.256   0.194   2.971
 2663TIP3   OH2 7873   8.448   1.221   1.960
 2663TIP3    H1 7874   8.456   1.248   1.868
 2663TIP3    H2 7875   8.464   1.300   2.010
 2664TIP3   OH2 7876   7.509   1.070   3.312
 2664TIP3    H1 7877   7.415   1.054   3.311
 2664TIP3    H2 7878   7.534   1.059   3.404
 2665TIP3   OH2 7879   7.727   1.120   2.873
 2665TIP3    H1 7880   7.677   1.196   2.842
 2665TIP3    H2 7881   7.811   1.128   2.827
 2666TIP3   OH2 7882   8.120   1.349   3.011
 2666TIP3    H1 7883   8.157   1.344   3.099
 2666TIP3    H2 7884   8.185   1.398   2.960
 2667TIP3   OH2 7885   8.318   1.493   2.882
 2667TIP3    H1 7886   8.385   1.440   2.838
 2667TIP3    H2 7887   8.367   1.551   2.939
 2668TIP3   OH2 7888   7.384   1.345   2.925
 2668TIP3    H1 7889   7.293   1.362   2.901
 2668TIP3    H2 7890   7.405   1.413   2.989
 2669TIP3   OH2 7891   7.614   1.349   2.773
 2669TIP3    H1 7892   7.531   1.350   2.821
 2669TIP3    H2 7893   7.590   1.372   2.683
 2670TIP3   OH2 7894   8.023   1.366   2.554
 2670TIP3    H1 7895   7.944   1.378   2.502
 2670TIP3    H2 7896   8.035   1.451   2.598
 2671TIP3   OH2 7897   8.275   1.271   2.601
 2671TIP3    H1 7898   8.189   1.309   2.586
 2671TIP3    H2 7899   8.337   1.337   2.570
 2672TIP3   OH2 7900   8.477   1.437   2.517
 2672TIP3    H1 7901   8.475   1.530   2.493
 2672TIP3    H2 7902   8.520   1.394   2.444
 2673TIP3   OH2 7903   7.296   1.133   2.636
 2673TIP3    H1 7904   7.318   1.110   2.726
 2673TIP3    H2 7905   7.368   1.098   2.584
 2674TIP3   OH2 7906   7.499   1.015   2.501
 2674TIP3    H1 7907   7.509   0.930   2.542
 2674TIP3    H2 7908   7.587   1.054   2.506
 2675TIP3   OH2 7909   7.766   1.096   2.523
 2675TIP3    H1 7910   7.785   1.004   2.507
 2675TIP3    H2 7911   7.824   1.120   2.596
 2676TIP3   OH2 7912   7.045   0.928   2.041
 2676TIP3    H1 7913   6.964   0.900   1.998
 2676TIP3    H2 7914   7.058   1.018   2.011
 2677TIP3   OH2 7915   7.166   0.973   1.736
 2677TIP3    H1 7916   7.120   1.026   1.801
 2677TIP3    H2 7917   7.247   0.945   1.780
 2678TIP3   OH2 7918   8.738   1.373   2.937
 2678TIP3    H1 7919   8.682   1.340   2.867
 2678TIP3    H2 7920   8.744   1.467   2.921
 2679TIP3   OH2 7921   1.005   1.573   3.970
 2679TIP3    H1 7922   0.978   1.515   4.042
 2679TIP3    H2 7923   1.012   1.659   4.010
 2680TIP3   OH2 7924   0.630   2.023   3.961
 2680TIP3    H1 7925   0.680   1.965   3.904
 2680TIP3    H2 7926   0.602   1.967   4.033
 2681TIP3   OH2 7927   0.523   1.518   4.310
 2681TIP3    H1 7928   0.549   1.446   4.251
 2681TIP3    H2 7929   0.606   1.555   4.339
 2682TIP3   OH2 7930   1.527   0.853   4.258
 2682TIP3    H1 7931   1.573   0.915   4.314
 2682TIP3    H2 7932   1.583   0.844   4.181
 2683TIP3   OH2 7933   1.634   1.048   4.440
 2683TIP3    H1 7934   1.557   1.098   4.415
 2683TIP3    H2 7935   1.665   1.089   4.521
 2684TIP3   OH2 7936   0.345   1.432   4.501
 2684TIP3    H1 7937   0.281   1.498   4.527
 2684TIP3    H2 7938   0.394   1.472   4.429
 2685TIP3   OH2 7939   0.178   1.623   4.602
 2685TIP3    H1 7940   0.156   1.714   4.582
 2685TIP3    H2 7941   0.106   1.592   4.656
 2686TIP3   OH2 7942   1.017   1.826   4.090
 2686TIP3    H1 7943   0.931   1.823   4.132
 2686TIP3    H2 7944   1.018   1.910   4.043
 2687TIP3   OH2 7945   1.296   0.844   4.410
 2687TIP3    H1 7946   1.221   0.898   4.384
 2687TIP3    H2 7947   1.367   0.872   4.352
 2688TIP3   OH2 7948   0.783   1.858   3.802
 2688TIP3    H1 7949   0.831   1.775   3.808
 2688TIP3    H2 7950   0.826   1.905   3.730
 2689TIP3   OH2 7951   1.268   1.715   4.434
 2689TIP3    H1 7952   1.247   1.643   4.374
 2689TIP3    H2 7953   1.251   1.794   4.383
 2690TIP3   OH2 7954   1.447   1.408   4.281
 2690TIP3    H1 7955   1.361   1.449   4.281
 2690TIP3    H2 7956   1.477   1.415   4.190
 2691TIP3   OH2 7957   1.188   1.300   4.579
 2691TIP3    H1 7958   1.156   1.380   4.620
 2691TIP3    H2 7959   1.111   1.264   4.535
 2692TIP3   OH2 7960   0.789   1.829   4.236
 2692TIP3    H1 7961   0.776   1.905   4.292
 2692TIP3    H2 7962   0.775   1.754   4.295
 2693TIP3   OH2 7963   0.380   1.737   4.753
 2693TIP3    H1 7964   0.314   1.791   4.796
 2693TIP3    H2 7965   0.329   1.680   4.695
 2694TIP3   OH2 7966   0.141   1.309   4.888
 2694TIP3    H1 7967   0.144   1.387   4.943
 2694TIP3    H2 7968   0.083   1.333   4.815
 2695TIP3   OH2 7969   1.487   2.095   4.500
 2695TIP3    H1 7970   1.495   2.000   4.509
 2695TIP3    H2 7971   1.407   2.117   4.548
 2696TIP3   OH2 7972   0.596   1.858   4.635
 2696TIP3    H1 7973   0.595   1.942   4.682
 2696TIP3    H2 7974   0.519   1.812   4.667
 2697TIP3   OH2 7975   1.369   1.258   4.802
 2697TIP3    H1 7976   1.304   1.295   4.743
 2697TIP3    H2 7977   1.378   1.167   4.775
 2698TIP3   OH2 7978   9.787   1.555   4.787
 2698TIP3    H1 7979   9.820   1.562   4.877
 2698TIP3    H2 7980   9.735   1.635   4.775
 2699TIP3   OH2 7981   0.879   0.642   4.753
 2699TIP3    H1 7982   0.943   0.614   4.818
 2699TIP3    H2 7983   0.797   0.601   4.781
 2700TIP3   OH2 7984   1.098   0.987   4.645
 2700TIP3    H1 7985   1.066   1.025   4.727
 2700TIP3    H2 7986   1.070   1.049   4.577
 2701TIP3   OH2 7987   0.850   1.266   4.856
 2701TIP3    H1 7988   0.914   1.203   4.888
 2701TIP3    H2 7989   0.887   1.351   4.879
 2702TIP3   OH2 7990   0.756   1.272   4.324
 2702TIP3    H1 7991   0.705   1.191   4.319
 2702TIP3    H2 7992   0.827   1.252   4.386
 2703TIP3   OH2 7993   1.190   2.423   4.584
 2703TIP3    H1 7994   1.186   2.437   4.490
 2703TIP3    H2 7995   1.268   2.471   4.612
 2704TIP3   OH2 7996   0.135   1.545   5.030
 2704TIP3    H1 7997   0.216   1.556   5.079
 2704TIP3    H2 7998   0.079   1.617   5.058
 2705TIP3   OH2 7999   1.202   1.526   4.250
 2705TIP3    H1 8000   1.227   1.573   4.171
 2705TIP3    H2 8001   1.120   1.483   4.227
 2706TIP3   OH2 8002   0.731   1.600   4.669
 2706TIP3    H1 8003   0.765   1.576   4.756
 2706TIP3    H2 8004   0.685   1.682   4.683
 2707TIP3   OH2 8005   0.607   1.394   4.884
 2707TIP3    H1 8006   0.566   1.369   4.801
 2707TIP3    H2 8007   0.691   1.347   4.884
 2708TIP3   OH2 8008   0.865   1.887   4.550
 2708TIP3    H1 8009   0.772   1.864   4.558
 2708TIP3    H2 8010   0.887   1.925   4.635
 2709TIP3   OH2 8011   1.510   1.822   4.515
 2709TIP3    H1 8012   1.418   1.796   4.520
 2709TIP3    H2 8013   1.541   1.786   4.433
 2710TIP3   OH2 8014   0.967   1.390   4.185
 2710TIP3    H1 8015   0.882   1.369   4.223
 2710TIP3    H2 8016   1.000   1.306   4.153
 2711TIP3   OH2 8017   0.414   1.926   4.407
 2711TIP3    H1 8018   0.445   2.001   4.357
 2711TIP3    H2 8019   0.492   1.889   4.448
 2712TIP3   OH2 8020   0.773   1.602   4.399
 2712TIP3    H1 8021   0.759   1.595   4.493
 2712TIP3    H2 8022   0.853   1.551   4.383
 2713TIP3   OH2 8023   1.026   2.096   4.424
 2713TIP3    H1 8024   0.950   2.041   4.444
 2713TIP3    H2 8025   0.995   2.158   4.358
 2714TIP3   OH2 8026   9.669   1.790   4.690
 2714TIP3    H1 8027   9.618   1.754   4.618
 2714TIP3    H2 8028   9.678   1.883   4.669
 2715TIP3   OH2 8029   0.860   0.808   4.531
 2715TIP3    H1 8030   0.940   0.859   4.544
 2715TIP3    H2 8031   0.867   0.735   4.593
 2716TIP3   OH2 8032   0.759   1.139   4.630
 2716TIP3    H1 8033   0.790   1.185   4.708
 2716TIP3    H2 8034   0.685   1.087   4.661
 2717TIP3   OH2 8035   1.371   1.034   4.647
 2717TIP3    H1 8036   1.281   1.003   4.640
 2717TIP3    H2 8037   1.394   1.060   4.557
 2718TIP3   OH2 8038   1.039   1.131   4.115
 2718TIP3    H1 8039   0.997   1.057   4.072
 2718TIP3    H2 8040   1.130   1.103   4.128
 2719TIP3   OH2 8041   1.043   2.089   4.007
 2719TIP3    H1 8042   0.996   2.133   3.936
 2719TIP3    H2 8043   1.136   2.107   3.989
 2720TIP3   OH2 8044   9.597   2.188   4.945
 2720TIP3    H1 8045   9.668   2.183   5.008
 2720TIP3    H2 8046   9.529   2.131   4.981
 2721TIP3   OH2 8047   0.909   1.990   4.802
 2721TIP3    H1 8048   0.922   1.919   4.864
 2721TIP3    H2 8049   0.985   2.048   4.814
 2722TIP3   OH2 8050   0.541   1.645   4.956
 2722TIP3    H1 8051   0.487   1.668   4.880
 2722TIP3    H2 8052   0.572   1.557   4.937
 2723TIP3   OH2 8053   1.035   1.659   4.575
 2723TIP3    H1 8054   1.111   1.691   4.525
 2723TIP3    H2 8055   0.968   1.727   4.561
 2724TIP3   OH2 8056   0.385   1.180   4.873
 2724TIP3    H1 8057   0.298   1.219   4.883
 2724TIP3    H2 8058   0.422   1.222   4.796
 2725TIP3   OH2 8059   0.924   1.526   4.926
 2725TIP3    H1 8060   1.011   1.526   4.886
 2725TIP3    H2 8061   0.939   1.502   5.017
 2726TIP3   OH2 8062   0.413   0.947   5.012
 2726TIP3    H1 8063   0.343   0.909   4.959
 2726TIP3    H2 8064   0.411   1.040   4.992
 2727TIP3   OH2 8065   0.509   1.286   4.653
 2727TIP3    H1 8066   0.582   1.266   4.594
 2727TIP3    H2 8067   0.447   1.334   4.599
 2728TIP3   OH2 8068   1.218   1.242   5.050
 2728TIP3    H1 8069   1.248   1.151   5.049
 2728TIP3    H2 8070   1.264   1.284   4.978
 2729TIP3   OH2 8071   1.158   1.522   4.771
 2729TIP3    H1 8072   1.103   1.573   4.711
 2729TIP3    H2 8073   1.247   1.533   4.737
 2730TIP3   OH2 8074   0.753   1.038   5.040
 2730TIP3    H1 8075   0.757   0.963   5.100
 2730TIP3    H2 8076   0.763   0.999   4.953
 2731TIP3   OH2 8077   1.035   1.055   4.902
 2731TIP3    H1 8078   0.972   0.983   4.893
 2731TIP3    H2 8079   1.105   1.018   4.956
 2732TIP3   OH2 8080   1.244   0.970   5.072
 2732TIP3    H1 8081   1.257   0.875   5.063
 2732TIP3    H2 8082   1.247   0.985   5.167
 2733TIP3   OH2 8083   1.311   2.153   3.994
 2733TIP3    H1 8084   1.330   2.172   4.086
 2733TIP3    H2 8085   1.347   2.228   3.946
 2734TIP3   OH2 8086   1.332   2.169   4.273
 2734TIP3    H1 8087   1.287   2.085   4.269
 2734TIP3    H2 8088   1.401   2.156   4.338
 2735TIP3   OH2 8089   1.384   1.881   4.841
 2735TIP3    H1 8090   1.312   1.889   4.905
 2735TIP3    H2 8091   1.430   1.964   4.848
 2736TIP3   OH2 8092   1.355   1.200   3.675
 2736TIP3    H1 8093   1.281   1.259   3.686
 2736TIP3    H2 8094   1.431   1.251   3.705
 2737TIP3   OH2 8095   1.392   1.660   4.084
 2737TIP3    H1 8096   1.434   1.593   4.030
 2737TIP3    H2 8097   1.387   1.737   4.027
 2738TIP3   OH2 8098   1.192   1.930   4.281
 2738TIP3    H1 8099   1.126   1.980   4.329
 2738TIP3    H2 8100   1.143   1.890   4.208
 2739TIP3   OH2 8101   1.401   1.543   4.644
 2739TIP3    H1 8102   1.467   1.478   4.619
 2739TIP3    H2 8103   1.384   1.592   4.564
 2740TIP3   OH2 8104   1.584   1.333   4.635
 2740TIP3    H1 8105   1.521   1.305   4.701
 2740TIP3    H2 8106   1.664   1.286   4.656
 2741TIP3   OH2 8107   1.293   1.041   4.182
 2741TIP3    H1 8108   1.373   1.050   4.130
 2741TIP3    H2 8109   1.312   1.087   4.264
 2742TIP3   OH2 8110   1.378   1.180   4.411
 2742TIP3    H1 8111   1.314   1.219   4.471
 2742TIP3    H2 8112   1.412   1.255   4.360
 2743TIP3   OH2 8113   1.912   0.797   5.001
 2743TIP3    H1 8114   1.963   0.730   4.956
 2743TIP3    H2 8115   1.874   0.851   4.931
 2744TIP3   OH2 8116   1.772   0.914   4.797
 2744TIP3    H1 8117   1.677   0.914   4.813
 2744TIP3    H2 8118   1.790   0.827   4.762
 2745TIP3   OH2 8119   0.925   2.030   3.628
 2745TIP3    H1 8120   0.970   2.088   3.567
 2745TIP3    H2 8121   0.908   2.084   3.705
 2746TIP3   OH2 8122   9.757   1.748   5.079
 2746TIP3    H1 8123   9.673   1.775   5.042
 2746TIP3    H2 8124   9.753   1.775   5.171
 2747TIP3   OH2 8125   0.185   1.894   4.555
 2747TIP3    H1 8126   0.133   1.968   4.521
 2747TIP3    H2 8127   0.266   1.897   4.504
 2748TIP3   OH2 8128   0.517   2.193   4.728
 2748TIP3    H1 8129   0.565   2.163   4.805
 2748TIP3    H2 8130   0.586   2.219   4.666
 2749TIP3   OH2 8131   0.731   2.265   4.573
 2749TIP3    H1 8132   0.771   2.209   4.506
 2749TIP3    H2 8133   0.806   2.307   4.617
 2750TIP3   OH2 8134   1.606   0.698   4.519
 2750TIP3    H1 8135   1.523   0.681   4.474
 2750TIP3    H2 8136   1.653   0.614   4.514
 2751TIP3   OH2 8137   9.659   2.073   4.640
 2751TIP3    H1 8138   9.570   2.103   4.624
 2751TIP3    H2 8139   9.676   2.095   4.732
 2752TIP3   OH2 8140   0.070   2.126   4.461
 2752TIP3    H1 8141  -0.012   2.115   4.509
 2752TIP3    H2 8142   0.043   2.149   4.372
 2753TIP3   OH2 8143   0.491   2.149   4.260
 2753TIP3    H1 8144   0.418   2.151   4.199
 2753TIP3    H2 8145   0.503   2.240   4.287
 2754TIP3   OH2 8146   0.754   2.104   4.326
 2754TIP3    H1 8147   0.664   2.109   4.294
 2754TIP3    H2 8148   0.805   2.155   4.263
 2755TIP3   OH2 8149   0.958   2.261   4.203
 2755TIP3    H1 8150   0.952   2.345   4.159
 2755TIP3    H2 8151   0.983   2.199   4.134
 2756TIP3   OH2 8152   0.221   1.896   4.203
 2756TIP3    H1 8153   0.209   1.805   4.176
 2756TIP3    H2 8154   0.284   1.892   4.275
 2757TIP3   OH2 8155   1.030   2.028   3.343
 2757TIP3    H1 8156   0.968   1.971   3.389
 2757TIP3    H2 8157   0.975   2.090   3.295
 2758TIP3   OH2 8158   1.255   0.684   5.087
 2758TIP3    H1 8159   1.271   0.639   5.170
 2758TIP3    H2 8160   1.334   0.667   5.035
 2759TIP3   OH2 8161   1.235   2.151   4.599
 2759TIP3    H1 8162   1.165   2.119   4.542
 2759TIP3    H2 8163   1.221   2.246   4.602
 2760TIP3   OH2 8164   2.513   1.546   3.349
 2760TIP3    H1 8165   2.483   1.634   3.326
 2760TIP3    H2 8166   2.444   1.488   3.317
 2761TIP3   OH2 8167   2.515   1.528   3.758
 2761TIP3    H1 8168   2.566   1.513   3.838
 2761TIP3    H2 8169   2.469   1.446   3.743
 2762TIP3   OH2 8170   1.806   1.388   4.094
 2762TIP3    H1 8171   1.841   1.341   4.170
 2762TIP3    H2 8172   1.883   1.414   4.044
 2763TIP3   OH2 8173   2.787   1.837   3.437
 2763TIP3    H1 8174   2.773   1.773   3.507
 2763TIP3    H2 8175   2.806   1.919   3.484
 2764TIP3   OH2 8176   1.802   1.821   3.781
 2764TIP3    H1 8177   1.781   1.728   3.794
 2764TIP3    H2 8178   1.897   1.824   3.785
 2765TIP3   OH2 8179   1.582   1.335   3.773
 2765TIP3    H1 8180   1.633   1.259   3.798
 2765TIP3    H2 8181   1.646   1.404   3.758
 2766TIP3   OH2 8182   2.430   2.267   3.432
 2766TIP3    H1 8183   2.466   2.200   3.374
 2766TIP3    H2 8184   2.430   2.226   3.519
 2767TIP3   OH2 8185   2.325   1.749   3.764
 2767TIP3    H1 8186   2.371   1.670   3.736
 2767TIP3    H2 8187   2.394   1.806   3.798
 2768TIP3   OH2 8188   3.353   1.071   3.786
 2768TIP3    H1 8189   3.366   1.157   3.828
 2768TIP3    H2 8190   3.380   1.084   3.695
 2769TIP3   OH2 8191   2.727   1.238   3.802
 2769TIP3    H1 8192   2.755   1.150   3.830
 2769TIP3    H2 8193   2.692   1.226   3.714
 2770TIP3   OH2 8194   2.102   0.919   3.774
 2770TIP3    H1 8195   2.073   0.988   3.715
 2770TIP3    H2 8196   2.063   0.839   3.739
 2771TIP3   OH2 8197   2.788   1.006   3.409
 2771TIP3    H1 8198   2.851   0.992   3.480
 2771TIP3    H2 8199   2.841   1.034   3.335
 2772TIP3   OH2 8200   1.717   1.109   3.863
 2772TIP3    H1 8201   1.796   1.092   3.914
 2772TIP3    H2 8202   1.722   1.049   3.789
 2773TIP3   OH2 8203   2.128   1.310   3.709
 2773TIP3    H1 8204   2.222   1.296   3.715
 2773TIP3    H2 8205   2.093   1.228   3.675
 2774TIP3   OH2 8206   3.403   1.291   3.951
 2774TIP3    H1 8207   3.318   1.333   3.942
 2774TIP3    H2 8208   3.442   1.332   4.028
 2775TIP3   OH2 8209   2.063   0.897   4.208
 2775TIP3    H1 8210   2.009   0.936   4.139
 2775TIP3    H2 8211   2.015   0.914   4.289
 2776TIP3   OH2 8212   2.412   1.765   3.212
 2776TIP3    H1 8213   2.378   1.734   3.129
 2776TIP3    H2 8214   2.356   1.840   3.234
 2777TIP3   OH2 8215   2.153   1.679   3.970
 2777TIP3    H1 8216   2.100   1.751   4.004
 2777TIP3    H2 8217   2.204   1.717   3.899
 2778TIP3   OH2 8218   2.950   1.009   3.629
 2778TIP3    H1 8219   2.896   0.993   3.707
 2778TIP3    H2 8220   2.998   1.089   3.649
 2779TIP3   OH2 8221   1.949   1.014   3.984
 2779TIP3    H1 8222   1.999   1.090   4.013
 2779TIP3    H2 8223   2.004   0.974   3.916
 2780TIP3   OH2 8224   2.000   1.883   4.075
 2780TIP3    H1 8225   1.987   1.973   4.046
 2780TIP3    H2 8226   1.924   1.864   4.130
 2781TIP3   OH2 8227   1.423   1.605   3.354
 2781TIP3    H1 8228   1.341   1.618   3.307
 2781TIP3    H2 8229   1.444   1.690   3.390
 2782TIP3   OH2 8230   2.822   2.083   3.578
 2782TIP3    H1 8231   2.735   2.075   3.617
 2782TIP3    H2 8232   2.820   2.166   3.531
 2783TIP3   OH2 8233   3.157   0.952   3.949
 2783TIP3    H1 8234   3.072   0.979   3.916
 2783TIP3    H2 8235   3.220   0.984   3.884
 2784TIP3   OH2 8236   2.404   0.603   3.933
 2784TIP3    H1 8237   2.403   0.511   3.958
 2784TIP3    H2 8238   2.325   0.640   3.974
 2785TIP3   OH2 8239   2.532   2.102   3.232
 2785TIP3    H1 8240   2.584   2.023   3.218
 2785TIP3    H2 8241   2.590   2.174   3.207
 2786TIP3   OH2 8242   2.671   1.868   3.190
 2786TIP3    H1 8243   2.590   1.817   3.198
 2786TIP3    H2 8244   2.718   1.851   3.271
 2787TIP3   OH2 8245   3.073   1.959   3.926
 2787TIP3    H1 8246   3.048   1.889   3.866
 2787TIP3    H2 8247   3.056   2.040   3.877
 2788TIP3   OH2 8248   2.344   1.389   3.191
 2788TIP3    H1 8249   2.261   1.434   3.174
 2788TIP3    H2 8250   2.388   1.387   3.105
 2789TIP3   OH2 8251   2.359   1.104   2.956
 2789TIP3    H1 8252   2.402   1.177   3.000
 2789TIP3    H2 8253   2.421   1.075   2.890
 2790TIP3   OH2 8254   3.239   1.625   3.748
 2790TIP3    H1 8255   3.156   1.671   3.754
 2790TIP3    H2 8256   3.274   1.650   3.662
 2791TIP3   OH2 8257   2.696   1.476   3.157
 2791TIP3    H1 8258   2.644   1.507   3.232
 2791TIP3    H2 8259   2.776   1.441   3.196
 2792TIP3   OH2 8260   2.928   1.496   4.093
 2792TIP3    H1 8261   2.920   1.577   4.142
 2792TIP3    H2 8262   2.847   1.489   4.044
 2793TIP3   OH2 8263   1.933   1.449   3.567
 2793TIP3    H1 8264   1.890   1.386   3.509
 2793TIP3    H2 8265   2.005   1.399   3.606
 2794TIP3   OH2 8266   2.073   1.863   3.703
 2794TIP3    H1 8267   2.045   1.842   3.614
 2794TIP3    H2 8268   2.161   1.826   3.710
 2795TIP3   OH2 8269   2.023   1.443   3.928
 2795TIP3    H1 8270   2.063   1.406   3.850
 2795TIP3    H2 8271   2.071   1.524   3.943
 2796TIP3   OH2 8272   2.583   2.073   3.706
 2796TIP3    H1 8273   2.565   2.156   3.751
 2796TIP3    H2 8274   2.563   2.006   3.772
 2797TIP3   OH2 8275   2.198   1.976   4.247
 2797TIP3    H1 8276   2.137   2.033   4.294
 2797TIP3    H2 8277   2.142   1.926   4.188
 2798TIP3   OH2 8278   2.542   1.317   2.997
 2798TIP3    H1 8279   2.596   1.380   3.046
 2798TIP3    H2 8280   2.562   1.335   2.905
 2799TIP3   OH2 8281   1.956   1.524   4.396
 2799TIP3    H1 8282   1.962   1.618   4.415
 2799TIP3    H2 8283   1.862   1.507   4.390
 2800TIP3   OH2 8284   2.273   2.006   3.238
 2800TIP3    H1 8285   2.359   2.046   3.244
 2800TIP3    H2 8286   2.219   2.071   3.193
 2801TIP3   OH2 8287   1.986   2.133   4.332
 2801TIP3    H1 8288   1.961   2.146   4.240
 2801TIP3    H2 8289   1.904   2.119   4.378
 2802TIP3   OH2 8290   3.051   0.578   3.045
 2802TIP3    H1 8291   2.959   0.556   3.034
 2802TIP3    H2 8292   3.069   0.641   2.975
 2803TIP3   OH2 8293   1.792   1.286   3.390
 2803TIP3    H1 8294   1.736   1.349   3.346
 2803TIP3    H2 8295   1.733   1.218   3.422
 2804TIP3   OH2 8296   2.865   1.926   2.601
 2804TIP3    H1 8297   2.861   2.019   2.578
 2804TIP3    H2 8298   2.957   1.902   2.587
 2805TIP3   OH2 8299   1.584   1.701   4.283
 2805TIP3    H1 8300   1.515   1.684   4.218
 2805TIP3    H2 8301   1.618   1.615   4.305
 2806TIP3   OH2 8302   1.420   1.902   3.942
 2806TIP3    H1 8303   1.509   1.930   3.965
 2806TIP3    H2 8304   1.365   1.978   3.962
 2807TIP3   OH2 8305   3.292   2.366   3.996
 2807TIP3    H1 8306   3.300   2.271   4.008
 2807TIP3    H2 8307   3.210   2.388   4.039
 2808TIP3   OH2 8308   2.386   2.122   4.109
 2808TIP3    H1 8309   2.378   2.212   4.140
 2808TIP3    H2 8310   2.319   2.074   4.158
 2809TIP3   OH2 8311   2.161   2.219   3.082
 2809TIP3    H1 8312   2.119   2.204   2.998
 2809TIP3    H2 8313   2.133   2.307   3.108
 2810TIP3   OH2 8314   1.630   2.077   3.408
 2810TIP3    H1 8315   1.670   2.078   3.495
 2810TIP3    H2 8316   1.575   1.999   3.408
 2811TIP3   OH2 8317   2.342   2.158   2.725
 2811TIP3    H1 8318   2.398   2.089   2.690
 2811TIP3    H2 8319   2.380   2.179   2.811
 2812TIP3   OH2 8320   2.417   2.210   2.983
 2812TIP3    H1 8321   2.333   2.208   3.028
 2812TIP3    H2 8322   2.480   2.179   3.049
 2813TIP3   OH2 8323   3.173   1.461   4.256
 2813TIP3    H1 8324   3.090   1.464   4.208
 2813TIP3    H2 8325   3.193   1.367   4.262
 2814TIP3   OH2 8326   1.790   1.881   4.251
 2814TIP3    H1 8327   1.838   1.867   4.333
 2814TIP3    H2 8328   1.714   1.822   4.258
 2815TIP3   OH2 8329   2.156   0.686   4.049
 2815TIP3    H1 8330   2.073   0.657   4.012
 2815TIP3    H2 8331   2.134   0.765   4.099
 2816TIP3   OH2 8332   2.713   0.813   4.267
 2816TIP3    H1 8333   2.781   0.787   4.330
 2816TIP3    H2 8334   2.630   0.800   4.314
 2817TIP3   OH2 8335   2.933   1.230   4.185
 2817TIP3    H1 8336   2.889   1.224   4.270
 2817TIP3    H2 8337   2.915   1.319   4.155
 2818TIP3   OH2 8338   2.600   1.323   2.727
 2818TIP3    H1 8339   2.569   1.326   2.637
 2818TIP3    H2 8340   2.686   1.366   2.724
 2819TIP3   OH2 8341   2.104   1.223   4.077
 2819TIP3    H1 8342   2.060   1.233   4.162
 2819TIP3    H2 8343   2.083   1.303   4.030
 2820TIP3   OH2 8344   1.991   1.094   3.598
 2820TIP3    H1 8345   1.902   1.061   3.611
 2820TIP3    H2 8346   2.010   1.077   3.506
 2821TIP3   OH2 8347   2.477   1.188   3.323
 2821TIP3    H1 8348   2.428   1.260   3.283
 2821TIP3    H2 8349   2.541   1.162   3.256
 2822TIP3   OH2 8350   2.648   1.435   4.393
 2822TIP3    H1 8351   2.621   1.369   4.457
 2822TIP3    H2 8352   2.740   1.453   4.414
 2823TIP3   OH2 8353   2.639   1.194   3.549
 2823TIP3    H1 8354   2.573   1.219   3.484
 2823TIP3    H2 8355   2.687   1.123   3.507
 2824TIP3   OH2 8356   1.944   1.249   4.296
 2824TIP3    H1 8357   1.952   1.319   4.362
 2824TIP3    H2 8358   1.934   1.169   4.348
 2825TIP3   OH2 8359   2.678   1.441   3.974
 2825TIP3    H1 8360   2.702   1.373   3.911
 2825TIP3    H2 8361   2.631   1.394   4.043
 2826TIP3   OH2 8362   2.364   0.908   3.662
 2826TIP3    H1 8363   2.286   0.912   3.717
 2826TIP3    H2 8364   2.435   0.891   3.723
 2827TIP3   OH2 8365   1.765   0.934   3.651
 2827TIP3    H1 8366   1.680   0.909   3.616
 2827TIP3    H2 8367   1.815   0.852   3.653
 2828TIP3   OH2 8368   2.060   1.023   3.344
 2828TIP3    H1 8369   2.153   0.999   3.346
 2828TIP3    H2 8370   2.050   1.071   3.263
 2829TIP3   OH2 8371   2.788   0.971   3.852
 2829TIP3    H1 8372   2.773   0.989   3.945
 2829TIP3    H2 8373   2.721   0.908   3.828
 2830TIP3   OH2 8374   2.984   2.677   4.071
 2830TIP3    H1 8375   2.978   2.695   3.977
 2830TIP3    H2 8376   3.062   2.724   4.099
 2831TIP3   OH2 8377   1.938   1.790   4.487
 2831TIP3    H1 8378   2.018   1.811   4.534
 2831TIP3    H2 8379   1.868   1.800   4.551
 2832TIP3   OH2 8380   2.400   1.260   3.754
 2832TIP3    H1 8381   2.469   1.211   3.711
 2832TIP3    H2 8382   2.395   1.222   3.842
 2833TIP3   OH2 8383   1.973   0.720   3.626
 2833TIP3    H1 8384   2.050   0.666   3.648
 2833TIP3    H2 8385   1.965   0.713   3.531
 2834TIP3   OH2 8386   2.370   1.167   4.017
 2834TIP3    H1 8387   2.283   1.198   4.041
 2834TIP3    H2 8388   2.430   1.218   4.071
 2835TIP3   OH2 8389   2.101   1.527   3.143
 2835TIP3    H1 8390   2.054   1.443   3.144
 2835TIP3    H2 8391   2.083   1.566   3.228
 2836TIP3   OH2 8392   3.001   1.766   3.741
 2836TIP3    H1 8393   3.031   1.821   3.669
 2836TIP3    H2 8394   2.919   1.729   3.709
 2837TIP3   OH2 8395   2.542   0.844   2.983
 2837TIP3    H1 8396   2.447   0.854   2.978
 2837TIP3    H2 8397   2.575   0.904   2.916
 2838TIP3   OH2 8398   2.515   1.851   4.160
 2838TIP3    H1 8399   2.566   1.836   4.240
 2838TIP3    H2 8400   2.478   1.938   4.171
 2839TIP3   OH2 8401   2.661   1.100   3.132
 2839TIP3    H1 8402   2.756   1.108   3.137
 2839TIP3    H2 8403   2.635   1.167   3.068
 2840TIP3   OH2 8404   1.791   1.531   3.786
 2840TIP3    H1 8405   1.833   1.516   3.701
 2840TIP3    H2 8406   1.856   1.503   3.850
 2841TIP3   OH2 8407   2.270   1.678   2.986
 2841TIP3    H1 8408   2.225   1.762   2.979
 2841TIP3    H2 8409   2.209   1.623   3.037
 2842TIP3   OH2 8410   1.685   1.465   4.408
 2842TIP3    H1 8411   1.677   1.439   4.500
 2842TIP3    H2 8412   1.609   1.426   4.365
 2843TIP3   OH2 8413   2.417   1.595   4.437
 2843TIP3    H1 8414   2.348   1.534   4.410
 2843TIP3    H2 8415   2.498   1.554   4.407
 2844TIP3   OH2 8416   2.657   2.134   4.030
 2844TIP3    H1 8417   2.562   2.122   4.033
 2844TIP3    H2 8418   2.678   2.180   4.111
 2845TIP3   OH2 8419   3.026   1.181   2.932
 2845TIP3    H1 8420   2.973   1.149   2.859
 2845TIP3    H2 8421   3.041   1.273   2.911
 2846TIP3   OH2 8422   3.310   2.088   4.022
 2846TIP3    H1 8423   3.218   2.061   4.025
 2846TIP3    H2 8424   3.342   2.053   3.939
 2847TIP3   OH2 8425   2.790   1.994   2.863
 2847TIP3    H1 8426   2.741   1.926   2.908
 2847TIP3    H2 8427   2.807   1.958   2.776
 2848TIP3   OH2 8428   2.768   1.637   3.639
 2848TIP3    H1 8429   2.678   1.616   3.663
 2848TIP3    H2 8430   2.802   1.556   3.599
 2849TIP3   OH2 8431   1.915   1.864   3.467
 2849TIP3    H1 8432   1.922   1.952   3.430
 2849TIP3    H2 8433   1.826   1.860   3.501
 2850TIP3   OH2 8434   2.024   1.628   3.378
 2850TIP3    H1 8435   1.991   1.715   3.403
 2850TIP3    H2 8436   1.993   1.571   3.449
 2851TIP3   OH2 8437   2.204   2.197   3.902
 2851TIP3    H1 8438   2.238   2.272   3.853
 2851TIP3    H2 8439   2.278   2.166   3.954
 2852TIP3   OH2 8440   1.728   2.205   3.182
 2852TIP3    H1 8441   1.686   2.158   3.254
 2852TIP3    H2 8442   1.794   2.260   3.225
 2853TIP3   OH2 8443   2.551   1.856   3.886
 2853TIP3    H1 8444   2.537   1.854   3.980
 2853TIP3    H2 8445   2.636   1.813   3.873
 2854TIP3   OH2 8446   2.540   1.727   2.749
 2854TIP3    H1 8447   2.593   1.688   2.819
 2854TIP3    H2 8448   2.454   1.685   2.758
 2855TIP3   OH2 8449   2.812   2.348   3.913
 2855TIP3    H1 8450   2.738   2.288   3.929
 2855TIP3    H2 8451   2.782   2.405   3.843
 2856TIP3   OH2 8452   2.860   2.197   2.563
 2856TIP3    H1 8453   2.868   2.248   2.482
 2856TIP3    H2 8454   2.790   2.239   2.612
 2857TIP3   OH2 8455   1.917   1.005   4.427
 2857TIP3    H1 8456   1.821   0.997   4.420
 2857TIP3    H2 8457   1.939   0.955   4.506
 2858TIP3   OH2 8458   2.718   1.621   2.926
 2858TIP3    H1 8459   2.705   1.581   3.012
 2858TIP3    H2 8460   2.812   1.639   2.922
 2859TIP3   OH2 8461   1.630   2.091   4.052
 2859TIP3    H1 8462   1.687   2.036   4.107
 2859TIP3    H2 8463   1.640   2.179   4.088
 2860TIP3   OH2 8464   1.881   1.731   2.756
 2860TIP3    H1 8465   1.905   1.648   2.715
 2860TIP3    H2 8466   1.890   1.716   2.850
 2861TIP3   OH2 8467   1.890   1.701   3.027
 2861TIP3    H1 8468   1.959   1.658   3.077
 2861TIP3    H2 8469   1.894   1.793   3.054
 2862TIP3   OH2 8470   1.623   1.445   3.256
 2862TIP3    H1 8471   1.552   1.490   3.302
 2862TIP3    H2 8472   1.627   1.488   3.170
 2863TIP3   OH2 8473   2.744   1.037   4.113
 2863TIP3    H1 8474   2.819   1.086   4.147
 2863TIP3    H2 8475   2.735   0.963   4.172
 2864TIP3   OH2 8476   2.580   0.857   3.312
 2864TIP3    H1 8477   2.498   0.905   3.327
 2864TIP3    H2 8478   2.647   0.912   3.352
 2865TIP3   OH2 8479   2.131   1.906   2.957
 2865TIP3    H1 8480   2.053   1.935   3.005
 2865TIP3    H2 8481   2.152   1.981   2.901
 2866TIP3   OH2 8482   2.332   0.970   3.394
 2866TIP3    H1 8483   2.371   1.056   3.376
 2866TIP3    H2 8484   2.336   0.961   3.489
 2867TIP3   OH2 8485   2.576   1.276   4.170
 2867TIP3    H1 8486   2.597   1.322   4.251
 2867TIP3    H2 8487   2.626   1.194   4.175
 2868TIP3   OH2 8488   2.441   0.685   3.509
 2868TIP3    H1 8489   2.422   0.759   3.566
 2868TIP3    H2 8490   2.506   0.718   3.447
 2869TIP3   OH2 8491   1.878   1.983   3.049
 2869TIP3    H1 8492   1.842   2.021   2.969
 2869TIP3    H2 8493   1.845   2.039   3.119
 2870TIP3   OH2 8494   3.199   1.180   4.174
 2870TIP3    H1 8495   3.104   1.187   4.185
 2870TIP3    H2 8496   3.210   1.138   4.089
 2871TIP3   OH2 8497   2.862   1.379   3.550
 2871TIP3    H1 8498   2.783   1.326   3.561
 2871TIP3    H2 8499   2.926   1.338   3.607
 2872TIP3   OH2 8500   1.636   1.594   3.024
 2872TIP3    H1 8501   1.723   1.632   3.026
 2872TIP3    H2 8502   1.585   1.654   2.969
 2873TIP3   OH2 8503   2.832   2.346   3.483
 2873TIP3    H1 8504   2.788   2.398   3.416
 2873TIP3    H2 8505   2.925   2.363   3.470
 2874TIP3   OH2 8506   1.895   0.611   3.970
 2874TIP3    H1 8507   1.878   0.580   3.881
 2874TIP3    H2 8508   1.879   0.535   4.026
 2875TIP3   OH2 8509   1.447   1.872   3.429
 2875TIP3    H1 8510   1.409   1.905   3.511
 2875TIP3    H2 8511   1.387   1.903   3.361
 2876TIP3   OH2 8512   1.627   2.392   4.491
 2876TIP3    H1 8513   1.710   2.394   4.538
 2876TIP3    H2 8514   1.609   2.298   4.478
 2877TIP3   OH2 8515   2.092   2.295   4.528
 2877TIP3    H1 8516   2.183   2.267   4.537
 2877TIP3    H2 8517   2.058   2.242   4.455
 2878TIP3   OH2 8518   2.031   1.941   2.653
 2878TIP3    H1 8519   1.985   1.866   2.691
 2878TIP3    H2 8520   2.111   1.904   2.617
 2879TIP3   OH2 8521   2.706   2.254   4.269
 2879TIP3    H1 8522   2.707   2.177   4.326
 2879TIP3    H2 8523   2.782   2.305   4.295
 2880TIP3   OH2 8524   2.493   1.960   2.620
 2880TIP3    H1 8525   2.524   1.885   2.672
 2880TIP3    H2 8526   2.548   1.958   2.541
 2881TIP3   OH2 8527   1.733   1.795   4.676
 2881TIP3    H1 8528   1.747   1.701   4.688
 2881TIP3    H2 8529   1.648   1.801   4.633
 2882TIP3   OH2 8530   2.350   1.871   4.453
 2882TIP3    H1 8531   2.306   1.894   4.371
 2882TIP3    H2 8532   2.385   1.783   4.438
 2883TIP3   OH2 8533   2.269   1.633   2.714
 2883TIP3    H1 8534   2.259   1.654   2.807
 2883TIP3    H2 8535   2.273   1.538   2.711
 2884TIP3   OH2 8536   2.828   1.913   4.061
 2884TIP3    H1 8537   2.907   1.945   4.017
 2884TIP3    H2 8538   2.763   1.982   4.049
 2885TIP3   OH2 8539   1.844   1.537   4.686
 2885TIP3    H1 8540   1.920   1.520   4.630
 2885TIP3    H2 8541   1.881   1.556   4.772
 2886TIP3   OH2 8542   1.963   1.289   3.172
 2886TIP3    H1 8543   1.915   1.288   3.255
 2886TIP3    H2 8544   1.896   1.272   3.105
 2887TIP3   OH2 8545   2.215   1.422   4.339
 2887TIP3    H1 8546   2.129   1.462   4.351
 2887TIP3    H2 8547   2.244   1.452   4.253
 2888TIP3   OH2 8548   2.697   1.779   4.406
 2888TIP3    H1 8549   2.773   1.745   4.359
 2888TIP3    H2 8550   2.695   1.729   4.487
 2889TIP3   OH2 8551   2.841   1.444   2.642
 2889TIP3    H1 8552   2.837   1.402   2.556
 2889TIP3    H2 8553   2.813   1.534   2.626
 2890TIP3   OH2 8554   2.318   1.190   4.443
 2890TIP3    H1 8555   2.316   1.119   4.379
 2890TIP3    H2 8556   2.282   1.266   4.396
 2891TIP3   OH2 8557   2.319   0.993   4.241
 2891TIP3    H1 8558   2.344   1.032   4.157
 2891TIP3    H2 8559   2.230   0.962   4.228
 2892TIP3   OH2 8560   2.327   1.521   4.112
 2892TIP3    H1 8561   2.412   1.565   4.109
 2892TIP3    H2 8562   2.268   1.578   4.062
 2893TIP3   OH2 8563   2.916   1.470   4.492
 2893TIP3    H1 8564   2.957   1.385   4.506
 2893TIP3    H2 8565   2.989   1.530   4.478
 2894TIP3   OH2 8566   2.939   1.739   4.238
 2894TIP3    H1 8567   2.886   1.799   4.185
 2894TIP3    H2 8568   3.029   1.751   4.206
 2895TIP3   OH2 8569   2.209   1.284   4.685
 2895TIP3    H1 8570   2.142   1.219   4.708
 2895TIP3    H2 8571   2.236   1.260   4.597
 2896TIP3   OH2 8572   2.450   0.774   4.348
 2896TIP3    H1 8573   2.411   0.855   4.316
 2896TIP3    H2 8574   2.385   0.706   4.329
 2897TIP3   OH2 8575   2.569   1.225   4.552
 2897TIP3    H1 8576   2.558   1.213   4.646
 2897TIP3    H2 8577   2.483   1.206   4.514
 2898TIP3   OH2 8578   2.811   1.177   4.419
 2898TIP3    H1 8579   2.732   1.179   4.474
 2898TIP3    H2 8580   2.881   1.155   4.480
 2899TIP3   OH2 8581   3.048   1.150   4.569
 2899TIP3    H1 8582   3.063   1.055   4.575
 2899TIP3    H2 8583   3.043   1.180   4.659
 2900TIP3   OH2 8584   2.049   1.072   4.753
 2900TIP3    H1 8585   2.038   0.981   4.725
 2900TIP3    H2 8586   2.075   1.065   4.845
 2901TIP3   OH2 8587   2.504   0.732   4.613
 2901TIP3    H1 8588   2.573   0.666   4.606
 2901TIP3    H2 8589   2.478   0.749   4.523
 2902TIP3   OH2 8590   2.604   0.950   4.749
 2902TIP3    H1 8591   2.570   0.877   4.697
 2902TIP3    H2 8592   2.531   1.012   4.754
 2903TIP3   OH2 8593   1.813   2.223   2.879
 2903TIP3    H1 8594   1.908   2.212   2.876
 2903TIP3    H2 8595   1.791   2.260   2.793
 2904TIP3   OH2 8596   1.233   2.160   3.487
 2904TIP3    H1 8597   1.177   2.108   3.429
 2904TIP3    H2 8598   1.267   2.097   3.550
 2905TIP3   OH2 8599   1.368   1.995   3.668
 2905TIP3    H1 8600   1.357   1.932   3.738
 2905TIP3    H2 8601   1.419   2.066   3.706
 2906TIP3   OH2 8602   3.102   2.403   3.479
 2906TIP3    H1 8603   3.119   2.432   3.569
 2906TIP3    H2 8604   3.152   2.463   3.425
 2907TIP3   OH2 8605   3.116   2.434   3.761
 2907TIP3    H1 8606   3.078   2.347   3.764
 2907TIP3    H2 8607   3.190   2.429   3.821
 2908TIP3   OH2 8608   3.181   2.149   4.351
 2908TIP3    H1 8609   3.110   2.159   4.415
 2908TIP3    H2 8610   3.222   2.235   4.348
 2909TIP3   OH2 8611   2.995   1.672   2.968
 2909TIP3    H1 8612   3.051   1.736   2.923
 2909TIP3    H2 8613   2.971   1.715   3.050
 2910TIP3   OH2 8614   3.181   1.914   3.586
 2910TIP3    H1 8615   3.237   1.853   3.539
 2910TIP3    H2 8616   3.179   1.993   3.531
 2911TIP3   OH2 8617   2.990   2.181   3.781
 2911TIP3    H1 8618   2.923   2.231   3.829
 2911TIP3    H2 8619   2.943   2.144   3.706
 2912TIP3   OH2 8620   3.049   1.440   2.825
 2912TIP3    H1 8621   2.978   1.435   2.761
 2912TIP3    H2 8622   3.027   1.517   2.878
 2913TIP3   OH2 8623   2.888   1.089   2.714
 2913TIP3    H1 8624   2.893   1.101   2.619
 2913TIP3    H2 8625   2.865   0.997   2.726
 2914TIP3   OH2 8626   2.908   1.355   3.276
 2914TIP3    H1 8627   2.938   1.264   3.269
 2914TIP3    H2 8628   2.904   1.371   3.371
 2915TIP3   OH2 8629   1.545   1.423   4.029
 2915TIP3    H1 8630   1.539   1.400   3.936
 2915TIP3    H2 8631   1.639   1.423   4.048
 2916TIP3   OH2 8632   3.191   1.789   4.134
 2916TIP3    H1 8633   3.262   1.730   4.110
 2916TIP3    H2 8634   3.174   1.839   4.054
 2917TIP3   OH2 8635   3.385   1.583   4.129
 2917TIP3    H1 8636   3.311   1.542   4.176
 2917TIP3    H2 8637   3.460   1.529   4.152
 2918TIP3   OH2 8638   2.847   0.820   2.756
 2918TIP3    H1 8639   2.933   0.800   2.792
 2918TIP3    H2 8640   2.821   0.740   2.710
 2919TIP3   OH2 8641   2.940   1.077   3.178
 2919TIP3    H1 8642   2.977   0.989   3.180
 2919TIP3    H2 8643   2.976   1.116   3.098
 2920TIP3   OH2 8644   3.071   1.251   3.693
 2920TIP3    H1 8645   3.151   1.271   3.644
 2920TIP3    H2 8646   3.084   1.294   3.778
 2921TIP3   OH2 8647   3.149   1.412   3.912
 2921TIP3    H1 8648   3.077   1.444   3.967
 2921TIP3    H2 8649   3.177   1.488   3.862
 2922TIP3   OH2 8650   1.792   1.161   4.684
 2922TIP3    H1 8651   1.888   1.165   4.684
 2922TIP3    H2 8652   1.772   1.081   4.733
 2923TIP3   OH2 8653   3.607   1.004   4.455
 2923TIP3    H1 8654   3.672   0.948   4.413
 2923TIP3    H2 8655   3.568   1.053   4.382
 2924TIP3   OH2 8656   3.024   0.806   3.215
 2924TIP3    H1 8657   3.072   0.804   3.298
 2924TIP3    H2 8658   3.058   0.732   3.165
 2925TIP3   OH2 8659   1.752   0.823   4.084
 2925TIP3    H1 8660   1.794   0.749   4.040
 2925TIP3    H2 8661   1.797   0.900   4.048
 2926TIP3   OH2 8662   1.535   1.130   4.079
 2926TIP3    H1 8663   1.589   1.108   4.003
 2926TIP3    H2 8664   1.538   1.226   4.083
 2927TIP3   OH2 8665   3.456   1.112   4.253
 2927TIP3    H1 8666   3.371   1.154   4.263
 2927TIP3    H2 8667   3.439   1.033   4.202
 2928TIP3   OH2 8668   3.100   0.754   2.842
 2928TIP3    H1 8669   3.143   0.708   2.771
 2928TIP3    H2 8670   3.150   0.835   2.851
 2929TIP3   OH2 8671   2.671   2.306   3.129
 2929TIP3    H1 8672   2.727   2.301   3.052
 2929TIP3    H2 8673   2.702   2.384   3.176
 2930TIP3   OH2 8674   1.809   0.741   4.342
 2930TIP3    H1 8675   1.729   0.741   4.395
 2930TIP3    H2 8676   1.779   0.763   4.253
 2931TIP3   OH2 8677   1.764   2.110   4.499
 2931TIP3    H1 8678   1.670   2.094   4.492
 2931TIP3    H2 8679   1.783   2.100   4.592
 2932TIP3   OH2 8680   1.975   2.158   4.049
 2932TIP3    H1 8681   1.924   2.233   4.019
 2932TIP3    H2 8682   2.060   2.168   4.007
 2933TIP3   OH2 8683   2.369   2.388   4.191
 2933TIP3    H1 8684   2.405   2.381   4.280
 2933TIP3    H2 8685   2.432   2.442   4.144
 2934TIP3   OH2 8686   2.560   2.545   4.068
 2934TIP3    H1 8687   2.624   2.492   4.020
 2934TIP3    H2 8688   2.613   2.603   4.123
 2935TIP3   OH2 8689   3.375   0.868   4.144
 2935TIP3    H1 8690   3.289   0.867   4.104
 2935TIP3    H2 8691   3.404   0.777   4.142
 2936TIP3   OH2 8692   1.637   2.384   4.104
 2936TIP3    H1 8693   1.546   2.401   4.079
 2936TIP3    H2 8694   1.658   2.453   4.167
 2937TIP3   OH2 8695   1.865   2.389   3.948
 2937TIP3    H1 8696   1.782   2.391   3.996
 2937TIP3    H2 8697   1.842   2.416   3.859
 2938TIP3   OH2 8698   2.279   2.408   3.740
 2938TIP3    H1 8699   2.209   2.421   3.676
 2938TIP3    H2 8700   2.291   2.494   3.780
 2939TIP3   OH2 8701   2.540   2.333   3.788
 2939TIP3    H1 8702   2.450   2.359   3.770
 2939TIP3    H2 8703   2.593   2.401   3.745
 2940TIP3   OH2 8704   2.740   2.503   3.690
 2940TIP3    H1 8705   2.743   2.592   3.654
 2940TIP3    H2 8706   2.769   2.447   3.618
 2941TIP3   OH2 8707   1.547   2.173   3.795
 2941TIP3    H1 8708   1.566   2.149   3.886
 2941TIP3    H2 8709   1.620   2.138   3.745
 2942TIP3   OH2 8710   1.754   2.059   3.657
 2942TIP3    H1 8711   1.760   1.976   3.705
 2942TIP3    H2 8712   1.839   2.101   3.672
 2943TIP3   OH2 8713   2.018   2.138   3.701
 2943TIP3    H1 8714   2.040   2.045   3.694
 2943TIP3    H2 8715   2.072   2.170   3.774
 2944TIP3   OH2 8716   2.584   0.785   3.784
 2944TIP3    H1 8717   2.537   0.716   3.830
 2944TIP3    H2 8718   2.650   0.739   3.732
 2945TIP3   OH2 8719   3.088   0.714   3.662
 2945TIP3    H1 8720   3.124   0.770   3.594
 2945TIP3    H2 8721   2.998   0.744   3.674
 2946TIP3   OH2 8722   3.201   0.806   3.425
 2946TIP3    H1 8723   3.269   0.740   3.411
 2946TIP3    H2 8724   3.245   0.889   3.407
 2947TIP3   OH2 8725   2.221   0.606   3.673
 2947TIP3    H1 8726   2.295   0.620   3.614
 2947TIP3    H2 8727   2.261   0.581   3.756
 2948TIP3   OH2 8728   2.794   0.660   3.646
 2948TIP3    H1 8729   2.832   0.617   3.569
 2948TIP3    H2 8730   2.797   0.593   3.715
 2949TIP3   OH2 8731   2.772   0.664   3.186
 2949TIP3    H1 8732   2.856   0.698   3.218
 2949TIP3    H2 8733   2.765   0.577   3.226
 2950TIP3   OH2 8734   1.281   1.967   3.236
 2950TIP3    H1 8735   1.188   1.977   3.258
 2950TIP3    H2 8736   1.297   2.033   3.169
 2951TIP3   OH2 8737   2.311   0.729   3.251
 2951TIP3    H1 8738   2.313   0.675   3.330
 2951TIP3    H2 8739   2.297   0.818   3.283
 2952TIP3   OH2 8740   2.080   2.155   2.819
 2952TIP3    H1 8741   2.163   2.185   2.782
 2952TIP3    H2 8742   2.046   2.092   2.756
 2953TIP3   OH2 8743   2.819   2.264   2.900
 2953TIP3    H1 8744   2.815   2.169   2.891
 2953TIP3    H2 8745   2.774   2.297   2.822
 2954TIP3   OH2 8746   2.053   0.802   4.686
 2954TIP3    H1 8747   2.020   0.731   4.742
 2954TIP3    H2 8748   2.146   0.809   4.709
 2955TIP3   OH2 8749   2.303   0.790   4.801
 2955TIP3    H1 8750   2.375   0.767   4.742
 2955TIP3    H2 8751   2.308   0.725   4.871
 2956TIP3   OH2 8752   1.566   2.080   2.967
 2956TIP3    H1 8753   1.473   2.073   2.989
 2956TIP3    H2 8754   1.581   2.007   2.908
 2957TIP3   OH2 8755   3.114   0.878   4.577
 2957TIP3    H1 8756   3.130   0.851   4.667
 2957TIP3    H2 8757   3.199   0.872   4.534
 2958TIP3   OH2 8758   3.030   2.406   4.086
 2958TIP3    H1 8759   2.957   2.374   4.033
 2958TIP3    H2 8760   3.015   2.500   4.092
 2959TIP3   OH2 8761   4.302   1.792   2.833
 2959TIP3    H1 8762   4.268   1.879   2.813
 2959TIP3    H2 8763   4.235   1.732   2.802
 2960TIP3   OH2 8764   4.301   1.783   3.240
 2960TIP3    H1 8765   4.364   1.764   3.310
 2960TIP3    H2 8766   4.263   1.698   3.218
 2961TIP3   OH2 8767   3.605   1.645   3.603
 2961TIP3    H1 8768   3.629   1.589   3.677
 2961TIP3    H2 8769   3.688   1.662   3.558
 2962TIP3   OH2 8770   4.583   2.092   2.913
 2962TIP3    H1 8771   4.567   2.028   2.983
 2962TIP3    H2 8772   4.599   2.174   2.960
 2963TIP3   OH2 8773   3.599   2.071   3.270
 2963TIP3    H1 8774   3.585   1.980   3.294
 2963TIP3    H2 8775   3.694   2.078   3.260
 2964TIP3   OH2 8776   3.424   1.554   3.198
 2964TIP3    H1 8777   3.434   1.490   3.269
 2964TIP3    H2 8778   3.467   1.633   3.231
 2965TIP3   OH2 8779   4.230   2.526   2.919
 2965TIP3    H1 8780   4.256   2.463   2.852
 2965TIP3    H2 8781   4.230   2.475   3.000
 2966TIP3   OH2 8782   4.113   1.999   3.254
 2966TIP3    H1 8783   4.161   1.922   3.226
 2966TIP3    H2 8784   4.181   2.062   3.279
 2967TIP3   OH2 8785   5.149   1.325   3.263
 2967TIP3    H1 8786   5.165   1.411   3.302
 2967TIP3    H2 8787   5.179   1.335   3.172
 2968TIP3   OH2 8788   4.528   1.474   3.278
 2968TIP3    H1 8789   4.577   1.396   3.302
 2968TIP3    H2 8790   4.487   1.452   3.194
 2969TIP3   OH2 8791   3.827   1.138   3.289
 2969TIP3    H1 8792   3.922   1.133   3.283
 2969TIP3    H2 8793   3.796   1.082   3.218
 2970TIP3   OH2 8794   4.573   1.262   2.878
 2970TIP3    H1 8795   4.642   1.261   2.944
 2970TIP3    H2 8796   4.617   1.294   2.799
 2971TIP3   OH2 8797   3.492   1.352   3.374
 2971TIP3    H1 8798   3.567   1.336   3.431
 2971TIP3    H2 8799   3.505   1.293   3.300
 2972TIP3   OH2 8800   3.927   1.567   3.202
 2972TIP3    H1 8801   4.021   1.548   3.196
 2972TIP3    H2 8802   3.885   1.490   3.162
 2973TIP3   OH2 8803   5.204   1.546   3.432
 2973TIP3    H1 8804   5.117   1.584   3.424
 2973TIP3    H2 8805   5.241   1.586   3.511
 2974TIP3   OH2 8806   3.852   1.119   3.724
 2974TIP3    H1 8807   3.807   1.154   3.647
 2974TIP3    H2 8808   3.798   1.147   3.798
 2975TIP3   OH2 8809   4.157   1.997   2.719
 2975TIP3    H1 8810   4.141   1.981   2.626
 2975TIP3    H2 8811   4.121   2.085   2.735
 2976TIP3   OH2 8812   3.965   1.924   3.477
 2976TIP3    H1 8813   3.907   1.995   3.503
 2976TIP3    H2 8814   4.013   1.958   3.402
 2977TIP3   OH2 8815   4.743   1.295   3.086
 2977TIP3    H1 8816   4.719   1.263   3.173
 2977TIP3    H2 8817   4.802   1.368   3.102
 2978TIP3   OH2 8818   3.721   1.252   3.510
 2978TIP3    H1 8819   3.772   1.329   3.533
 2978TIP3    H2 8820   3.761   1.219   3.430
 2979TIP3   OH2 8821   3.795   2.129   3.562
 2979TIP3    H1 8822   3.787   2.219   3.529
 2979TIP3    H2 8823   3.717   2.116   3.615
 2980TIP3   OH2 8824   3.173   1.841   2.843
 2980TIP3    H1 8825   3.142   1.851   2.753
 2980TIP3    H2 8826   3.193   1.930   2.872
 2981TIP3   OH2 8827   4.613   2.340   3.055
 2981TIP3    H1 8828   4.526   2.333   3.095
 2981TIP3    H2 8829   4.611   2.422   3.006
 2982TIP3   OH2 8830   4.945   1.217   3.431
 2982TIP3    H1 8831   4.858   1.234   3.393
 2982TIP3    H2 8832   5.006   1.245   3.363
 2983TIP3   OH2 8833   4.188   0.803   3.490
 2983TIP3    H1 8834   4.279   0.776   3.496
 2983TIP3    H2 8835   4.188   0.877   3.429
 2984TIP3   OH2 8836   4.316   2.366   2.709
 2984TIP3    H1 8837   4.365   2.285   2.699
 2984TIP3    H2 8838   4.377   2.435   2.684
 2985TIP3   OH2 8839   4.468   2.147   2.666
 2985TIP3    H1 8840   4.484   2.076   2.604
 2985TIP3    H2 8841   4.511   2.119   2.747
 2986TIP3   OH2 8842   4.831   2.234   3.402
 2986TIP3    H1 8843   4.818   2.158   3.345
 2986TIP3    H2 8844   4.818   2.310   3.345
 2987TIP3   OH2 8845   4.125   1.638   2.679
 2987TIP3    H1 8846   4.046   1.688   2.658
 2987TIP3    H2 8847   4.180   1.647   2.601
 2988TIP3   OH2 8848   4.131   1.454   2.375
 2988TIP3    H1 8849   4.184   1.512   2.430
 2988TIP3    H2 8850   4.195   1.396   2.333
 2989TIP3   OH2 8851   5.022   1.892   3.274
 2989TIP3    H1 8852   4.938   1.939   3.271
 2989TIP3    H2 8853   5.059   1.904   3.186
 2990TIP3   OH2 8854   4.501   1.745   2.648
 2990TIP3    H1 8855   4.446   1.766   2.724
 2990TIP3    H2 8856   4.583   1.712   2.687
 2991TIP3   OH2 8857   4.725   1.744   3.573
 2991TIP3    H1 8858   4.718   1.827   3.621
 2991TIP3    H2 8859   4.648   1.743   3.516
 2992TIP3   OH2 8860   3.723   1.694   3.065
 2992TIP3    H1 8861   3.704   1.619   3.009
 2992TIP3    H2 8862   3.804   1.670   3.110
 2993TIP3   OH2 8863   3.861   2.115   3.181
 2993TIP3    H1 8864   3.842   2.108   3.087
 2993TIP3    H2 8865   3.949   2.078   3.190
 2994TIP3   OH2 8866   3.820   1.697   3.420
 2994TIP3    H1 8867   3.862   1.661   3.342
 2994TIP3    H2 8868   3.871   1.775   3.441
 2995TIP3   OH2 8869   4.378   2.339   3.191
 2995TIP3    H1 8870   4.360   2.419   3.242
 2995TIP3    H2 8871   4.360   2.267   3.252
 2996TIP3   OH2 8872   4.006   2.214   3.726
 2996TIP3    H1 8873   3.944   2.271   3.771
 2996TIP3    H2 8874   3.953   2.163   3.665
 2997TIP3   OH2 8875   4.329   1.605   2.490
 2997TIP3    H1 8876   4.391   1.658   2.541
 2997TIP3    H2 8877   4.357   1.616   2.399
 2998TIP3   OH2 8878   3.734   1.799   3.908
 2998TIP3    H1 8879   3.729   1.892   3.931
 2998TIP3    H2 8880   3.644   1.775   3.885
 2999TIP3   OH2 8881   4.061   2.260   2.729
 2999TIP3    H1 8882   4.149   2.299   2.727
 2999TIP3    H2 8883   4.007   2.320   2.677
 3000TIP3   OH2 8884   3.800   2.363   3.808
 3000TIP3    H1 8885   3.769   2.393   3.723
 3000TIP3    H2 8886   3.730   2.386   3.869
 3001TIP3   OH2 8887   4.840   0.808   2.532
 3001TIP3    H1 8888   4.762   0.835   2.580
 3001TIP3    H2 8889   4.855   0.879   2.469
 3002TIP3   OH2 8890   3.505   1.497   2.870
 3002TIP3    H1 8891   3.484   1.559   2.800
 3002TIP3    H2 8892   3.563   1.433   2.829
 3003TIP3   OH2 8893   4.662   2.185   2.076
 3003TIP3    H1 8894   4.656   2.277   2.051
 3003TIP3    H2 8895   4.752   2.160   2.056
 3004TIP3   OH2 8896   3.377   1.965   3.785
 3004TIP3    H1 8897   3.307   1.946   3.724
 3004TIP3    H2 8898   3.407   1.879   3.815
 3005TIP3   OH2 8899   3.219   2.152   3.439
 3005TIP3    H1 8900   3.306   2.186   3.460
 3005TIP3    H2 8901   3.161   2.226   3.456
 3006TIP3   OH2 8902   5.065   2.579   3.471
 3006TIP3    H1 8903   5.065   2.484   3.481
 3006TIP3    H2 8904   4.985   2.608   3.515
 3007TIP3   OH2 8905   4.184   2.381   3.600
 3007TIP3    H1 8906   4.168   2.472   3.626
 3007TIP3    H2 8907   4.116   2.331   3.645
 3008TIP3   OH2 8908   3.958   2.471   2.555
 3008TIP3    H1 8909   3.919   2.455   2.469
 3008TIP3    H2 8910   3.921   2.554   2.583
 3009TIP3   OH2 8911   3.394   2.335   2.926
 3009TIP3    H1 8912   3.439   2.325   3.010
 3009TIP3    H2 8913   3.347   2.253   2.915
 3010TIP3   OH2 8914   4.161   2.417   2.181
 3010TIP3    H1 8915   4.219   2.347   2.148
 3010TIP3    H2 8916   4.192   2.432   2.270
 3011TIP3   OH2 8917   4.213   2.456   2.451
 3011TIP3    H1 8918   4.127   2.458   2.492
 3011TIP3    H2 8919   4.271   2.419   2.517
 3012TIP3   OH2 8920   4.953   1.708   3.740
 3012TIP3    H1 8921   4.878   1.716   3.681
 3012TIP3    H2 8922   4.977   1.615   3.736
 3013TIP3   OH2 8923   3.563   2.159   3.720
 3013TIP3    H1 8924   3.584   2.196   3.806
 3013TIP3    H2 8925   3.499   2.090   3.739
 3014TIP3   OH2 8926   3.915   0.911   3.482
 3014TIP3    H1 8927   3.823   0.931   3.470
 3014TIP3    H2 8928   3.961   0.974   3.427
 3015TIP3   OH2 8929   4.515   1.066   3.755
 3015TIP3    H1 8930   4.586   1.044   3.815
 3015TIP3    H2 8931   4.436   1.056   3.808
 3016TIP3   OH2 8932   4.716   1.478   3.667
 3016TIP3    H1 8933   4.677   1.474   3.754
 3016TIP3    H2 8934   4.703   1.568   3.639
 3017TIP3   OH2 8935   4.411   1.622   2.236
 3017TIP3    H1 8936   4.364   1.601   2.156
 3017TIP3    H2 8937   4.498   1.650   2.207
 3018TIP3   OH2 8938   4.121   0.972   2.541
 3018TIP3    H1 8939   4.084   0.980   2.629
 3018TIP3    H2 8940   4.075   0.898   2.502
 3019TIP3   OH2 8941   3.880   1.467   3.567
 3019TIP3    H1 8942   3.901   1.511   3.650
 3019TIP3    H2 8943   3.868   1.539   3.505
 3020TIP3   OH2 8944   3.752   1.384   3.068
 3020TIP3    H1 8945   3.692   1.328   3.117
 3020TIP3    H2 8946   3.772   1.335   2.989
 3021TIP3   OH2 8947   4.257   1.427   2.796
 3021TIP3    H1 8948   4.209   1.500   2.757
 3021TIP3    H2 8949   4.317   1.398   2.727
 3022TIP3   OH2 8950   4.456   1.696   3.896
 3022TIP3    H1 8951   4.425   1.626   3.953
 3022TIP3    H2 8952   4.550   1.702   3.914
 3023TIP3   OH2 8953   4.415   1.435   3.026
 3023TIP3    H1 8954   4.356   1.461   2.955
 3023TIP3    H2 8955   4.470   1.367   2.989
 3024TIP3   OH2 8956   3.686   1.481   3.810
 3024TIP3    H1 8957   3.771   1.519   3.834
 3024TIP3    H2 8958   3.688   1.393   3.848
 3025TIP3   OH2 8959   3.755   0.957   2.517
 3025TIP3    H1 8960   3.749   0.964   2.612
 3025TIP3    H2 8961   3.680   1.005   2.484
 3026TIP3   OH2 8962   3.361   1.006   3.323
 3026TIP3    H1 8963   3.403   1.044   3.401
 3026TIP3    H2 8964   3.430   0.955   3.281
 3027TIP3   OH2 8965   3.229   1.000   2.883
 3027TIP3    H1 8966   3.270   1.036   2.804
 3027TIP3    H2 8967   3.161   1.062   2.906
 3028TIP3   OH2 8968   4.485   1.694   3.433
 3028TIP3    H1 8969   4.507   1.620   3.377
 3028TIP3    H2 8970   4.443   1.655   3.510
 3029TIP3   OH2 8971   3.524   1.198   3.146
 3029TIP3    H1 8972   3.439   1.154   3.149
 3029TIP3    H2 8973   3.587   1.128   3.126
 3030TIP3   OH2 8974   3.792   1.238   2.836
 3030TIP3    H1 8975   3.887   1.246   2.832
 3030TIP3    H2 8976   3.762   1.260   2.748
 3031TIP3   OH2 8977   4.655   1.218   3.334
 3031TIP3    H1 8978   4.610   1.230   3.418
 3031TIP3    H2 8979   4.624   1.134   3.302
 3032TIP3   OH2 8980   3.679   1.294   2.592
 3032TIP3    H1 8981   3.620   1.236   2.544
 3032TIP3    H2 8982   3.745   1.319   2.527
 3033TIP3   OH2 8983   4.792   2.934   3.559
 3033TIP3    H1 8984   4.782   2.952   3.466
 3033TIP3    H2 8985   4.871   2.981   3.585
 3034TIP3   OH2 8986   3.707   2.056   4.038
 3034TIP3    H1 8987   3.795   2.075   4.071
 3034TIP3    H2 8988   3.671   2.141   4.015
 3035TIP3   OH2 8989   4.202   1.499   3.207
 3035TIP3    H1 8990   4.271   1.480   3.143
 3035TIP3    H2 8991   4.210   1.431   3.273
 3036TIP3   OH2 8992   3.684   0.974   3.107
 3036TIP3    H1 8993   3.661   0.893   3.153
 3036TIP3    H2 8994   3.709   0.945   3.019
 3037TIP3   OH2 8995   3.880   1.775   2.624
 3037TIP3    H1 8996   3.810   1.712   2.608
 3037TIP3    H2 8997   3.860   1.813   2.709
 3038TIP3   OH2 8998   4.787   2.030   3.223
 3038TIP3    H1 8999   4.826   2.078   3.150
 3038TIP3    H2 9000   4.709   1.988   3.186
 3039TIP3   OH2 9001   4.372   1.080   2.538
 3039TIP3    H1 9002   4.280   1.057   2.528
 3039TIP3    H2 9003   4.375   1.175   2.529
 3040TIP3   OH2 9004   4.303   2.114   3.625
 3040TIP3    H1 9005   4.356   2.110   3.705
 3040TIP3    H2 9006   4.258   2.199   3.631
 3041TIP3   OH2 9007   4.429   1.356   2.586
 3041TIP3    H1 9008   4.524   1.354   2.592
 3041TIP3    H2 9009   4.409   1.433   2.533
 3042TIP3   OH2 9010   3.576   1.766   3.289
 3042TIP3    H1 9011   3.622   1.762   3.205
 3042TIP3    H2 9012   3.643   1.747   3.354
 3043TIP3   OH2 9013   4.045   1.926   2.466
 3043TIP3    H1 9014   4.002   2.012   2.459
 3043TIP3    H2 9015   3.985   1.873   2.518
 3044TIP3   OH2 9016   3.457   1.725   3.902
 3044TIP3    H1 9017   3.455   1.683   3.988
 3044TIP3    H2 9018   3.400   1.671   3.847
 3045TIP3   OH2 9019   4.237   1.864   3.906
 3045TIP3    H1 9020   4.187   1.840   3.827
 3045TIP3    H2 9021   4.319   1.816   3.898
 3046TIP3   OH2 9022   4.457   2.402   3.533
 3046TIP3    H1 9023   4.362   2.394   3.541
 3046TIP3    H2 9024   4.484   2.444   3.614
 3047TIP3   OH2 9025   4.845   1.449   2.421
 3047TIP3    H1 9026   4.787   1.404   2.360
 3047TIP3    H2 9027   4.853   1.538   2.387
 3048TIP3   OH2 9028   5.074   2.293   3.506
 3048TIP3    H1 9029   4.982   2.279   3.483
 3048TIP3    H2 9030   5.122   2.272   3.425
 3049TIP3   OH2 9031   4.584   2.253   2.337
 3049TIP3    H1 9032   4.550   2.179   2.388
 3049TIP3    H2 9033   4.605   2.216   2.252
 3050TIP3   OH2 9034   4.561   1.893   3.117
 3050TIP3    H1 9035   4.469   1.873   3.134
 3050TIP3    H2 9036   4.597   1.812   3.081
 3051TIP3   OH2 9037   3.723   2.130   2.936
 3051TIP3    H1 9038   3.731   2.205   2.877
 3051TIP3    H2 9039   3.632   2.135   2.968
 3052TIP3   OH2 9040   3.275   1.421   2.665
 3052TIP3    H1 9041   3.305   1.512   2.665
 3052TIP3    H2 9042   3.193   1.423   2.714
 3053TIP3   OH2 9043   3.787   1.874   2.856
 3053TIP3    H1 9044   3.775   1.966   2.877
 3053TIP3    H2 9045   3.765   1.827   2.937
 3054TIP3   OH2 9046   4.001   2.448   3.386
 3054TIP3    H1 9047   4.032   2.524   3.337
 3054TIP3    H2 9048   4.077   2.419   3.436
 3055TIP3   OH2 9049   3.639   2.358   2.794
 3055TIP3    H1 9050   3.550   2.369   2.827
 3055TIP3    H2 9051   3.674   2.447   2.792
 3056TIP3   OH2 9052   4.347   2.115   3.355
 3056TIP3    H1 9053   4.333   2.111   3.450
 3056TIP3    H2 9054   4.422   2.057   3.339
 3057TIP3   OH2 9055   4.360   1.994   2.240
 3057TIP3    H1 9056   4.401   1.976   2.325
 3057TIP3    H2 9057   4.279   1.944   2.241
 3058TIP3   OH2 9058   4.605   2.611   3.400
 3058TIP3    H1 9059   4.533   2.551   3.418
 3058TIP3    H2 9060   4.574   2.666   3.329
 3059TIP3   OH2 9061   4.655   2.456   2.028
 3059TIP3    H1 9062   4.664   2.514   1.952
 3059TIP3    H2 9063   4.588   2.498   2.082
 3060TIP3   OH2 9064   3.678   1.217   3.918
 3060TIP3    H1 9065   3.584   1.233   3.924
 3060TIP3    H2 9066   3.701   1.176   4.002
 3061TIP3   OH2 9067   4.523   1.951   2.466
 3061TIP3    H1 9068   4.506   1.878   2.525
 3061TIP3    H2 9069   4.616   1.944   2.445
 3062TIP3   OH2 9070   3.424   2.348   3.544
 3062TIP3    H1 9071   3.482   2.291   3.595
 3062TIP3    H2 9072   3.439   2.435   3.580
 3063TIP3   OH2 9073   3.708   1.957   2.249
 3063TIP3    H1 9074   3.723   1.865   2.229
 3063TIP3    H2 9075   3.684   1.958   2.342
 3064TIP3   OH2 9076   3.648   1.963   2.521
 3064TIP3    H1 9077   3.725   1.933   2.570
 3064TIP3    H2 9078   3.646   2.058   2.534
 3065TIP3   OH2 9079   3.364   1.680   2.723
 3065TIP3    H1 9080   3.299   1.732   2.769
 3065TIP3    H2 9081   3.388   1.733   2.647
 3066TIP3   OH2 9082   4.546   1.276   3.578
 3066TIP3    H1 9083   4.610   1.338   3.613
 3066TIP3    H2 9084   4.536   1.211   3.648
 3067TIP3   OH2 9085   4.423   1.042   2.804
 3067TIP3    H1 9086   4.402   1.054   2.711
 3067TIP3    H2 9087   4.470   1.121   2.829
 3068TIP3   OH2 9088   3.908   2.160   2.455
 3068TIP3    H1 9089   3.826   2.183   2.500
 3068TIP3    H2 9090   3.929   2.237   2.403
 3069TIP3   OH2 9091   4.070   1.246   2.885
 3069TIP3    H1 9092   4.132   1.306   2.843
 3069TIP3    H2 9093   4.090   1.251   2.978
 3070TIP3   OH2 9094   4.384   1.575   3.656
 3070TIP3    H1 9095   4.407   1.614   3.740
 3070TIP3    H2 9096   4.405   1.482   3.666
 3071TIP3   OH2 9097   4.249   0.921   2.976
 3071TIP3    H1 9098   4.261   0.975   3.054
 3071TIP3    H2 9099   4.310   0.957   2.912
 3072TIP3   OH2 9100   3.660   2.231   2.553
 3072TIP3    H1 9101   3.636   2.295   2.486
 3072TIP3    H2 9102   3.651   2.278   2.636
 3073TIP3   OH2 9103   3.753   0.962   2.802
 3073TIP3    H1 9104   3.747   1.055   2.821
 3073TIP3    H2 9105   3.847   0.944   2.801
 3074TIP3   OH2 9106   4.986   1.434   3.654
 3074TIP3    H1 9107   4.891   1.436   3.665
 3074TIP3    H2 9108   4.999   1.386   3.572
 3075TIP3   OH2 9109   4.653   1.634   3.036
 3075TIP3    H1 9110   4.579   1.577   3.055
 3075TIP3    H2 9111   4.725   1.598   3.088
 3076TIP3   OH2 9112   3.394   1.856   2.511
 3076TIP3    H1 9113   3.468   1.916   2.522
 3076TIP3    H2 9114   3.422   1.795   2.443
 3077TIP3   OH2 9115   3.296   1.143   2.662
 3077TIP3    H1 9116   3.304   1.238   2.663
 3077TIP3    H2 9117   3.255   1.123   2.578
 3078TIP3   OH2 9118   4.631   2.607   2.973
 3078TIP3    H1 9119   4.588   2.657   2.904
 3078TIP3    H2 9120   4.725   2.619   2.956
 3079TIP3   OH2 9121   3.648   0.833   3.521
 3079TIP3    H1 9122   3.631   0.802   3.432
 3079TIP3    H2 9123   3.677   0.754   3.568
 3080TIP3   OH2 9124   3.216   2.109   2.912
 3080TIP3    H1 9125   3.180   2.152   2.990
 3080TIP3    H2 9126   3.173   2.153   2.838
 3081TIP3   OH2 9127   3.421   2.629   4.001
 3081TIP3    H1 9128   3.502   2.617   4.051
 3081TIP3    H2 9129   3.380   2.543   4.001
 3082TIP3   OH2 9130   3.834   2.176   2.146
 3082TIP3    H1 9131   3.792   2.101   2.189
 3082TIP3    H2 9132   3.919   2.142   2.117
 3083TIP3   OH2 9133   4.544   2.506   3.775
 3083TIP3    H1 9134   4.542   2.428   3.831
 3083TIP3    H2 9135   4.625   2.551   3.801
 3084TIP3   OH2 9136   4.313   2.214   2.078
 3084TIP3    H1 9137   4.349   2.146   2.136
 3084TIP3    H2 9138   4.367   2.209   2.000
 3085TIP3   OH2 9139   3.498   2.015   4.222
 3085TIP3    H1 9140   3.577   2.027   4.169
 3085TIP3    H2 9141   3.426   2.044   4.166
 3086TIP3   OH2 9142   3.518   1.657   2.371
 3086TIP3    H1 9143   3.569   1.632   2.448
 3086TIP3    H2 9144   3.583   1.669   2.302
 3087TIP3   OH2 9145   4.148   2.124   3.944
 3087TIP3    H1 9146   4.104   2.147   3.861
 3087TIP3    H2 9147   4.183   2.037   3.929
 3088TIP3   OH2 9148   4.112   1.870   2.207
 3088TIP3    H1 9149   4.082   1.879   2.297
 3088TIP3    H2 9150   4.084   1.783   2.181
 3089TIP3   OH2 9151   4.625   2.179   3.576
 3089TIP3    H1 9152   4.698   2.199   3.518
 3089TIP3    H2 9153   4.558   2.245   3.556
 3090TIP3   OH2 9154   3.696   1.725   4.178
 3090TIP3    H1 9155   3.720   1.735   4.086
 3090TIP3    H2 9156   3.687   1.815   4.210
 3091TIP3   OH2 9157   3.696   1.571   2.568
 3091TIP3    H1 9158   3.663   1.488   2.603
 3091TIP3    H2 9159   3.765   1.546   2.506
 3092TIP3   OH2 9160   3.931   1.631   3.797
 3092TIP3    H1 9161   3.871   1.694   3.837
 3092TIP3    H2 9162   3.998   1.685   3.754
 3093TIP3   OH2 9163   3.857   1.412   2.415
 3093TIP3    H1 9164   3.826   1.413   2.324
 3093TIP3    H2 9165   3.952   1.419   2.408
 3094TIP3   OH2 9166   4.553   2.038   3.935
 3094TIP3    H1 9167   4.611   2.001   3.868
 3094TIP3    H2 9168   4.537   1.966   3.995
 3095TIP3   OH2 9169   4.637   1.706   2.102
 3095TIP3    H1 9170   4.621   1.657   2.021
 3095TIP3    H2 9171   4.611   1.796   2.080
 3096TIP3   OH2 9172   4.098   1.437   3.914
 3096TIP3    H1 9173   4.108   1.365   3.851
 3096TIP3    H2 9174   4.049   1.503   3.866
 3097TIP3   OH2 9175   4.108   1.224   3.712
 3097TIP3    H1 9176   4.130   1.234   3.619
 3097TIP3    H2 9177   4.017   1.195   3.711
 3098TIP3   OH2 9178   4.120   1.782   3.665
 3098TIP3    H1 9179   4.196   1.749   3.617
 3098TIP3    H2 9180   4.075   1.839   3.602
 3099TIP3   OH2 9181   4.731   1.712   3.976
 3099TIP3    H1 9182   4.769   1.627   3.998
 3099TIP3    H2 9183   4.796   1.754   3.920
 3100TIP3   OH2 9184   4.735   1.978   3.724
 3100TIP3    H1 9185   4.687   2.046   3.676
 3100TIP3    H2 9186   4.826   2.004   3.720
 3101TIP3   OH2 9187   3.993   1.513   4.172
 3101TIP3    H1 9188   3.920   1.452   4.186
 3101TIP3    H2 9189   4.019   1.498   4.081
 3102TIP3   OH2 9190   4.250   1.026   3.841
 3102TIP3    H1 9191   4.207   1.101   3.801
 3102TIP3    H2 9192   4.208   0.949   3.802
 3103TIP3   OH2 9193   4.353   1.478   4.031
 3103TIP3    H1 9194   4.337   1.463   4.124
 3103TIP3    H2 9195   4.268   1.461   3.989
 3104TIP3   OH2 9196   4.603   1.433   3.909
 3104TIP3    H1 9197   4.525   1.432   3.963
 3104TIP3    H2 9198   4.675   1.412   3.969
 3105TIP3   OH2 9199   4.838   1.408   4.061
 3105TIP3    H1 9200   4.857   1.314   4.064
 3105TIP3    H2 9201   4.837   1.435   4.153
 3106TIP3   OH2 9202   3.820   1.303   4.245
 3106TIP3    H1 9203   3.825   1.215   4.206
 3106TIP3    H2 9204   3.862   1.293   4.330
 3107TIP3   OH2 9205   4.303   0.988   4.107
 3107TIP3    H1 9206   4.373   0.923   4.100
 3107TIP3    H2 9207   4.279   1.006   4.016
 3108TIP3   OH2 9208   4.404   1.202   4.247
 3108TIP3    H1 9209   4.372   1.129   4.195
 3108TIP3    H2 9210   4.331   1.265   4.247
 3109TIP3   OH2 9211   3.630   2.405   2.347
 3109TIP3    H1 9212   3.721   2.424   2.323
 3109TIP3    H2 9213   3.579   2.466   2.294
 3110TIP3   OH2 9214   3.124   1.833   2.573
 3110TIP3    H1 9215   3.207   1.864   2.540
 3110TIP3    H2 9216   3.108   1.751   2.525
 3111TIP3   OH2 9217   3.025   2.418   2.992
 3111TIP3    H1 9218   2.960   2.365   2.946
 3111TIP3    H2 9219   3.069   2.356   3.051
 3112TIP3   OH2 9220   3.169   2.247   3.159
 3112TIP3    H1 9221   3.161   2.183   3.230
 3112TIP3    H2 9222   3.220   2.318   3.197
 3113TIP3   OH2 9223   4.904   2.655   2.963
 3113TIP3    H1 9224   4.923   2.692   3.049
 3113TIP3    H2 9225   4.960   2.705   2.903
 3114TIP3   OH2 9226   4.915   2.696   3.246
 3114TIP3    H1 9227   4.869   2.612   3.238
 3114TIP3    H2 9228   4.989   2.677   3.304
 3115TIP3   OH2 9229   4.970   2.394   3.879
 3115TIP3    H1 9230   4.974   2.328   3.810
 3115TIP3    H2 9231   5.027   2.464   3.848
 3116TIP3   OH2 9232   4.795   1.915   2.433
 3116TIP3    H1 9233   4.854   1.982   2.399
 3116TIP3    H2 9234   4.843   1.874   2.505
 3117TIP3   OH2 9235   4.926   1.766   2.628
 3117TIP3    H1 9236   4.859   1.726   2.684
 3117TIP3    H2 9237   4.991   1.800   2.690
 3118TIP3   OH2 9238   4.980   2.167   3.070
 3118TIP3    H1 9239   5.028   2.098   3.026
 3118TIP3    H2 9240   4.979   2.240   3.008
 3119TIP3   OH2 9241   4.777   2.454   3.248
 3119TIP3    H1 9242   4.709   2.499   3.297
 3119TIP3    H2 9243   4.732   2.414   3.175
 3120TIP3   OH2 9244   4.839   1.687   2.283
 3120TIP3    H1 9245   4.771   1.683   2.217
 3120TIP3    H2 9246   4.820   1.765   2.334
 3121TIP3   OH2 9247   4.687   1.339   2.236
 3121TIP3    H1 9248   4.628   1.367   2.166
 3121TIP3    H2 9249   4.682   1.244   2.235
 3122TIP3   OH2 9250   4.724   1.626   2.767
 3122TIP3    H1 9251   4.728   1.532   2.748
 3122TIP3    H2 9252   4.706   1.631   2.860
 3123TIP3   OH2 9253   3.364   1.719   3.509
 3123TIP3    H1 9254   3.389   1.743   3.420
 3123TIP3    H2 9255   3.447   1.695   3.551
 3124TIP3   OH2 9256   4.998   2.066   3.677
 3124TIP3    H1 9257   5.063   1.997   3.668
 3124TIP3    H2 9258   5.023   2.132   3.611
 3125TIP3   OH2 9259   5.170   1.846   3.644
 3125TIP3    H1 9260   5.094   1.796   3.672
 3125TIP3    H2 9261   5.244   1.787   3.657
 3126TIP3   OH2 9262   4.653   1.072   2.222
 3126TIP3    H1 9263   4.724   1.024   2.264
 3126TIP3    H2 9264   4.575   1.019   2.239
 3127TIP3   OH2 9265   4.717   1.351   2.651
 3127TIP3    H1 9266   4.763   1.268   2.665
 3127TIP3    H2 9267   4.759   1.391   2.576
 3128TIP3   OH2 9268   4.875   1.523   3.170
 3128TIP3    H1 9269   4.956   1.542   3.123
 3128TIP3    H2 9270   4.890   1.557   3.258
 3129TIP3   OH2 9271   4.948   1.662   3.405
 3129TIP3    H1 9272   4.871   1.688   3.456
 3129TIP3    H2 9273   4.976   1.741   3.360
 3130TIP3   OH2 9274   3.553   1.364   4.180
 3130TIP3    H1 9275   3.647   1.368   4.202
 3130TIP3    H2 9276   3.523   1.284   4.222
 3131TIP3   OH2 9277   5.398   1.263   3.935
 3131TIP3    H1 9278   5.465   1.208   3.895
 3131TIP3    H2 9279   5.361   1.313   3.862
 3132TIP3   OH2 9280   4.833   1.104   2.706
 3132TIP3    H1 9281   4.877   1.085   2.789
 3132TIP3    H2 9282   4.771   1.032   2.695
 3133TIP3   OH2 9283   3.510   1.070   3.547
 3133TIP3    H1 9284   3.559   0.988   3.552
 3133TIP3    H2 9285   3.577   1.138   3.545
 3134TIP3   OH2 9286   3.311   1.341   3.592
 3134TIP3    H1 9287   3.363   1.339   3.512
 3134TIP3    H2 9288   3.339   1.421   3.637
 3135TIP3   OH2 9289   5.245   1.374   3.733
 3135TIP3    H1 9290   5.157   1.411   3.736
 3135TIP3    H2 9291   5.235   1.292   3.685
 3136TIP3   OH2 9292   4.897   0.993   2.340
 3136TIP3    H1 9293   4.950   0.936   2.284
 3136TIP3    H2 9294   4.943   1.077   2.340
 3137TIP3   OH2 9295   3.324   0.841   3.081
 3137TIP3    H1 9296   3.265   0.865   3.153
 3137TIP3    H2 9297   3.300   0.900   3.010
 3138TIP3   OH2 9298   4.471   2.563   2.613
 3138TIP3    H1 9299   4.525   2.555   2.534
 3138TIP3    H2 9300   4.505   2.640   2.658
 3139TIP3   OH2 9301   3.527   0.896   3.908
 3139TIP3    H1 9302   3.483   0.896   3.993
 3139TIP3    H2 9303   3.476   0.956   3.854
 3140TIP3   OH2 9304   3.577   2.301   3.984
 3140TIP3    H1 9305   3.484   2.325   3.987
 3140TIP3    H2 9306   3.620   2.367   4.039
 3141TIP3   OH2 9307   3.770   2.408   3.529
 3141TIP3    H1 9308   3.719   2.484   3.501
 3141TIP3    H2 9309   3.855   2.419   3.486
 3142TIP3   OH2 9310   4.161   2.646   3.676
 3142TIP3    H1 9311   4.203   2.633   3.761
 3142TIP3    H2 9312   4.221   2.703   3.628
 3143TIP3   OH2 9313   4.351   2.804   3.553
 3143TIP3    H1 9314   4.410   2.757   3.493
 3143TIP3    H2 9315   4.410   2.858   3.606
 3144TIP3   OH2 9316   5.166   1.125   3.633
 3144TIP3    H1 9317   5.080   1.120   3.592
 3144TIP3    H2 9318   5.200   1.036   3.628
 3145TIP3   OH2 9319   3.434   2.640   3.597
 3145TIP3    H1 9320   3.345   2.663   3.572
 3145TIP3    H2 9321   3.457   2.702   3.666
 3146TIP3   OH2 9322   3.661   2.644   3.436
 3146TIP3    H1 9323   3.578   2.648   3.485
 3146TIP3    H2 9324   3.637   2.670   3.347
 3147TIP3   OH2 9325   4.074   2.663   3.228
 3147TIP3    H1 9326   4.004   2.673   3.163
 3147TIP3    H2 9327   4.083   2.751   3.267
 3148TIP3   OH2 9328   4.336   2.599   3.284
 3148TIP3    H1 9329   4.245   2.618   3.261
 3148TIP3    H2 9330   4.387   2.661   3.232
 3149TIP3   OH2 9331   4.537   2.765   3.177
 3149TIP3    H1 9332   4.536   2.853   3.139
 3149TIP3    H2 9333   4.567   2.708   3.106
 3150TIP3   OH2 9334   3.338   2.431   3.293
 3150TIP3    H1 9335   3.362   2.409   3.383
 3150TIP3    H2 9336   3.411   2.399   3.240
 3151TIP3   OH2 9337   3.543   2.313   3.158
 3151TIP3    H1 9338   3.555   2.230   3.203
 3151TIP3    H2 9339   3.629   2.355   3.162
 3152TIP3   OH2 9340   3.811   2.395   3.186
 3152TIP3    H1 9341   3.832   2.303   3.172
 3152TIP3    H2 9342   3.867   2.422   3.259
 3153TIP3   OH2 9343   4.891   0.970   3.175
 3153TIP3    H1 9344   4.922   1.015   3.096
 3153TIP3    H2 9345   4.797   0.989   3.178
 3154TIP3   OH2 9346   4.987   1.041   2.929
 3154TIP3    H1 9347   5.055   0.981   2.897
 3154TIP3    H2 9348   5.025   1.128   2.918
 3155TIP3   OH2 9349   3.604   0.750   3.260
 3155TIP3    H1 9350   3.517   0.710   3.268
 3155TIP3    H2 9351   3.664   0.676   3.255
 3156TIP3   OH2 9352   3.418   0.644   2.911
 3156TIP3    H1 9353   3.458   0.692   2.839
 3156TIP3    H2 9354   3.391   0.712   2.973
 3157TIP3   OH2 9355   4.060   0.812   3.156
 3157TIP3    H1 9356   4.118   0.830   3.081
 3157TIP3    H2 9357   4.072   0.887   3.214
 3158TIP3   OH2 9358   4.610   0.969   3.200
 3158TIP3    H1 9359   4.585   0.955   3.109
 3158TIP3    H2 9360   4.607   0.882   3.240
 3159TIP3   OH2 9361   4.648   0.896   2.712
 3159TIP3    H1 9362   4.566   0.942   2.731
 3159TIP3    H2 9363   4.639   0.811   2.755
 3160TIP3   OH2 9364   3.101   2.237   2.697
 3160TIP3    H1 9365   3.018   2.208   2.660
 3160TIP3    H2 9366   3.113   2.326   2.665
 3161TIP3   OH2 9367   3.552   0.786   2.710
 3161TIP3    H1 9368   3.597   0.728   2.649
 3161TIP3    H2 9369   3.621   0.842   2.746
 3162TIP3   OH2 9370   4.029   0.986   2.805
 3162TIP3    H1 9371   4.094   0.937   2.856
 3162TIP3    H2 9372   4.045   1.078   2.827
 3163TIP3   OH2 9373   3.905   2.395   2.289
 3163TIP3    H1 9374   3.987   2.421   2.247
 3163TIP3    H2 9375   3.870   2.327   2.232
 3164TIP3   OH2 9376   4.616   2.522   2.379
 3164TIP3    H1 9377   4.609   2.427   2.371
 3164TIP3    H2 9378   4.573   2.556   2.300
 3165TIP3   OH2 9379   3.836   1.033   4.151
 3165TIP3    H1 9380   3.803   0.969   4.214
 3165TIP3    H2 9381   3.929   1.043   4.174
 3166TIP3   OH2 9382   4.083   1.040   4.275
 3166TIP3    H1 9383   4.163   1.019   4.226
 3166TIP3    H2 9384   4.079   0.972   4.342
 3167TIP3   OH2 9385   3.178   2.160   2.375
 3167TIP3    H1 9386   3.175   2.212   2.456
 3167TIP3    H2 9387   3.267   2.172   2.342
 3168TIP3   OH2 9388   4.910   1.137   4.064
 3168TIP3    H1 9389   4.928   1.108   4.154
 3168TIP3    H2 9390   4.995   1.131   4.020
 3169TIP3   OH2 9391   4.815   2.660   3.575
 3169TIP3    H1 9392   4.745   2.630   3.516
 3169TIP3    H2 9393   4.811   2.755   3.570
 3170TIP3   OH2 9394   6.105   2.050   2.307
 3170TIP3    H1 9395   6.070   2.136   2.286
 3170TIP3    H2 9396   6.035   1.989   2.282
 3171TIP3   OH2 9397   6.103   2.043   2.734
 3171TIP3    H1 9398   6.159   2.024   2.809
 3171TIP3    H2 9399   6.060   1.961   2.714
 3172TIP3   OH2 9400   5.400   1.904   3.081
 3172TIP3    H1 9401   5.438   1.848   3.148
 3172TIP3    H2 9402   5.473   1.927   3.024
 3173TIP3   OH2 9403   6.375   2.352   2.403
 3173TIP3    H1 9404   6.360   2.285   2.469
 3173TIP3    H2 9405   6.392   2.432   2.452
 3174TIP3   OH2 9406   5.395   2.334   2.766
 3174TIP3    H1 9407   5.376   2.241   2.769
 3174TIP3    H2 9408   5.490   2.340   2.753
 3175TIP3   OH2 9409   5.079   1.539   2.553
 3175TIP3    H1 9410   5.039   1.624   2.573
 3175TIP3    H2 9411   5.010   1.489   2.510
 3176TIP3   OH2 9412   5.155   1.845   2.773
 3176TIP3    H1 9413   5.206   1.768   2.795
 3176TIP3    H2 9414   5.219   1.909   2.742
 3177TIP3   OH2 9415   6.036   2.773   2.419
 3177TIP3    H1 9416   6.057   2.710   2.349
 3177TIP3    H2 9417   6.044   2.722   2.500
 3178TIP3   OH2 9418   5.908   2.262   2.737
 3178TIP3    H1 9419   5.955   2.184   2.708
 3178TIP3    H2 9420   5.977   2.321   2.767
 3179TIP3   OH2 9421   6.947   1.583   2.753
 3179TIP3    H1 9422   6.962   1.668   2.795
 3179TIP3    H2 9423   6.968   1.597   2.661
 3180TIP3   OH2 9424   6.315   1.750   2.771
 3180TIP3    H1 9425   6.349   1.665   2.798
 3180TIP3    H2 9426   6.278   1.735   2.684
 3181TIP3   OH2 9427   5.671   1.406   2.727
 3181TIP3    H1 9428   5.651   1.480   2.670
 3181TIP3    H2 9429   5.617   1.334   2.694
 3182TIP3   OH2 9430   6.368   1.515   2.368
 3182TIP3    H1 9431   6.432   1.508   2.439
 3182TIP3    H2 9432   6.418   1.546   2.293
 3183TIP3   OH2 9433   5.298   1.623   2.859
 3183TIP3    H1 9434   5.382   1.604   2.901
 3183TIP3    H2 9435   5.300   1.573   2.778
 3184TIP3   OH2 9436   5.713   1.825   2.681
 3184TIP3    H1 9437   5.808   1.810   2.684
 3184TIP3    H2 9438   5.678   1.743   2.645
 3185TIP3   OH2 9439   7.000   1.806   2.916
 3185TIP3    H1 9440   6.911   1.841   2.911
 3185TIP3    H2 9441   7.035   1.842   2.998
 3186TIP3   OH2 9442   5.652   1.416   3.181
 3186TIP3    H1 9443   5.603   1.450   3.107
 3186TIP3    H2 9444   5.596   1.432   3.257
 3187TIP3   OH2 9445   5.972   2.259   2.190
 3187TIP3    H1 9446   5.944   2.239   2.100
 3187TIP3    H2 9447   5.930   2.343   2.210
 3188TIP3   OH2 9448   5.747   2.187   2.950
 3188TIP3    H1 9449   5.694   2.260   2.981
 3188TIP3    H2 9450   5.796   2.223   2.876
 3189TIP3   OH2 9451   6.525   1.538   2.590
 3189TIP3    H1 9452   6.485   1.512   2.674
 3189TIP3    H2 9453   6.581   1.612   2.612
 3190TIP3   OH2 9454   5.544   1.518   2.948
 3190TIP3    H1 9455   5.600   1.593   2.969
 3190TIP3    H2 9456   5.589   1.474   2.876
 3191TIP3   OH2 9457   5.593   2.395   3.052
 3191TIP3    H1 9458   5.579   2.483   3.019
 3191TIP3    H2 9459   5.514   2.376   3.103
 3192TIP3   OH2 9460   4.967   2.098   2.310
 3192TIP3    H1 9461   4.935   2.113   2.221
 3192TIP3    H2 9462   4.989   2.185   2.342
 3193TIP3   OH2 9463   6.403   2.600   2.546
 3193TIP3    H1 9464   6.315   2.593   2.583
 3193TIP3    H2 9465   6.402   2.683   2.499
 3194TIP3   OH2 9466   6.749   1.474   2.924
 3194TIP3    H1 9467   6.663   1.488   2.884
 3194TIP3    H2 9468   6.811   1.500   2.856
 3195TIP3   OH2 9469   5.995   1.107   2.916
 3195TIP3    H1 9470   5.986   1.014   2.939
 3195TIP3    H2 9471   5.917   1.148   2.952
 3196TIP3   OH2 9472   6.113   2.626   2.195
 3196TIP3    H1 9473   6.165   2.546   2.185
 3196TIP3    H2 9474   6.172   2.697   2.169
 3197TIP3   OH2 9475   6.272   2.411   2.151
 3197TIP3    H1 9476   6.271   2.332   2.097
 3197TIP3    H2 9477   6.310   2.383   2.235
 3198TIP3   OH2 9478   6.638   2.488   2.887
 3198TIP3    H1 9479   6.621   2.413   2.830
 3198TIP3    H2 9480   6.624   2.564   2.831
 3199TIP3   OH2 9481   5.928   1.889   2.161
 3199TIP3    H1 9482   5.846   1.935   2.142
 3199TIP3    H2 9483   5.975   1.888   2.078
 3200TIP3   OH2 9484   5.905   1.700   1.843
 3200TIP3    H1 9485   5.968   1.750   1.895
 3200TIP3    H2 9486   5.958   1.635   1.797
 3201TIP3   OH2 9487   6.820   2.148   2.759
 3201TIP3    H1 9488   6.736   2.193   2.757
 3201TIP3    H2 9489   6.856   2.161   2.671
 3202TIP3   OH2 9490   6.291   1.985   2.118
 3202TIP3    H1 9491   6.236   2.010   2.192
 3202TIP3    H2 9492   6.373   1.956   2.158
 3203TIP3   OH2 9493   6.520   2.006   3.069
 3203TIP3    H1 9494   6.516   2.091   3.114
 3203TIP3    H2 9495   6.439   2.002   3.018
 3204TIP3   OH2 9496   5.513   1.956   2.526
 3204TIP3    H1 9497   5.477   1.896   2.460
 3204TIP3    H2 9498   5.587   1.908   2.564
 3205TIP3   OH2 9499   5.655   2.381   2.666
 3205TIP3    H1 9500   5.631   2.368   2.575
 3205TIP3    H2 9501   5.742   2.342   2.674
 3206TIP3   OH2 9502   5.611   1.953   2.902
 3206TIP3    H1 9503   5.649   1.917   2.822
 3206TIP3    H2 9504   5.660   2.034   2.917
 3207TIP3   OH2 9505   6.162   2.596   2.674
 3207TIP3    H1 9506   6.153   2.676   2.726
 3207TIP3    H2 9507   6.148   2.525   2.737
 3208TIP3   OH2 9508   5.789   2.492   3.223
 3208TIP3    H1 9509   5.727   2.548   3.270
 3208TIP3    H2 9510   5.735   2.441   3.163
 3209TIP3   OH2 9511   6.118   1.847   1.955
 3209TIP3    H1 9512   6.178   1.904   2.003
 3209TIP3    H2 9513   6.147   1.854   1.864
 3210TIP3   OH2 9514   5.536   2.038   3.379
 3210TIP3    H1 9515   5.536   2.133   3.388
 3210TIP3    H2 9516   5.444   2.015   3.367
 3211TIP3   OH2 9517   5.860   2.515   2.211
 3211TIP3    H1 9518   5.947   2.557   2.212
 3211TIP3    H2 9519   5.806   2.575   2.159
 3212TIP3   OH2 9520   5.574   2.647   3.308
 3212TIP3    H1 9521   5.554   2.659   3.216
 3212TIP3    H2 9522   5.488   2.635   3.350
 3213TIP3   OH2 9523   6.635   1.065   2.016
 3213TIP3    H1 9524   6.548   1.074   2.055
 3213TIP3    H2 9525   6.644   1.142   1.960
 3214TIP3   OH2 9526   5.390   1.797   2.325
 3214TIP3    H1 9527   5.313   1.845   2.295
 3214TIP3    H2 9528   5.360   1.707   2.333
 3215TIP3   OH2 9529   6.451   2.445   1.565
 3215TIP3    H1 9530   6.447   2.538   1.543
 3215TIP3    H2 9531   6.540   2.419   1.542
 3216TIP3   OH2 9532   5.177   2.210   3.267
 3216TIP3    H1 9533   5.109   2.194   3.202
 3216TIP3    H2 9534   5.209   2.123   3.290
 3217TIP3   OH2 9535   5.017   2.400   2.915
 3217TIP3    H1 9536   5.108   2.425   2.926
 3217TIP3    H2 9537   4.967   2.478   2.941
 3218TIP3   OH2 9538   6.872   2.846   2.960
 3218TIP3    H1 9539   6.876   2.751   2.975
 3218TIP3    H2 9540   6.793   2.874   3.007
 3219TIP3   OH2 9541   5.979   2.637   3.086
 3219TIP3    H1 9542   5.970   2.727   3.115
 3219TIP3    H2 9543   5.912   2.589   3.135
 3220TIP3   OH2 9544   5.757   2.732   2.037
 3220TIP3    H1 9545   5.712   2.710   1.955
 3220TIP3    H2 9546   5.718   2.814   2.065
 3221TIP3   OH2 9547   5.192   2.589   2.415
 3221TIP3    H1 9548   5.236   2.580   2.500
 3221TIP3    H2 9549   5.142   2.508   2.405
 3222TIP3   OH2 9550   5.960   2.666   1.664
 3222TIP3    H1 9551   6.010   2.591   1.630
 3222TIP3    H2 9552   5.995   2.679   1.753
 3223TIP3   OH2 9553   6.011   2.709   1.934
 3223TIP3    H1 9554   5.924   2.712   1.974
 3223TIP3    H2 9555   6.067   2.669   2.001
 3224TIP3   OH2 9556   6.764   1.962   3.226
 3224TIP3    H1 9557   6.681   1.973   3.180
 3224TIP3    H2 9558   6.782   1.868   3.219
 3225TIP3   OH2 9559   5.376   2.396   3.225
 3225TIP3    H1 9560   5.428   2.382   3.304
 3225TIP3    H2 9561   5.303   2.335   3.233
 3226TIP3   OH2 9562   5.756   1.198   3.038
 3226TIP3    H1 9563   5.672   1.165   3.004
 3226TIP3    H2 9564   5.733   1.280   3.083
 3227TIP3   OH2 9565   6.298   1.323   3.240
 3227TIP3    H1 9566   6.368   1.297   3.300
 3227TIP3    H2 9567   6.217   1.305   3.289
 3228TIP3   OH2 9568   6.517   1.740   3.156
 3228TIP3    H1 9569   6.480   1.737   3.244
 3228TIP3    H2 9570   6.505   1.830   3.128
 3229TIP3   OH2 9571   6.201   1.849   1.697
 3229TIP3    H1 9572   6.153   1.835   1.616
 3229TIP3    H2 9573   6.285   1.885   1.669
 3230TIP3   OH2 9574   5.898   1.247   2.004
 3230TIP3    H1 9575   5.864   1.252   2.093
 3230TIP3    H2 9576   5.871   1.160   1.973
 3231TIP3   OH2 9577   5.696   1.730   3.044
 3231TIP3    H1 9578   5.652   1.736   3.128
 3231TIP3    H2 9579   5.672   1.811   2.998
 3232TIP3   OH2 9580   5.575   1.611   2.571
 3232TIP3    H1 9581   5.486   1.585   2.595
 3232TIP3    H2 9582   5.585   1.581   2.481
 3233TIP3   OH2 9583   6.051   1.687   2.300
 3233TIP3    H1 9584   6.002   1.758   2.259
 3233TIP3    H2 9585   6.110   1.656   2.231
 3234TIP3   OH2 9586   6.245   1.951   3.369
 3234TIP3    H1 9587   6.218   1.883   3.430
 3234TIP3    H2 9588   6.338   1.966   3.388
 3235TIP3   OH2 9589   6.221   1.699   2.520
 3235TIP3    H1 9590   6.153   1.719   2.456
 3235TIP3    H2 9591   6.269   1.626   2.481
 3236TIP3   OH2 9592   5.531   1.739   3.266
 3236TIP3    H1 9593   5.571   1.796   3.331
 3236TIP3    H2 9594   5.512   1.658   3.312
 3237TIP3   OH2 9595   5.571   1.225   1.990
 3237TIP3    H1 9596   5.558   1.228   2.085
 3237TIP3    H2 9597   5.497   1.274   1.954
 3238TIP3   OH2 9598   5.116   1.266   2.859
 3238TIP3    H1 9599   5.192   1.303   2.903
 3238TIP3    H2 9600   5.145   1.251   2.769
 3239TIP3   OH2 9601   5.024   1.242   2.355
 3239TIP3    H1 9602   5.071   1.278   2.280
 3239TIP3    H2 9603   4.960   1.309   2.378
 3240TIP3   OH2 9604   6.270   1.952   2.945
 3240TIP3    H1 9605   6.294   1.885   2.881
 3240TIP3    H2 9606   6.224   1.903   3.014
 3241TIP3   OH2 9607   5.943   1.396   2.620
 3241TIP3    H1 9608   5.865   1.394   2.676
 3241TIP3    H2 9609   6.016   1.388   2.681
 3242TIP3   OH2 9610   5.338   1.482   2.629
 3242TIP3    H1 9611   5.250   1.489   2.591
 3242TIP3    H2 9612   5.366   1.393   2.609
 3243TIP3   OH2 9613   5.590   1.493   2.324
 3243TIP3    H1 9614   5.685   1.500   2.314
 3243TIP3    H2 9615   5.555   1.511   2.237
 3244TIP3   OH2 9616   6.386   1.489   2.832
 3244TIP3    H1 9617   6.364   1.507   2.923
 3244TIP3    H2 9618   6.319   1.427   2.803
 3245TIP3   OH2 9619   5.480   1.523   2.076
 3245TIP3    H1 9620   5.416   1.474   2.024
 3245TIP3    H2 9621   5.537   1.565   2.011
 3246TIP3   OH2 9622   6.586   3.195   3.051
 3246TIP3    H1 9623   6.586   3.209   2.957
 3246TIP3    H2 9624   6.664   3.241   3.082
 3247TIP3   OH2 9625   5.521   2.308   3.460
 3247TIP3    H1 9626   5.603   2.326   3.505
 3247TIP3    H2 9627   5.454   2.315   3.528
 3248TIP3   OH2 9628   5.989   1.774   2.725
 3248TIP3    H1 9629   6.053   1.726   2.673
 3248TIP3    H2 9630   5.988   1.728   2.810
 3249TIP3   OH2 9631   5.479   1.235   2.606
 3249TIP3    H1 9632   5.450   1.160   2.658
 3249TIP3    H2 9633   5.496   1.199   2.519
 3250TIP3   OH2 9634   5.961   1.670   2.989
 3250TIP3    H1 9635   5.874   1.701   3.012
 3250TIP3    H2 9636   6.020   1.723   3.043
 3251TIP3   OH2 9637   5.691   2.025   2.103
 3251TIP3    H1 9638   5.617   1.970   2.079
 3251TIP3    H2 9639   5.665   2.066   2.186
 3252TIP3   OH2 9640   6.584   2.283   2.710
 3252TIP3    H1 9641   6.621   2.332   2.636
 3252TIP3    H2 9642   6.505   2.241   2.674
 3253TIP3   OH2 9643   6.151   1.353   2.022
 3253TIP3    H1 9644   6.059   1.330   2.009
 3253TIP3    H2 9645   6.152   1.448   2.029
 3254TIP3   OH2 9646   6.106   2.369   3.125
 3254TIP3    H1 9647   6.162   2.359   3.201
 3254TIP3    H2 9648   6.069   2.457   3.133
 3255TIP3   OH2 9649   6.216   1.618   2.085
 3255TIP3    H1 9650   6.311   1.618   2.091
 3255TIP3    H2 9651   6.195   1.694   2.031
 3256TIP3   OH2 9652   5.384   2.046   2.753
 3256TIP3    H1 9653   5.420   2.026   2.667
 3256TIP3    H2 9654   5.450   2.015   2.815
 3257TIP3   OH2 9655   5.845   2.186   1.946
 3257TIP3    H1 9656   5.797   2.269   1.943
 3257TIP3    H2 9657   5.790   2.128   1.999
 3258TIP3   OH2 9658   5.258   1.974   3.400
 3258TIP3    H1 9659   5.257   1.947   3.492
 3258TIP3    H2 9660   5.184   1.929   3.360
 3259TIP3   OH2 9661   6.020   2.114   3.402
 3259TIP3    H1 9662   5.959   2.076   3.339
 3259TIP3    H2 9663   6.104   2.071   3.382
 3260TIP3   OH2 9664   6.248   2.659   3.006
 3260TIP3    H1 9665   6.153   2.645   3.011
 3260TIP3    H2 9666   6.271   2.696   3.091
 3261TIP3   OH2 9667   6.631   1.698   1.896
 3261TIP3    H1 9668   6.577   1.651   1.833
 3261TIP3    H2 9669   6.633   1.788   1.863
 3262TIP3   OH2 9670   6.883   2.563   2.981
 3262TIP3    H1 9671   6.789   2.550   2.971
 3262TIP3    H2 9672   6.920   2.537   2.897
 3263TIP3   OH2 9673   6.377   2.513   1.829
 3263TIP3    H1 9674   6.347   2.440   1.884
 3263TIP3    H2 9675   6.394   2.472   1.744
 3264TIP3   OH2 9676   6.357   2.147   2.604
 3264TIP3    H1 9677   6.266   2.126   2.628
 3264TIP3    H2 9678   6.391   2.066   2.566
 3265TIP3   OH2 9679   5.512   2.384   2.424
 3265TIP3    H1 9680   5.512   2.460   2.365
 3265TIP3    H2 9681   5.420   2.371   2.446
 3266TIP3   OH2 9682   5.074   1.671   2.141
 3266TIP3    H1 9683   5.115   1.755   2.161
 3266TIP3    H2 9684   4.993   1.671   2.192
 3267TIP3   OH2 9685   5.590   2.137   2.327
 3267TIP3    H1 9686   5.578   2.227   2.358
 3267TIP3    H2 9687   5.565   2.082   2.401
 3268TIP3   OH2 9688   5.795   2.706   2.877
 3268TIP3    H1 9689   5.830   2.780   2.827
 3268TIP3    H2 9690   5.870   2.673   2.927
 3269TIP3   OH2 9691   5.428   2.607   2.273
 3269TIP3    H1 9692   5.340   2.613   2.311
 3269TIP3    H2 9693   5.463   2.696   2.278
 3270TIP3   OH2 9694   6.140   2.375   2.849
 3270TIP3    H1 9695   6.128   2.370   2.944
 3270TIP3    H2 9696   6.216   2.320   2.831
 3271TIP3   OH2 9697   6.147   2.250   1.725
 3271TIP3    H1 9698   6.187   2.233   1.810
 3271TIP3    H2 9699   6.064   2.202   1.728
 3272TIP3   OH2 9700   6.403   2.867   2.890
 3272TIP3    H1 9701   6.333   2.804   2.909
 3272TIP3    H2 9702   6.368   2.921   2.819
 3273TIP3   OH2 9703   6.450   2.717   1.520
 3273TIP3    H1 9704   6.465   2.777   1.447
 3273TIP3    H2 9705   6.381   2.760   1.571
 3274TIP3   OH2 9706   5.480   1.489   3.389
 3274TIP3    H1 9707   5.385   1.498   3.393
 3274TIP3    H2 9708   5.502   1.431   3.463
 3275TIP3   OH2 9709   6.313   2.203   1.948
 3275TIP3    H1 9710   6.295   2.127   2.004
 3275TIP3    H2 9711   6.406   2.197   1.928
 3276TIP3   OH2 9712   5.223   2.609   3.039
 3276TIP3    H1 9713   5.279   2.551   3.091
 3276TIP3    H2 9714   5.240   2.697   3.074
 3277TIP3   OH2 9715   5.491   2.215   1.735
 3277TIP3    H1 9716   5.502   2.124   1.708
 3277TIP3    H2 9717   5.477   2.210   1.830
 3278TIP3   OH2 9718   5.434   2.231   2.007
 3278TIP3    H1 9719   5.499   2.205   2.073
 3278TIP3    H2 9720   5.432   2.327   2.011
 3279TIP3   OH2 9721   5.166   1.923   2.218
 3279TIP3    H1 9722   5.101   1.971   2.269
 3279TIP3    H2 9723   5.186   1.980   2.144
 3280TIP3   OH2 9724   6.321   1.555   3.092
 3280TIP3    H1 9725   6.401   1.598   3.122
 3280TIP3    H2 9726   6.315   1.477   3.148
 3281TIP3   OH2 9727   6.212   1.299   2.285
 3281TIP3    H1 9728   6.190   1.317   2.193
 3281TIP3    H2 9729   6.260   1.376   2.314
 3282TIP3   OH2 9730   5.701   2.415   1.941
 3282TIP3    H1 9731   5.617   2.440   1.980
 3282TIP3    H2 9732   5.725   2.489   1.885
 3283TIP3   OH2 9733   5.869   1.493   2.370
 3283TIP3    H1 9734   5.930   1.561   2.344
 3283TIP3    H2 9735   5.894   1.471   2.459
 3284TIP3   OH2 9736   6.164   1.789   3.141
 3284TIP3    H1 9737   6.192   1.830   3.223
 3284TIP3    H2 9738   6.214   1.707   3.137
 3285TIP3   OH2 9739   6.030   1.185   2.455
 3285TIP3    H1 9740   6.006   1.262   2.506
 3285TIP3    H2 9741   6.099   1.215   2.397
 3286TIP3   OH2 9742   5.453   2.504   2.020
 3286TIP3    H1 9743   5.433   2.576   1.960
 3286TIP3    H2 9744   5.442   2.542   2.107
 3287TIP3   OH2 9745   5.546   1.220   2.272
 3287TIP3    H1 9746   5.537   1.312   2.298
 3287TIP3    H2 9747   5.640   1.204   2.273
 3288TIP3   OH2 9748   6.782   1.689   3.133
 3288TIP3    H1 9749   6.688   1.695   3.145
 3288TIP3    H2 9750   6.793   1.631   3.058
 3289TIP3   OH2 9751   6.447   1.888   2.517
 3289TIP3    H1 9752   6.370   1.831   2.528
 3289TIP3    H2 9753   6.513   1.848   2.573
 3290TIP3   OH2 9754   5.191   2.097   2.000
 3290TIP3    H1 9755   5.264   2.159   2.008
 3290TIP3    H2 9756   5.221   2.033   1.935
 3291TIP3   OH2 9757   5.099   1.394   2.143
 3291TIP3    H1 9758   5.104   1.489   2.144
 3291TIP3    H2 9759   5.045   1.374   2.066
 3292TIP3   OH2 9760   6.429   2.867   2.464
 3292TIP3    H1 9761   6.388   2.919   2.395
 3292TIP3    H2 9762   6.523   2.876   2.449
 3293TIP3   OH2 9763   5.493   1.114   2.998
 3293TIP3    H1 9764   5.464   1.083   2.912
 3293TIP3    H2 9765   5.484   1.037   3.055
 3294TIP3   OH2 9766   5.014   2.370   2.387
 3294TIP3    H1 9767   4.968   2.405   2.463
 3294TIP3    H2 9768   4.971   2.411   2.312
 3295TIP3   OH2 9769   5.232   2.906   3.460
 3295TIP3    H1 9770   5.310   2.919   3.513
 3295TIP3    H2 9771   5.235   2.813   3.436
 3296TIP3   OH2 9772   5.684   2.808   3.503
 3296TIP3    H1 9773   5.775   2.782   3.511
 3296TIP3    H2 9774   5.650   2.755   3.431
 3297TIP3   OH2 9775   5.643   2.415   1.623
 3297TIP3    H1 9776   5.596   2.346   1.668
 3297TIP3    H2 9777   5.717   2.371   1.582
 3298TIP3   OH2 9778   6.301   2.758   3.255
 3298TIP3    H1 9779   6.310   2.687   3.318
 3298TIP3    H2 9780   6.377   2.814   3.271
 3299TIP3   OH2 9781   6.087   2.453   1.549
 3299TIP3    H1 9782   6.123   2.389   1.610
 3299TIP3    H2 9783   6.144   2.448   1.472
 3300TIP3   OH2 9784   5.314   2.292   3.652
 3300TIP3    H1 9785   5.342   2.200   3.657
 3300TIP3    H2 9786   5.229   2.288   3.608
 3301TIP3   OH2 9787   5.315   1.909   1.846
 3301TIP3    H1 9788   5.365   1.883   1.923
 3301TIP3    H2 9789   5.381   1.923   1.778
 3302TIP3   OH2 9790   5.942   2.387   3.428
 3302TIP3    H1 9791   5.900   2.409   3.345
 3302TIP3    H2 9792   5.984   2.302   3.412
 3303TIP3   OH2 9793   5.897   2.125   1.684
 3303TIP3    H1 9794   5.870   2.137   1.775
 3303TIP3    H2 9795   5.875   2.035   1.664
 3304TIP3   OH2 9796   6.416   2.434   3.044
 3304TIP3    H1 9797   6.494   2.460   2.994
 3304TIP3    H2 9798   6.352   2.503   3.026
 3305TIP3   OH2 9799   5.442   2.046   3.652
 3305TIP3    H1 9800   5.504   2.029   3.581
 3305TIP3    H2 9801   5.497   2.066   3.727
 3306TIP3   OH2 9802   5.485   1.847   2.057
 3306TIP3    H1 9803   5.464   1.814   2.145
 3306TIP3    H2 9804   5.534   1.776   2.016
 3307TIP3   OH2 9805   5.773   1.908   3.309
 3307TIP3    H1 9806   5.700   1.966   3.331
 3307TIP3    H2 9807   5.817   1.952   3.236
 3308TIP3   OH2 9808   5.632   1.669   1.899
 3308TIP3    H1 9809   5.601   1.672   1.809
 3308TIP3    H2 9810   5.727   1.676   1.892
 3309TIP3   OH2 9811   6.298   2.304   3.391
 3309TIP3    H1 9812   6.369   2.268   3.337
 3309TIP3    H2 9813   6.298   2.249   3.469
 3310TIP3   OH2 9814   6.424   1.955   1.571
 3310TIP3    H1 9815   6.407   1.914   1.487
 3310TIP3    H2 9816   6.399   2.047   1.558
 3311TIP3   OH2 9817   5.903   1.697   3.424
 3311TIP3    H1 9818   5.909   1.625   3.360
 3311TIP3    H2 9819   5.863   1.769   3.375
 3312TIP3   OH2 9820   5.911   1.501   3.219
 3312TIP3    H1 9821   5.940   1.536   3.135
 3312TIP3    H2 9822   5.821   1.474   3.204
 3313TIP3   OH2 9823   5.913   2.050   3.124
 3313TIP3    H1 9824   6.002   2.067   3.092
 3313TIP3    H2 9825   5.857   2.099   3.064
 3314TIP3   OH2 9826   6.511   1.994   3.468
 3314TIP3    H1 9827   6.561   1.912   3.467
 3314TIP3    H2 9828   6.578   2.062   3.462
 3315TIP3   OH2 9829   6.539   2.254   3.205
 3315TIP3    H1 9830   6.486   2.316   3.156
 3315TIP3    H2 9831   6.629   2.268   3.174
 3316TIP3   OH2 9832   5.786   1.778   3.666
 3316TIP3    H1 9833   5.717   1.713   3.683
 3316TIP3    H2 9834   5.817   1.758   3.578
 3317TIP3   OH2 9835   6.033   1.272   3.323
 3317TIP3    H1 9836   5.994   1.352   3.288
 3317TIP3    H2 9837   5.967   1.204   3.308
 3318TIP3   OH2 9838   6.160   1.740   3.524
 3318TIP3    H1 9839   6.150   1.727   3.618
 3318TIP3    H2 9840   6.074   1.719   3.487
 3319TIP3   OH2 9841   6.411   1.701   3.400
 3319TIP3    H1 9842   6.332   1.698   3.454
 3319TIP3    H2 9843   6.482   1.676   3.460
 3320TIP3   OH2 9844   6.645   1.660   3.549
 3320TIP3    H1 9845   6.657   1.565   3.555
 3320TIP3    H2 9846   6.640   1.689   3.640
 3321TIP3   OH2 9847   5.611   1.566   3.732
 3321TIP3    H1 9848   5.617   1.479   3.692
 3321TIP3    H2 9849   5.652   1.556   3.818
 3322TIP3   OH2 9850   6.094   1.247   3.588
 3322TIP3    H1 9851   6.165   1.184   3.583
 3322TIP3    H2 9852   6.065   1.260   3.498
 3323TIP3   OH2 9853   6.195   1.459   3.732
 3323TIP3    H1 9854   6.163   1.388   3.677
 3323TIP3    H2 9855   6.123   1.523   3.732
 3324TIP3   OH2 9856   5.453   2.717   1.841
 3324TIP3    H1 9857   5.541   2.694   1.811
 3324TIP3    H2 9858   5.413   2.760   1.765
 3325TIP3   OH2 9859   4.919   2.098   2.025
 3325TIP3    H1 9860   5.014   2.111   2.019
 3325TIP3    H2 9861   4.905   2.012   1.985
 3326TIP3   OH2 9862   4.818   2.678   2.477
 3326TIP3    H1 9863   4.755   2.625   2.430
 3326TIP3    H2 9864   4.863   2.617   2.535
 3327TIP3   OH2 9865   4.961   2.507   2.643
 3327TIP3    H1 9866   4.950   2.438   2.708
 3327TIP3    H2 9867   5.014   2.573   2.686
 3328TIP3   OH2 9868   6.702   2.909   2.454
 3328TIP3    H1 9869   6.723   2.937   2.543
 3328TIP3    H2 9870   6.759   2.962   2.398
 3329TIP3   OH2 9871   6.723   2.942   2.735
 3329TIP3    H1 9872   6.674   2.861   2.729
 3329TIP3    H2 9873   6.791   2.925   2.800
 3330TIP3   OH2 9874   6.772   2.647   3.311
 3330TIP3    H1 9875   6.699   2.657   3.372
 3330TIP3    H2 9876   6.818   2.732   3.314
 3331TIP3   OH2 9877   6.587   2.165   1.915
 3331TIP3    H1 9878   6.645   2.235   1.885
 3331TIP3    H2 9879   6.635   2.126   1.988
 3332TIP3   OH2 9880   6.720   2.022   2.114
 3332TIP3    H1 9881   6.653   1.983   2.170
 3332TIP3    H2 9882   6.784   2.058   2.176
 3333TIP3   OH2 9883   6.769   2.421   2.551
 3333TIP3    H1 9884   6.820   2.352   2.509
 3333TIP3    H2 9885   6.771   2.494   2.488
 3334TIP3   OH2 9886   6.574   2.709   2.737
 3334TIP3    H1 9887   6.508   2.754   2.789
 3334TIP3    H2 9888   6.525   2.669   2.666
 3335TIP3   OH2 9889   6.622   1.938   1.761
 3335TIP3    H1 9890   6.554   1.937   1.694
 3335TIP3    H2 9891   6.604   2.017   1.813
 3336TIP3   OH2 9892   6.485   1.580   1.696
 3336TIP3    H1 9893   6.430   1.609   1.623
 3336TIP3    H2 9894   6.479   1.485   1.696
 3337TIP3   OH2 9895   6.516   1.880   2.248
 3337TIP3    H1 9896   6.520   1.785   2.232
 3337TIP3    H2 9897   6.497   1.888   2.341
 3338TIP3   OH2 9898   5.136   1.936   3.030
 3338TIP3    H1 9899   5.127   1.908   2.939
 3338TIP3    H2 9900   5.230   1.935   3.046
 3339TIP3   OH2 9901   6.799   2.299   3.115
 3339TIP3    H1 9902   6.865   2.231   3.098
 3339TIP3    H2 9903   6.819   2.368   3.052
 3340TIP3   OH2 9904   6.975   2.086   3.104
 3340TIP3    H1 9905   6.901   2.044   3.148
 3340TIP3    H2 9906   7.050   2.030   3.125
 3341TIP3   OH2 9907   6.448   1.308   1.690
 3341TIP3    H1 9908   6.511   1.283   1.757
 3341TIP3    H2 9909   6.366   1.269   1.718
 3342TIP3   OH2 9910   6.511   1.604   2.138
 3342TIP3    H1 9911   6.557   1.521   2.151
 3342TIP3    H2 9912   6.551   1.641   2.059
 3343TIP3   OH2 9913   6.663   1.770   2.662
 3343TIP3    H1 9914   6.743   1.786   2.614
 3343TIP3    H2 9915   6.677   1.809   2.748
 3344TIP3   OH2 9916   6.739   1.918   2.890
 3344TIP3    H1 9917   6.667   1.946   2.946
 3344TIP3    H2 9918   6.769   1.999   2.847
 3345TIP3   OH2 9919   5.344   1.626   3.668
 3345TIP3    H1 9920   5.439   1.624   3.685
 3345TIP3    H2 9921   5.311   1.544   3.705
 3346TIP3   OH2 9922   7.198   1.517   3.428
 3346TIP3    H1 9923   7.264   1.461   3.387
 3346TIP3    H2 9924   7.161   1.567   3.355
 3347TIP3   OH2 9925   6.630   1.355   2.190
 3347TIP3    H1 9926   6.670   1.336   2.275
 3347TIP3    H2 9927   6.567   1.285   2.176
 3348TIP3   OH2 9928   5.332   1.339   3.025
 3348TIP3    H1 9929   5.385   1.259   3.025
 3348TIP3    H2 9930   5.394   1.408   3.001
 3349TIP3   OH2 9931   5.116   1.611   3.074
 3349TIP3    H1 9932   5.168   1.593   2.996
 3349TIP3    H2 9933   5.140   1.701   3.098
 3350TIP3   OH2 9934   7.049   1.636   3.233
 3350TIP3    H1 9935   6.970   1.676   3.269
 3350TIP3    H2 9936   7.017   1.565   3.177
 3351TIP3   OH2 9937   6.678   1.276   1.843
 3351TIP3    H1 9938   6.728   1.220   1.784
 3351TIP3    H2 9939   6.729   1.357   1.849
 3352TIP3   OH2 9940   5.102   1.134   2.593
 3352TIP3    H1 9941   5.015   1.113   2.628
 3352TIP3    H2 9942   5.084   1.177   2.510
 3353TIP3   OH2 9943   6.258   2.832   2.098
 3353TIP3    H1 9944   6.313   2.818   2.021
 3353TIP3    H2 9945   6.302   2.901   2.147
 3354TIP3   OH2 9946   5.329   1.166   3.404
 3354TIP3    H1 9947   5.275   1.158   3.483
 3354TIP3    H2 9948   5.274   1.214   3.342
 3355TIP3   OH2 9949   5.337   2.634   3.469
 3355TIP3    H1 9950   5.246   2.605   3.464
 3355TIP3    H2 9951   5.361   2.623   3.561
 3356TIP3   OH2 9952   5.567   2.673   3.027
 3356TIP3    H1 9953   5.517   2.748   2.995
 3356TIP3    H2 9954   5.652   2.680   2.983
 3357TIP3   OH2 9955   5.961   2.903   3.164
 3357TIP3    H1 9956   5.999   2.896   3.252
 3357TIP3    H2 9957   6.024   2.957   3.116
 3358TIP3   OH2 9958   6.153   3.058   3.038
 3358TIP3    H1 9959   6.214   3.003   2.990
 3358TIP3    H2 9960   6.208   3.114   3.092
 3359TIP3   OH2 9961   6.958   1.392   3.121
 3359TIP3    H1 9962   6.874   1.392   3.074
 3359TIP3    H2 9963   6.988   1.302   3.115
 3360TIP3   OH2 9964   5.227   2.905   3.077
 3360TIP3    H1 9965   5.136   2.922   3.053
 3360TIP3    H2 9966   5.249   2.975   3.138
 3361TIP3   OH2 9967   5.457   2.904   2.924
 3361TIP3    H1 9968   5.374   2.907   2.971
 3361TIP3    H2 9969   5.435   2.926   2.834
 3362TIP3   OH2 9970   5.870   2.919   2.717
 3362TIP3    H1 9971   5.799   2.929   2.654
 3362TIP3    H2 9972   5.880   3.006   2.756
 3363TIP3   OH2 9973   6.135   2.858   2.765
 3363TIP3    H1 9974   6.043   2.876   2.744
 3363TIP3    H2 9975   6.184   2.925   2.717
 3364TIP3   OH2 9976   6.339   3.031   2.667
 3364TIP3    H1 9977   6.336   3.117   2.625
 3364TIP3    H2 9978   6.368   2.972   2.597
 3365TIP3   OH2 9979   5.134   2.686   2.788
 3365TIP3    H1 9980   5.162   2.664   2.877
 3365TIP3    H2 9981   5.206   2.654   2.732
 3366TIP3   OH2 9982   5.340   2.575   2.649
 3366TIP3    H1 9983   5.352   2.490   2.693
 3366TIP3    H2 9984   5.426   2.616   2.651
 3367TIP3   OH2 9985   5.609   2.659   2.674
 3367TIP3    H1 9986   5.628   2.567   2.657
 3367TIP3    H2 9987   5.664   2.682   2.749
 3368TIP3   OH2 9988   6.173   1.308   2.760
 3368TIP3    H1 9989   6.134   1.234   2.808
 3368TIP3    H2 9990   6.240   1.268   2.705
 3369TIP3   OH2 9991   6.663   1.240   2.666
 3369TIP3    H1 9992   6.698   1.282   2.588
 3369TIP3    H2 9993   6.568   1.244   2.654
 3370TIP3   OH2 9994   6.780   1.291   2.420
 3370TIP3    H1 9995   6.848   1.232   2.388
 3370TIP3    H2 9996   6.816   1.379   2.407
 3371TIP3   OH2 9997   5.404   1.013   2.758
 3371TIP3    H1 9998   5.315   0.980   2.762
 3371TIP3    H2 9999   5.458   0.935   2.745
 3372TIP3   OH210000   5.251   0.936   2.444
 3372TIP3    H110001   5.270   0.976   2.359
 3372TIP3    H210002   5.207   1.005   2.493
 3373TIP3   OH210003   5.889   1.046   2.656
 3373TIP3    H110004   5.936   1.090   2.585
 3373TIP3    H210005   5.933   1.076   2.736
 3374TIP3   OH210006   6.383   1.191   2.621
 3374TIP3    H110007   6.384   1.155   2.532
 3374TIP3    H210008   6.387   1.114   2.678
 3375TIP3   OH210009   6.437   1.155   2.191
 3375TIP3    H110010   6.354   1.199   2.207
 3375TIP3    H210011   6.430   1.071   2.236
 3376TIP3   OH210012   4.897   2.489   2.168
 3376TIP3    H110013   4.815   2.458   2.130
 3376TIP3    H210014   4.903   2.580   2.140
 3377TIP3   OH210015   5.334   1.054   2.195
 3377TIP3    H110016   5.373   0.989   2.136
 3377TIP3    H210017   5.408   1.107   2.225
 3378TIP3   OH210018   5.820   1.242   2.270
 3378TIP3    H110019   5.880   1.188   2.321
 3378TIP3    H210020   5.838   1.332   2.300
 3379TIP3   OH210021   5.705   2.638   1.767
 3379TIP3    H110022   5.789   2.665   1.729
 3379TIP3    H210023   5.675   2.567   1.710
 3380TIP3   OH210024   6.408   2.781   1.869
 3380TIP3    H110025   6.402   2.686   1.861
 3380TIP3    H210026   6.365   2.814   1.790
 3381TIP3   OH210027   5.632   1.297   3.639
 3381TIP3    H110028   5.600   1.230   3.699
 3381TIP3    H210029   5.725   1.306   3.661
 3382TIP3   OH210030   5.880   1.300   3.762
 3382TIP3    H110031   5.957   1.279   3.709
 3382TIP3    H210032   5.876   1.230   3.828
 3383TIP3   OH210033   5.012   2.476   1.822
 3383TIP3    H110034   5.014   2.486   1.917
 3383TIP3    H210035   5.094   2.430   1.802
 3384TIP3   OH210036   6.705   1.389   3.550
 3384TIP3    H110037   6.723   1.360   3.639
 3384TIP3    H210038   6.790   1.384   3.506
 3385TIP3   OH210039   6.623   2.920   3.056
 3385TIP3    H110040   6.548   2.891   3.003
 3385TIP3    H210041   6.611   3.014   3.065
 3386TIP3   OH210042   7.878   2.308   1.811
 3386TIP3    H110043   7.849   2.397   1.792
 3386TIP3    H210044   7.805   2.252   1.782
 3387TIP3   OH210045   7.896   2.300   2.222
 3387TIP3    H110046   7.948   2.285   2.301
 3387TIP3    H210047   7.848   2.218   2.209
 3388TIP3   OH210048   7.195   2.156   2.563
 3388TIP3    H110049   7.234   2.106   2.634
 3388TIP3    H210050   7.269   2.182   2.508
 3389TIP3   OH210051   8.179   2.599   1.893
 3389TIP3    H110052   8.155   2.544   1.968
 3389TIP3    H210053   8.200   2.684   1.933
 3390TIP3   OH210054   7.190   2.589   2.246
 3390TIP3    H110055   7.170   2.495   2.255
 3390TIP3    H210056   7.285   2.593   2.242
 3391TIP3   OH210057   6.870   1.798   2.031
 3391TIP3    H110058   6.830   1.882   2.056
 3391TIP3    H210059   6.799   1.748   1.992
 3392TIP3   OH210060   6.950   2.105   2.258
 3392TIP3    H110061   7.000   2.028   2.283
 3392TIP3    H210062   7.016   2.170   2.234
 3393TIP3   OH210063   7.791   3.075   1.938
 3393TIP3    H110064   7.816   3.005   1.878
 3393TIP3    H210065   7.790   3.034   2.024
 3394TIP3   OH210066   7.710   2.523   2.222
 3394TIP3    H110067   7.754   2.442   2.197
 3394TIP3    H210068   7.780   2.579   2.256
 3395TIP3   OH210069   8.648   1.825   2.248
 3395TIP3    H110070   8.695   1.894   2.295
 3395TIP3    H210071   8.665   1.843   2.156
 3396TIP3   OH210072   8.122   2.011   2.256
 3396TIP3    H110073   8.164   1.933   2.293
 3396TIP3    H210074   8.061   1.977   2.191
 3397TIP3   OH210075   7.462   1.665   2.222
 3397TIP3    H110076   7.442   1.738   2.164
 3397TIP3    H210077   7.406   1.593   2.190
 3398TIP3   OH210078   8.131   1.763   1.891
 3398TIP3    H110079   8.202   1.766   1.955
 3398TIP3    H210080   8.174   1.780   1.807
 3399TIP3   OH210081   7.090   1.883   2.349
 3399TIP3    H110082   7.173   1.865   2.392
 3399TIP3    H210083   7.092   1.831   2.269
 3400TIP3   OH210084   7.507   2.083   2.167
 3400TIP3    H110085   7.601   2.069   2.175
 3400TIP3    H210086   7.473   2.000   2.133
 3401TIP3   OH210087   8.751   2.029   2.402
 3401TIP3    H110088   8.684   2.098   2.394
 3401TIP3    H210089   8.817   2.067   2.460
 3402TIP3   OH210090   7.447   1.673   2.670
 3402TIP3    H110091   7.397   1.709   2.597
 3402TIP3    H210092   7.393   1.690   2.747
 3403TIP3   OH210093   7.795   2.547   1.701
 3403TIP3    H110094   7.753   2.510   1.623
 3403TIP3    H210095   7.739   2.622   1.724
 3404TIP3   OH210096   7.540   2.448   2.430
 3404TIP3    H110097   7.487   2.520   2.465
 3404TIP3    H210098   7.590   2.488   2.358
 3405TIP3   OH210099   8.326   1.818   2.075
 3405TIP3    H110100   8.296   1.782   2.158
 3405TIP3    H210101   8.387   1.888   2.099
 3406TIP3   OH210102   7.337   1.780   2.441
 3406TIP3    H110103   7.392   1.855   2.462
 3406TIP3    H210104   7.383   1.737   2.369
 3407TIP3   OH210105   7.386   2.651   2.539
 3407TIP3    H110106   7.372   2.741   2.510
 3407TIP3    H210107   7.309   2.631   2.591
 3408TIP3   OH210108   6.757   2.356   1.797
 3408TIP3    H110109   6.722   2.374   1.710
 3408TIP3    H210110   6.781   2.442   1.831
 3409TIP3   OH210111   8.201   2.853   2.017
 3409TIP3    H110112   8.118   2.846   2.063
 3409TIP3    H210113   8.198   2.939   1.975
 3410TIP3   OH210114   8.484   1.701   2.428
 3410TIP3    H110115   8.396   1.723   2.399
 3410TIP3    H210116   8.542   1.739   2.361
 3411TIP3   OH210117   7.782   1.357   2.409
 3411TIP3    H110118   7.774   1.266   2.436
 3411TIP3    H210119   7.705   1.400   2.446
 3412TIP3   OH210120   7.881   2.920   1.731
 3412TIP3    H110121   7.937   2.843   1.725
 3412TIP3    H210122   7.939   2.993   1.708
 3413TIP3   OH210123   8.027   2.702   1.688
 3413TIP3    H110124   7.958   2.635   1.684
 3413TIP3    H210125   8.090   2.667   1.751
 3414TIP3   OH210126   8.429   2.750   2.369
 3414TIP3    H110127   8.416   2.676   2.310
 3414TIP3    H210128   8.415   2.827   2.314
 3415TIP3   OH210129   7.687   2.158   1.673
 3415TIP3    H110130   7.611   2.198   1.631
 3415TIP3    H210131   7.751   2.147   1.602
 3416TIP3   OH210132   7.602   1.932   1.391
 3416TIP3    H110133   7.629   2.023   1.391
 3416TIP3    H210134   7.618   1.901   1.302
 3417TIP3   OH210135   8.591   2.393   2.236
 3417TIP3    H110136   8.516   2.450   2.221
 3417TIP3    H210137   8.645   2.402   2.157
 3418TIP3   OH210138   8.137   2.333   1.737
 3418TIP3    H110139   8.051   2.334   1.778
 3418TIP3    H210140   8.189   2.396   1.787
 3419TIP3   OH210141   8.310   2.266   2.561
 3419TIP3    H110142   8.311   2.351   2.605
 3419TIP3    H210143   8.227   2.264   2.514
 3420TIP3   OH210144   7.306   2.212   2.018
 3420TIP3    H110145   7.267   2.150   1.957
 3420TIP3    H210146   7.380   2.164   2.057
 3421TIP3   OH210147   7.455   2.638   2.155
 3421TIP3    H110148   7.430   2.625   2.063
 3421TIP3    H210149   7.542   2.600   2.162
 3422TIP3   OH210150   7.407   2.212   2.389
 3422TIP3    H110151   7.445   2.175   2.310
 3422TIP3    H210152   7.456   2.294   2.404
 3423TIP3   OH210153   7.976   2.845   2.167
 3423TIP3    H110154   7.957   2.927   2.212
 3423TIP3    H210155   7.955   2.777   2.231
 3424TIP3   OH210156   7.584   2.747   2.709
 3424TIP3    H110157   7.523   2.802   2.757
 3424TIP3    H210158   7.529   2.696   2.650
 3425TIP3   OH210159   7.906   2.111   1.510
 3425TIP3    H110160   7.989   2.065   1.524
 3425TIP3    H210161   7.906   2.131   1.416
 3426TIP3   OH210162   7.339   2.290   2.857
 3426TIP3    H110163   7.344   2.385   2.874
 3426TIP3    H210164   7.245   2.272   2.849
 3427TIP3   OH210165   7.645   2.779   1.713
 3427TIP3    H110166   7.720   2.837   1.728
 3427TIP3    H210167   7.584   2.832   1.661
 3428TIP3   OH210168   7.372   2.901   2.797
 3428TIP3    H110169   7.346   2.913   2.706
 3428TIP3    H210170   7.290   2.888   2.844
 3429TIP3   OH210171   7.168   2.051   1.829
 3429TIP3    H110172   7.090   2.099   1.801
 3429TIP3    H210173   7.137   1.963   1.849
 3430TIP3   OH210174   8.177   2.666   1.082
 3430TIP3    H110175   8.180   2.747   1.133
 3430TIP3    H210176   8.230   2.685   1.004
 3431TIP3   OH210177   6.971   2.463   2.744
 3431TIP3    H110178   6.901   2.445   2.681
 3431TIP3    H210179   7.005   2.377   2.768
 3432TIP3   OH210180   6.816   2.654   2.396
 3432TIP3    H110181   6.908   2.676   2.411
 3432TIP3    H210182   6.767   2.731   2.427
 3433TIP3   OH210183   8.671   3.116   2.449
 3433TIP3    H110184   8.687   3.022   2.457
 3433TIP3    H210185   8.590   3.131   2.498
 3434TIP3   OH210186   7.773   2.893   2.573
 3434TIP3    H110187   7.764   2.984   2.603
 3434TIP3    H210188   7.706   2.845   2.622
 3435TIP3   OH210189   7.537   2.992   1.542
 3435TIP3    H110190   7.493   2.976   1.459
 3435TIP3    H210191   7.504   3.077   1.571
 3436TIP3   OH210192   6.986   2.846   1.903
 3436TIP3    H110193   7.030   2.838   1.988
 3436TIP3    H210194   6.936   2.765   1.893
 3437TIP3   OH210195   7.768   3.031   1.194
 3437TIP3    H110196   7.733   2.946   1.167
 3437TIP3    H210197   7.785   3.020   1.288
 3438TIP3   OH210198   7.799   2.990   1.464
 3438TIP3    H110199   7.708   2.987   1.495
 3438TIP3    H210200   7.849   2.950   1.535
 3439TIP3   OH210201   8.559   2.233   2.728
 3439TIP3    H110202   8.476   2.245   2.681
 3439TIP3    H210203   8.578   2.140   2.719
 3440TIP3   OH210204   7.169   2.651   2.711
 3440TIP3    H110205   7.220   2.638   2.791
 3440TIP3    H210206   7.097   2.589   2.718
 3441TIP3   OH210207   7.548   1.456   2.528
 3441TIP3    H110208   7.464   1.423   2.496
 3441TIP3    H210209   7.526   1.537   2.573
 3442TIP3   OH210210   8.096   1.573   2.726
 3442TIP3    H110211   8.167   1.549   2.784
 3442TIP3    H210212   8.016   1.558   2.777
 3443TIP3   OH210213   8.310   1.994   2.631
 3443TIP3    H110214   8.279   1.989   2.721
 3443TIP3    H210215   8.303   2.087   2.609
 3444TIP3   OH210216   7.940   2.119   1.239
 3444TIP3    H110217   7.893   2.092   1.160
 3444TIP3    H210218   8.031   2.131   1.210
 3445TIP3   OH210219   7.834   1.434   1.531
 3445TIP3    H110220   7.803   1.430   1.622
 3445TIP3    H210221   7.754   1.438   1.479
 3446TIP3   OH210222   7.491   1.990   2.536
 3446TIP3    H110223   7.446   1.997   2.620
 3446TIP3    H210224   7.470   2.072   2.491
 3447TIP3   OH210225   7.368   1.867   2.062
 3447TIP3    H110226   7.278   1.845   2.087
 3447TIP3    H210227   7.378   1.829   1.974
 3448TIP3   OH210228   7.784   1.961   1.835
 3448TIP3    H110229   7.726   2.023   1.792
 3448TIP3    H210230   7.872   1.991   1.812
 3449TIP3   OH210231   8.037   2.207   2.854
 3449TIP3    H110232   8.013   2.139   2.916
 3449TIP3    H210233   8.130   2.224   2.873
 3450TIP3   OH210234   7.965   1.923   2.052
 3450TIP3    H110235   7.899   1.951   1.988
 3450TIP3    H210236   8.022   1.865   2.002
 3451TIP3   OH210237   7.331   2.005   2.758
 3451TIP3    H110238   7.342   2.070   2.828
 3451TIP3    H210239   7.312   1.924   2.804
 3452TIP3   OH210240   7.355   1.463   1.482
 3452TIP3    H110241   7.353   1.468   1.577
 3452TIP3    H210242   7.271   1.501   1.454
 3453TIP3   OH210243   6.914   1.513   2.342
 3453TIP3    H110244   6.987   1.552   2.391
 3453TIP3    H210245   6.950   1.494   2.256
 3454TIP3   OH210246   6.830   1.509   1.855
 3454TIP3    H110247   6.872   1.542   1.776
 3454TIP3    H210248   6.762   1.573   1.875
 3455TIP3   OH210249   8.062   2.211   2.433
 3455TIP3    H110250   8.090   2.144   2.371
 3455TIP3    H210251   8.018   2.162   2.503
 3456TIP3   OH210252   7.730   1.650   2.126
 3456TIP3    H110253   7.653   1.653   2.182
 3456TIP3    H210254   7.804   1.654   2.187
 3457TIP3   OH210255   7.127   1.743   2.117
 3457TIP3    H110256   7.040   1.749   2.079
 3457TIP3    H210257   7.155   1.653   2.101
 3458TIP3   OH210258   7.383   1.727   1.826
 3458TIP3    H110259   7.477   1.735   1.810
 3458TIP3    H210260   7.342   1.749   1.742
 3459TIP3   OH210261   8.198   1.746   2.323
 3459TIP3    H110262   8.169   1.764   2.412
 3459TIP3    H210263   8.132   1.686   2.288
 3460TIP3   OH210264   7.246   1.757   1.592
 3460TIP3    H110265   7.180   1.701   1.552
 3460TIP3    H210266   7.272   1.818   1.523
 3461TIP3   OH210267   8.382   3.451   2.539
 3461TIP3    H110268   8.380   3.468   2.444
 3461TIP3    H210269   8.460   3.497   2.570
 3462TIP3   OH210270   7.323   2.559   2.944
 3462TIP3    H110271   7.403   2.580   2.992
 3462TIP3    H210272   7.253   2.570   3.009
 3463TIP3   OH210273   7.777   2.036   2.226
 3463TIP3    H110274   7.840   1.985   2.175
 3463TIP3    H210275   7.775   1.992   2.311
 3464TIP3   OH210276   7.270   1.493   2.103
 3464TIP3    H110277   7.242   1.418   2.156
 3464TIP3    H210278   7.287   1.456   2.017
 3465TIP3   OH210279   7.756   1.930   2.483
 3465TIP3    H110280   7.669   1.963   2.506
 3465TIP3    H210281   7.816   1.982   2.535
 3466TIP3   OH210282   7.451   2.292   1.592
 3466TIP3    H110283   7.378   2.233   1.576
 3466TIP3    H210284   7.436   2.325   1.681
 3467TIP3   OH210285   8.376   2.553   2.182
 3467TIP3    H110286   8.413   2.600   2.107
 3467TIP3    H210287   8.294   2.517   2.149
 3468TIP3   OH210288   8.008   1.600   1.395
 3468TIP3    H110289   7.954   1.536   1.441
 3468TIP3    H210290   7.968   1.684   1.416
 3469TIP3   OH210291   7.899   2.622   2.616
 3469TIP3    H110292   7.954   2.609   2.693
 3469TIP3    H210293   7.861   2.709   2.628
 3470TIP3   OH210294   7.931   1.797   1.607
 3470TIP3    H110295   8.025   1.775   1.607
 3470TIP3    H210296   7.925   1.879   1.655
 3471TIP3   OH210297   7.175   2.299   2.244
 3471TIP3    H110298   7.213   2.280   2.158
 3471TIP3    H210299   7.242   2.271   2.307
 3472TIP3   OH210300   7.631   2.467   1.493
 3472TIP3    H110301   7.582   2.547   1.479
 3472TIP3    H210302   7.568   2.406   1.530
 3473TIP3   OH210303   7.063   2.229   2.875
 3473TIP3    H110304   7.066   2.203   2.967
 3473TIP3    H210305   6.987   2.183   2.839
 3474TIP3   OH210306   7.807   2.365   2.896
 3474TIP3    H110307   7.738   2.304   2.870
 3474TIP3    H210308   7.888   2.323   2.867
 3475TIP3   OH210309   8.042   2.914   2.495
 3475TIP3    H110310   7.948   2.900   2.502
 3475TIP3    H210311   8.067   2.949   2.581
 3476TIP3   OH210312   8.395   1.994   1.390
 3476TIP3    H110313   8.462   1.939   1.348
 3476TIP3    H210314   8.404   2.079   1.349
 3477TIP3   OH210315   8.681   2.797   2.468
 3477TIP3    H110316   8.586   2.793   2.455
 3477TIP3    H210317   8.717   2.772   2.383
 3478TIP3   OH210318   8.107   2.792   1.430
 3478TIP3    H110319   8.087   2.765   1.520
 3478TIP3    H210320   8.196   2.760   1.415
 3479TIP3   OH210321   8.134   2.420   2.099
 3479TIP3    H110322   8.047   2.398   2.131
 3479TIP3    H210323   8.172   2.336   2.074
 3480TIP3   OH210324   7.303   2.644   1.916
 3480TIP3    H110325   7.300   2.718   1.856
 3480TIP3    H210326   7.216   2.640   1.955
 3481TIP3   OH210327   6.862   1.925   1.627
 3481TIP3    H110328   6.904   2.008   1.649
 3481TIP3    H210329   6.779   1.926   1.676
 3482TIP3   OH210330   7.388   2.398   1.829
 3482TIP3    H110331   7.367   2.486   1.859
 3482TIP3    H210332   7.361   2.341   1.902
 3483TIP3   OH210333   7.589   2.962   2.366
 3483TIP3    H110334   7.624   3.038   2.318
 3483TIP3    H210335   7.663   2.930   2.418
 3484TIP3   OH210336   7.222   2.863   1.762
 3484TIP3    H110337   7.134   2.870   1.800
 3484TIP3    H210338   7.258   2.952   1.768
 3485TIP3   OH210339   7.941   2.627   2.343
 3485TIP3    H110340   7.923   2.623   2.437
 3485TIP3    H210341   8.027   2.586   2.333
 3486TIP3   OH210342   8.075   2.431   1.247
 3486TIP3    H110343   8.096   2.475   1.330
 3486TIP3    H210344   7.979   2.423   1.248
 3487TIP3   OH210345   8.192   3.125   2.378
 3487TIP3    H110346   8.123   3.061   2.397
 3487TIP3    H210347   8.156   3.178   2.306
 3488TIP3   OH210348   8.206   2.925   1.159
 3488TIP3    H110349   8.224   2.943   1.067
 3488TIP3    H210350   8.128   2.977   1.179
 3489TIP3   OH210351   7.276   1.751   2.876
 3489TIP3    H110352   7.181   1.760   2.880
 3489TIP3    H210353   7.299   1.702   2.955
 3490TIP3   OH210354   8.081   2.483   1.510
 3490TIP3    H110355   8.085   2.419   1.581
 3490TIP3    H210356   8.142   2.552   1.536
 3491TIP3   OH210357   7.020   2.859   2.527
 3491TIP3    H110358   7.071   2.798   2.581
 3491TIP3    H210359   7.034   2.944   2.567
 3492TIP3   OH210360   7.236   2.491   1.238
 3492TIP3    H110361   7.253   2.402   1.205
 3492TIP3    H210362   7.230   2.481   1.333
 3493TIP3   OH210363   7.220   2.485   1.511
 3493TIP3    H110364   7.286   2.457   1.574
 3493TIP3    H210365   7.219   2.581   1.517
 3494TIP3   OH210366   6.951   2.176   1.711
 3494TIP3    H110367   6.885   2.225   1.761
 3494TIP3    H210368   6.974   2.234   1.638
 3495TIP3   OH210369   8.116   1.806   2.578
 3495TIP3    H110370   8.194   1.853   2.608
 3495TIP3    H210371   8.111   1.729   2.635
 3496TIP3   OH210372   7.988   1.555   1.785
 3496TIP3    H110373   7.957   1.594   1.703
 3496TIP3    H210374   8.033   1.627   1.830
 3497TIP3   OH210375   7.488   2.688   1.435
 3497TIP3    H110376   7.400   2.706   1.467
 3497TIP3    H210377   7.512   2.766   1.385
 3498TIP3   OH210378   7.660   1.720   1.867
 3498TIP3    H110379   7.704   1.803   1.850
 3498TIP3    H210380   7.680   1.701   1.958
 3499TIP3   OH210381   7.963   2.045   2.629
 3499TIP3    H110382   7.989   2.088   2.710
 3499TIP3    H210383   8.012   1.963   2.629
 3500TIP3   OH210384   7.820   1.444   1.968
 3500TIP3    H110385   7.797   1.518   2.024
 3500TIP3    H210386   7.888   1.478   1.910
 3501TIP3   OH210387   7.234   2.757   1.511
 3501TIP3    H110388   7.205   2.826   1.451
 3501TIP3    H210389   7.227   2.797   1.598
 3502TIP3   OH210390   7.352   1.459   1.761
 3502TIP3    H110391   7.341   1.549   1.792
 3502TIP3    H210392   7.446   1.442   1.770
 3503TIP3   OH210393   8.584   1.976   2.630
 3503TIP3    H110394   8.491   1.959   2.618
 3503TIP3    H210395   8.621   1.968   2.542
 3504TIP3   OH210396   8.231   2.166   2.044
 3504TIP3    H110397   8.169   2.119   2.099
 3504TIP3    H210398   8.318   2.140   2.076
 3505TIP3   OH210399   6.975   2.357   1.498
 3505TIP3    H110400   7.049   2.417   1.511
 3505TIP3    H210401   7.003   2.298   1.429
 3506TIP3   OH210402   6.884   1.648   1.625
 3506TIP3    H110403   6.890   1.743   1.629
 3506TIP3    H210404   6.811   1.631   1.565
 3507TIP3   OH210405   8.216   3.124   1.944
 3507TIP3    H110406   8.173   3.188   1.887
 3507TIP3    H210407   8.309   3.145   1.938
 3508TIP3   OH210408   7.289   1.369   2.486
 3508TIP3    H110409   7.260   1.337   2.400
 3508TIP3    H210410   7.281   1.293   2.544
 3509TIP3   OH210411   6.810   2.626   1.875
 3509TIP3    H110412   6.765   2.661   1.952
 3509TIP3    H210413   6.767   2.668   1.801
 3510TIP3   OH210414   7.017   3.164   2.952
 3510TIP3    H110415   7.099   3.170   3.001
 3510TIP3    H210416   7.001   3.071   2.942
 3511TIP3   OH210417   7.482   3.066   2.989
 3511TIP3    H110418   7.573   3.037   2.999
 3511TIP3    H210419   7.447   3.012   2.918
 3512TIP3   OH210420   7.432   2.654   1.126
 3512TIP3    H110421   7.359   2.616   1.175
 3512TIP3    H210422   7.489   2.580   1.107
 3513TIP3   OH210423   8.102   3.010   2.745
 3513TIP3    H110424   8.115   2.940   2.809
 3513TIP3    H210425   8.177   3.068   2.758
 3514TIP3   OH210426   7.951   2.864   0.981
 3514TIP3    H110427   7.904   2.880   1.063
 3514TIP3    H210428   7.937   2.771   0.964
 3515TIP3   OH210429   7.116   2.560   3.133
 3515TIP3    H110430   7.136   2.467   3.146
 3515TIP3    H210431   7.029   2.560   3.095
 3516TIP3   OH210432   7.090   2.172   1.337
 3516TIP3    H110433   7.135   2.146   1.418
 3516TIP3    H210434   7.161   2.185   1.273
 3517TIP3   OH210435   7.740   2.642   2.913
 3517TIP3    H110436   7.695   2.663   2.831
 3517TIP3    H210437   7.776   2.554   2.899
 3518TIP3   OH210438   7.508   2.375   1.204
 3518TIP3    H110439   7.495   2.372   1.298
 3518TIP3    H210440   7.448   2.309   1.169
 3519TIP3   OH210441   8.209   2.686   2.523
 3519TIP3    H110442   8.288   2.714   2.476
 3519TIP3    H210443   8.147   2.757   2.512
 3520TIP3   OH210444   7.232   2.305   3.145
 3520TIP3    H110445   7.307   2.290   3.088
 3520TIP3    H210446   7.270   2.325   3.230
 3521TIP3   OH210447   7.243   2.117   1.566
 3521TIP3    H110448   7.225   2.087   1.655
 3521TIP3    H210449   7.273   2.038   1.520
 3522TIP3   OH210450   7.600   2.189   2.803
 3522TIP3    H110451   7.514   2.229   2.814
 3522TIP3    H210452   7.629   2.218   2.717
 3523TIP3   OH210453   7.327   1.924   1.394
 3523TIP3    H110454   7.303   1.925   1.301
 3523TIP3    H210455   7.423   1.924   1.394
 3524TIP3   OH210456   8.092   2.560   2.876
 3524TIP3    H110457   8.166   2.527   2.825
 3524TIP3    H210458   8.090   2.505   2.954
 3525TIP3   OH210459   8.174   2.121   1.107
 3525TIP3    H110460   8.155   2.082   1.022
 3525TIP3    H210461   8.186   2.214   1.089
 3526TIP3   OH210462   7.700   1.956   2.911
 3526TIP3    H110463   7.703   1.886   2.845
 3526TIP3    H210464   7.668   2.032   2.863
 3527TIP3   OH210465   7.707   1.757   2.707
 3527TIP3    H110466   7.735   1.795   2.624
 3527TIP3    H210467   7.617   1.731   2.693
 3528TIP3   OH210468   7.708   2.286   2.574
 3528TIP3    H110469   7.796   2.324   2.568
 3528TIP3    H210470   7.653   2.346   2.524
 3529TIP3   OH210471   8.305   2.249   2.952
 3529TIP3    H110472   8.353   2.167   2.956
 3529TIP3    H210473   8.373   2.316   2.946
 3530TIP3   OH210474   8.341   2.514   2.689
 3530TIP3    H110475   8.288   2.575   2.638
 3530TIP3    H210476   8.431   2.532   2.662
 3531TIP3   OH210477   7.584   2.037   3.153
 3531TIP3    H110478   7.514   1.974   3.172
 3531TIP3    H210479   7.613   2.014   3.065
 3532TIP3   OH210480   7.829   1.527   2.808
 3532TIP3    H110481   7.790   1.608   2.776
 3532TIP3    H210482   7.761   1.461   2.795
 3533TIP3   OH210483   7.959   1.995   3.010
 3533TIP3    H110484   7.953   1.983   3.104
 3533TIP3    H210485   7.872   1.974   2.977
 3534TIP3   OH210486   8.207   1.953   2.878
 3534TIP3    H110487   8.128   1.952   2.932
 3534TIP3    H210488   8.278   1.930   2.938
 3535TIP3   OH210489   8.432   1.912   3.037
 3535TIP3    H110490   8.444   1.817   3.046
 3535TIP3    H210491   8.428   1.944   3.127
 3536TIP3   OH210492   7.415   1.818   3.216
 3536TIP3    H110493   7.422   1.730   3.179
 3536TIP3    H210494   7.454   1.812   3.303
 3537TIP3   OH210495   7.892   1.501   3.074
 3537TIP3    H110496   7.963   1.437   3.067
 3537TIP3    H210497   7.863   1.515   2.984
 3538TIP3   OH210498   7.991   1.716   3.217
 3538TIP3    H110499   7.959   1.644   3.163
 3538TIP3    H210500   7.919   1.779   3.219
 3539TIP3   OH210501   7.210   2.968   1.335
 3539TIP3    H110502   7.303   2.959   1.318
 3539TIP3    H210503   7.175   3.011   1.257
 3540TIP3   OH210504   6.703   2.353   1.505
 3540TIP3    H110505   6.798   2.364   1.505
 3540TIP3    H210506   6.688   2.267   1.466
 3541TIP3   OH210507   6.613   2.935   1.966
 3541TIP3    H110508   6.548   2.881   1.920
 3541TIP3    H210509   6.658   2.874   2.024
 3542TIP3   OH210510   6.758   2.766   2.131
 3542TIP3    H110511   6.749   2.696   2.195
 3542TIP3    H210512   6.810   2.833   2.175
 3543TIP3   OH210513   8.477   3.207   1.956
 3543TIP3    H110514   8.502   3.213   2.048
 3543TIP3    H210515   8.518   3.283   1.915
 3544TIP3   OH210516   8.512   3.198   2.229
 3544TIP3    H110517   8.463   3.116   2.223
 3544TIP3    H210518   8.584   3.179   2.289
 3545TIP3   OH210519   8.562   2.900   2.790
 3545TIP3    H110520   8.490   2.911   2.852
 3545TIP3    H210521   8.607   2.984   2.791
 3546TIP3   OH210522   8.452   2.446   1.430
 3546TIP3    H110523   8.481   2.497   1.355
 3546TIP3    H210524   8.531   2.433   1.482
 3547TIP3   OH210525   8.429   2.423   1.755
 3547TIP3    H110526   8.399   2.355   1.694
 3547TIP3    H210527   8.509   2.387   1.794
 3548TIP3   OH210528   8.555   2.693   2.019
 3548TIP3    H110529   8.579   2.659   1.933
 3548TIP3    H210530   8.549   2.788   2.007
 3549TIP3   OH210531   8.361   2.968   2.218
 3549TIP3    H110532   8.293   3.010   2.271
 3549TIP3    H210533   8.313   2.927   2.146
 3550TIP3   OH210534   8.422   2.223   1.238
 3550TIP3    H110535   8.347   2.188   1.190
 3550TIP3    H210536   8.385   2.289   1.296
 3551TIP3   OH210537   8.326   1.715   1.055
 3551TIP3    H110538   8.256   1.758   1.105
 3551TIP3    H210539   8.304   1.734   0.964
 3552TIP3   OH210540   8.307   2.024   1.819
 3552TIP3    H110541   8.340   1.958   1.881
 3552TIP3    H210542   8.282   2.098   1.874
 3553TIP3   OH210543   6.931   2.197   2.515
 3553TIP3    H110544   6.921   2.166   2.425
 3553TIP3    H210545   7.026   2.192   2.531
 3554TIP3   OH210546   8.606   2.562   2.615
 3554TIP3    H110547   8.671   2.495   2.596
 3554TIP3    H210548   8.636   2.639   2.565
 3555TIP3   OH210549   8.776   2.340   2.596
 3555TIP3    H110550   8.702   2.307   2.647
 3555TIP3    H210551   8.842   2.272   2.603
 3556TIP3   OH210552   8.209   1.736   1.612
 3556TIP3    H110553   8.270   1.684   1.664
 3556TIP3    H210554   8.231   1.715   1.521
 3557TIP3   OH210555   8.465   2.053   2.132
 3557TIP3    H110556   8.549   2.077   2.093
 3557TIP3    H210557   8.474   2.077   2.225
 3558TIP3   OH210558   8.513   2.176   2.380
 3558TIP3    H110559   8.445   2.206   2.440
 3558TIP3    H210560   8.541   2.255   2.333
 3559TIP3   OH210561   7.152   1.879   3.151
 3559TIP3    H110562   7.246   1.876   3.171
 3559TIP3    H210563   7.117   1.798   3.189
 3560TIP3   OH210564   8.378   1.579   1.745
 3560TIP3    H110565   8.465   1.574   1.786
 3560TIP3    H210566   8.331   1.503   1.778
 3561TIP3   OH210567   7.128   1.594   2.503
 3561TIP3    H110568   7.181   1.515   2.508
 3561TIP3    H210569   7.190   1.664   2.486
 3562TIP3   OH210570   6.907   1.856   2.565
 3562TIP3    H110571   6.959   1.847   2.484
 3562TIP3    H210572   6.933   1.941   2.600
 3563TIP3   OH210573   8.842   1.893   2.748
 3563TIP3    H110574   8.774   1.940   2.796
 3563TIP3    H210575   8.795   1.833   2.691
 3564TIP3   OH210576   6.902   1.358   2.072
 3564TIP3    H110577   6.815   1.344   2.110
 3564TIP3    H210578   6.886   1.417   1.998
 3565TIP3   OH210579   8.027   3.125   1.639
 3565TIP3    H110580   8.076   3.113   1.559
 3565TIP3    H210581   8.075   3.193   1.687
 3566TIP3   OH210582   7.121   1.411   2.886
 3566TIP3    H110583   7.073   1.413   2.969
 3566TIP3    H210584   7.068   1.465   2.827
 3567TIP3   OH210585   7.147   2.879   2.964
 3567TIP3    H110586   7.054   2.859   2.955
 3567TIP3    H210587   7.164   2.870   3.058
 3568TIP3   OH210588   7.360   2.927   2.514
 3568TIP3    H110589   7.310   3.003   2.483
 3568TIP3    H210590   7.445   2.936   2.471
 3569TIP3   OH210591   7.759   3.160   2.650
 3569TIP3    H110592   7.796   3.151   2.738
 3569TIP3    H210593   7.823   3.213   2.602
 3570TIP3   OH210594   7.954   3.312   2.525
 3570TIP3    H110595   8.019   3.257   2.480
 3570TIP3    H210596   8.007   3.370   2.581
 3571TIP3   OH210597   8.703   1.682   2.614
 3571TIP3    H110598   8.621   1.703   2.569
 3571TIP3    H210599   8.748   1.622   2.555
 3572TIP3   OH210600   7.024   3.166   2.562
 3572TIP3    H110601   6.932   3.184   2.539
 3572TIP3    H210602   7.045   3.232   2.628
 3573TIP3   OH210603   7.254   3.160   2.411
 3573TIP3    H110604   7.171   3.164   2.459
 3573TIP3    H210605   7.231   3.182   2.321
 3574TIP3   OH210606   7.664   3.175   2.207
 3574TIP3    H110607   7.593   3.186   2.143
 3574TIP3    H210608   7.674   3.262   2.246
 3575TIP3   OH210609   7.928   3.107   2.243
 3575TIP3    H110610   7.836   3.133   2.233
 3575TIP3    H210611   7.977   3.177   2.201
 3576TIP3   OH210612   8.128   3.284   2.153
 3576TIP3    H110613   8.128   3.372   2.114
 3576TIP3    H210614   8.157   3.227   2.082
 3577TIP3   OH210615   6.933   2.943   2.277
 3577TIP3    H110616   6.959   2.920   2.366
 3577TIP3    H210617   7.004   2.911   2.221
 3578TIP3   OH210618   7.136   2.831   2.135
 3578TIP3    H110619   7.147   2.746   2.179
 3578TIP3    H210620   7.222   2.872   2.140
 3579TIP3   OH210621   7.404   2.914   2.163
 3579TIP3    H110622   7.423   2.822   2.148
 3579TIP3    H210623   7.457   2.938   2.239
 3580TIP3   OH210624   7.978   1.570   2.246
 3580TIP3    H110625   7.945   1.493   2.293
 3580TIP3    H210626   8.042   1.535   2.185
 3581TIP3   OH210627   8.467   1.453   2.109
 3581TIP3    H110628   8.515   1.505   2.044
 3581TIP3    H210629   8.380   1.493   2.111
 3582TIP3   OH210630   8.611   1.554   1.896
 3582TIP3    H110631   8.661   1.532   1.817
 3582TIP3    H210632   8.637   1.644   1.916
 3583TIP3   OH210633   7.201   1.266   2.246
 3583TIP3    H110634   7.113   1.231   2.255
 3583TIP3    H210635   7.257   1.188   2.237
 3584TIP3   OH210636   7.044   1.171   1.907
 3584TIP3    H110637   7.053   1.226   1.829
 3584TIP3    H210638   6.997   1.226   1.970
 3585TIP3   OH210639   7.681   1.288   2.153
 3585TIP3    H110640   7.727   1.343   2.089
 3585TIP3    H210641   7.716   1.315   2.238
 3586TIP3   OH210642   8.181   1.466   2.092
 3586TIP3    H110643   8.192   1.434   2.002
 3586TIP3    H210644   8.174   1.387   2.145
 3587TIP3   OH210645   8.205   1.386   1.826
 3587TIP3    H110646   8.126   1.431   1.798
 3587TIP3    H210647   8.186   1.293   1.810
 3588TIP3   OH210648   6.694   2.746   1.656
 3588TIP3    H110649   6.611   2.714   1.621
 3588TIP3    H210650   6.699   2.837   1.628
 3589TIP3   OH210651   7.127   1.313   1.678
 3589TIP3    H110652   7.169   1.253   1.616
 3589TIP3    H210653   7.199   1.365   1.713
 3590TIP3   OH210654   7.636   1.457   1.761
 3590TIP3    H110655   7.686   1.449   1.842
 3590TIP3    H210656   7.634   1.551   1.742
 3591TIP3   OH210657   7.474   2.927   1.272
 3591TIP3    H110658   7.523   2.993   1.225
 3591TIP3    H210659   7.459   2.858   1.207
 3592TIP3   OH210660   8.154   3.072   1.409
 3592TIP3    H110661   8.138   2.978   1.401
 3592TIP3    H210662   8.118   3.109   1.329
 3593TIP3   OH210663   7.430   1.548   3.125
 3593TIP3    H110664   7.396   1.483   3.186
 3593TIP3    H210665   7.523   1.556   3.149
 3594TIP3   OH210666   7.677   1.553   3.249
 3594TIP3    H110667   7.755   1.532   3.197
 3594TIP3    H210668   7.673   1.484   3.315
 3595TIP3   OH210669   6.786   2.739   1.325
 3595TIP3    H110670   6.794   2.751   1.419
 3595TIP3    H210671   6.867   2.696   1.299
 3596TIP3   OH210672   8.493   1.640   3.044
 3596TIP3    H110673   8.517   1.610   3.131
 3596TIP3    H210674   8.576   1.639   2.995
 3597TIP3   OH210675   8.417   3.176   2.540
 3597TIP3    H110676   8.341   3.147   2.489
 3597TIP3    H210677   8.404   3.270   2.550
 3598TIP3   OH210678   8.678   2.092   1.719
 3598TIP3    H110679   8.670   2.122   1.628
 3598TIP3    H210680   8.615   2.020   1.726
 3599TIP3   OH210681   8.695   2.351   1.780
 3599TIP3    H110682   8.699   2.256   1.778
 3599TIP3    H210683   8.707   2.377   1.688
 3600TIP3   OH210684   8.657   2.628   1.330
 3600TIP3    H110685   8.634   2.666   1.245
 3600TIP3    H210686   8.697   2.700   1.378
 3601TIP3   OH210687   8.760   2.714   2.216
 3601TIP3    H110688   8.694   2.689   2.152
 3601TIP3    H210689   8.789   2.630   2.254
 3602TIP3   OH210690   8.581   2.954   1.932
 3602TIP3    H110691   8.670   2.980   1.955
 3602TIP3    H210692   8.528   3.033   1.944
 3603TIP3   OH210693   8.799   3.141   1.398
 3603TIP3    H110694   8.851   3.135   1.478
 3603TIP3    H210695   8.750   3.059   1.395
 3604TIP3   OH210696   8.883   2.959   2.220
 3604TIP3    H110697   8.940   2.953   2.296
 3604TIP3    H210698   8.842   2.873   2.213
 3605TIP3   OH210699   8.680   1.817   1.885
 3605TIP3    H110700   8.763   1.838   1.842
 3605TIP3    H210701   8.614   1.832   1.817
 3606TIP3   OH210702   8.814   2.488   2.364
 3606TIP3    H110703   8.832   2.445   2.447
 3606TIP3    H210704   8.740   2.440   2.327
 3607TIP3   OH210705   8.681   2.324   1.213
 3607TIP3    H110706   8.697   2.237   1.176
 3607TIP3    H210707   8.586   2.331   1.220
 3608TIP3   OH210708   8.790   3.122   2.017
 3608TIP3    H110709   8.829   3.068   2.087
 3608TIP3    H210710   8.811   3.212   2.042
 3609TIP3   OH210711   8.576   2.946   1.422
 3609TIP3    H110712   8.545   2.984   1.504
 3609TIP3    H210713   8.533   2.998   1.354
 3610TIP3   OH210714   8.769   3.396   2.421
 3610TIP3    H110715   8.851   3.376   2.467
 3610TIP3    H210716   8.725   3.311   2.415
 3611TIP3   OH210717   8.924   2.859   2.603
 3611TIP3    H110718   8.957   2.796   2.667
 3611TIP3    H210719   8.840   2.822   2.574
 3612TIP3   OH210720   8.582   2.719   1.073
 3612TIP3    H110721   8.654   2.672   1.031
 3612TIP3    H210722   8.514   2.653   1.087
 3613TIP3   OH210723   8.411   3.237   1.492
 3613TIP3    H110724   8.382   3.184   1.419
 3613TIP3    H210725   8.433   3.174   1.561
 3614TIP3   OH210726   8.516   3.049   1.667
 3614TIP3    H110727   8.505   2.985   1.737
 3614TIP3    H210728   8.582   3.110   1.699
 3615TIP3   OH210729   8.774   2.414   2.029
 3615TIP3    H110730   8.747   2.399   1.938
 3615TIP3    H210731   8.854   2.465   2.022
 3616TIP3   OH210732   8.932   2.113   2.607
 3616TIP3    H110733   9.026   2.121   2.627
 3616TIP3    H210734   8.904   2.037   2.658
 3617TIP3   OH210735   8.715   2.139   2.064
 3617TIP3    H110736   8.801   2.096   2.061
 3617TIP3    H210737   8.736   2.233   2.059
 3618TIP3   OH210738   8.932   3.194   2.551
 3618TIP3    H110739   8.860   3.147   2.510
 3618TIP3    H210740   8.948   3.148   2.633
 3619TIP3   OH210741   8.822   3.400   2.035
 3619TIP3    H110742   8.732   3.425   2.011
 3619TIP3    H210743   8.851   3.471   2.092
 3620TIP3   OH210744   9.008   3.300   1.831
 3620TIP3    H110745   8.957   3.325   1.908
 3620TIP3    H210746   9.013   3.380   1.779
 3621TIP3   OH210747   8.721   3.204   1.758
 3621TIP3    H110748   8.740   3.183   1.849
 3621TIP3    H210749   8.799   3.176   1.710
 3622TIP3   OH210750   8.950   3.119   1.632
 3622TIP3    H110751   9.008   3.043   1.630
 3622TIP3    H210752   8.989   3.178   1.696
 3623TIP3   OH210753   8.418   3.090   1.258
 3623TIP3    H110754   8.342   3.043   1.225
 3623TIP3    H210755   8.438   3.154   1.190
 3624TIP3   OH210756   8.641   2.908   0.803
 3624TIP3    H110757   8.590   2.937   0.879
 3624TIP3    H210758   8.731   2.901   0.837
 3625TIP3   OH210759   0.357   3.126   3.519
 3625TIP3    H110760   0.323   3.209   3.488
 3625TIP3    H210761   0.300   3.060   3.480
 3626TIP3   OH210762   0.371   3.086   3.860
 3626TIP3    H110763   0.408   3.018   3.917
 3626TIP3    H210764   0.360   3.042   3.776
 3627TIP3   OH210765   9.474   2.875   4.257
 3627TIP3    H110766   9.502   2.840   4.341
 3627TIP3    H210767   9.468   2.970   4.272
 3628TIP3   OH210768   0.609   3.417   3.549
 3628TIP3    H110769   0.597   3.341   3.606
 3628TIP3    H210770   0.637   3.487   3.609
 3629TIP3   OH210771   9.512   3.347   3.937
 3629TIP3    H110772   9.497   3.253   3.938
 3629TIP3    H210773   9.601   3.357   3.902
 3630TIP3   OH210774   0.274   3.827   3.580
 3630TIP3    H110775   0.302   3.758   3.521
 3630TIP3    H210776   0.280   3.787   3.667
 3631TIP3   OH210777   0.193   3.293   3.901
 3631TIP3    H110778   0.241   3.215   3.874
 3631TIP3    H210779   0.261   3.354   3.932
 3632TIP3   OH210780   1.222   2.631   3.924
 3632TIP3    H110781   1.226   2.721   3.956
 3632TIP3    H210782   1.239   2.638   3.830
 3633TIP3   OH210783   9.691   2.482   3.928
 3633TIP3    H110784   9.608   2.481   3.881
 3633TIP3    H210785   9.756   2.456   3.862
 3634TIP3   OH210786   9.394   2.529   3.931
 3634TIP3    H110787   9.367   2.477   4.007
 3634TIP3    H210788   9.386   2.620   3.960
 3635TIP3   OH210789  -0.000   2.856   3.797
 3635TIP3    H110790   0.063   2.817   3.858
 3635TIP3    H210791   0.034   2.833   3.710
 3636TIP3   OH210792   1.257   2.857   4.096
 3636TIP3    H110793   1.168   2.891   4.086
 3636TIP3    H210794   1.288   2.894   4.178
 3637TIP3   OH210795   9.716   2.460   4.360
 3637TIP3    H110796   9.681   2.518   4.292
 3637TIP3    H210797   9.665   2.481   4.438
 3638TIP3   OH210798   0.230   3.328   3.379
 3638TIP3    H110799   0.219   3.303   3.287
 3638TIP3    H210800   0.173   3.405   3.390
 3639TIP3   OH210801   0.028   3.219   4.108
 3639TIP3    H110802  -0.022   3.293   4.143
 3639TIP3    H210803   0.077   3.256   4.035
 3640TIP3   OH210804   0.832   2.566   3.883
 3640TIP3    H110805   0.742   2.557   3.852
 3640TIP3    H210806   0.861   2.652   3.850
 3641TIP3   OH210807   9.629   2.619   4.158
 3641TIP3    H110808   9.557   2.675   4.128
 3641TIP3    H210809   9.659   2.574   4.080
 3642TIP3   OH210810   9.688   3.424   4.227
 3642TIP3    H110811   9.670   3.512   4.192
 3642TIP3    H210812   9.616   3.407   4.288
 3643TIP3   OH210813   0.659   3.645   3.724
 3643TIP3    H110814   0.569   3.634   3.756
 3643TIP3    H210815   0.658   3.729   3.678
 3644TIP3   OH210816   1.018   2.511   4.076
 3644TIP3    H110817   0.940   2.520   4.022
 3644TIP3    H210818   1.090   2.543   4.022
 3645TIP3   OH210819   0.248   2.161   4.137
 3645TIP3    H110820   0.232   2.067   4.143
 3645TIP3    H210821   0.164   2.202   4.157
 3646TIP3   OH210822   0.360   3.658   3.375
 3646TIP3    H110823   0.401   3.573   3.361
 3646TIP3    H210824   0.429   3.722   3.359
 3647TIP3   OH210825   0.544   3.473   3.285
 3647TIP3    H110826   0.538   3.390   3.239
 3647TIP3    H210827   0.574   3.451   3.372
 3648TIP3   OH210828   0.895   3.522   4.072
 3648TIP3    H110829   0.876   3.451   4.011
 3648TIP3    H210830   0.881   3.602   4.022
 3649TIP3   OH210831   0.205   2.961   3.352
 3649TIP3    H110832   0.132   3.012   3.317
 3649TIP3    H210833   0.257   2.937   3.275
 3650TIP3   OH210834   1.072   3.198   3.931
 3650TIP3    H110835   0.986   3.240   3.927
 3650TIP3    H210836   1.106   3.204   3.841
 3651TIP3   OH210837   0.543   3.055   3.324
 3651TIP3    H110838   0.492   3.081   3.400
 3651TIP3    H210839   0.623   3.018   3.361
 3652TIP3   OH210840   0.784   3.061   4.231
 3652TIP3    H110841   0.769   3.142   4.280
 3652TIP3    H210842   0.702   3.046   4.184
 3653TIP3   OH210843   9.558   2.975   3.733
 3653TIP3    H110844   9.536   2.927   3.653
 3653TIP3    H210845   9.640   2.934   3.763
 3654TIP3   OH210846   9.755   3.410   3.823
 3654TIP3    H110847   9.736   3.402   3.730
 3654TIP3    H210848   9.842   3.370   3.833
 3655TIP3   OH210849   9.708   2.980   4.039
 3655TIP3    H110850   9.745   2.945   3.957
 3655TIP3    H210851   9.753   3.063   4.052
 3656TIP3   OH210852   0.414   3.630   3.843
 3656TIP3    H110853   0.412   3.711   3.895
 3656TIP3    H210854   0.407   3.560   3.908
 3657TIP3   OH210855   0.068   3.531   4.408
 3657TIP3    H110856   0.007   3.593   4.449
 3657TIP3    H210857   0.014   3.480   4.348
 3658TIP3   OH210858   0.398   2.888   3.162
 3658TIP3    H110859   0.455   2.950   3.207
 3658TIP3    H210860   0.419   2.898   3.070
 3659TIP3   OH210861   9.731   3.130   4.471
 3659TIP3    H110862   9.754   3.214   4.510
 3659TIP3    H210863   9.642   3.113   4.501
 3660TIP3   OH210864   0.093   3.575   3.370
 3660TIP3    H110865   0.183   3.605   3.386
 3660TIP3    H210866   0.043   3.655   3.356
 3661TIP3   OH210867   9.656   3.718   4.448
 3661TIP3    H110868   9.650   3.702   4.354
 3661TIP3    H210869   9.580   3.674   4.485
 3662TIP3   OH210870   0.711   3.525   2.722
 3662TIP3    H110871   0.654   3.451   2.698
 3662TIP3    H210872   0.798   3.499   2.692
 3663TIP3   OH210873   9.251   3.264   4.445
 3663TIP3    H110874   9.177   3.288   4.389
 3663TIP3    H210875   9.219   3.276   4.534
 3664TIP3   OH210876   1.123   3.901   4.132
 3664TIP3    H110877   1.128   3.806   4.141
 3664TIP3    H210878   1.045   3.925   4.182
 3665TIP3   OH210879   0.252   3.666   4.260
 3665TIP3    H110880   0.247   3.758   4.288
 3665TIP3    H210881   0.183   3.622   4.309
 3666TIP3   OH210882   9.809   3.779   3.188
 3666TIP3    H110883   9.766   3.773   3.102
 3666TIP3    H210884   9.774   3.860   3.226
 3667TIP3   OH210885   9.388   3.546   3.659
 3667TIP3    H110886   9.426   3.610   3.718
 3667TIP3    H210887   9.310   3.514   3.705
 3668TIP3   OH210888   0.204   3.699   2.857
 3668TIP3    H110889   0.264   3.631   2.826
 3668TIP3    H210890   0.236   3.720   2.944
 3669TIP3   OH210891   0.271   3.753   3.120
 3669TIP3    H110892   0.180   3.757   3.150
 3669TIP3    H210893   0.318   3.711   3.193
 3670TIP3   OH210894   1.010   3.006   4.401
 3670TIP3    H110895   0.933   3.019   4.345
 3670TIP3    H210896   1.028   2.912   4.396
 3671TIP3   OH210897   9.509   3.379   4.429
 3671TIP3    H110898   9.565   3.380   4.506
 3671TIP3    H210899   9.426   3.344   4.459
 3672TIP3   OH210900   9.790   2.237   4.217
 3672TIP3    H110901   9.739   2.241   4.135
 3672TIP3    H210902   9.766   2.317   4.263
 3673TIP3   OH210903   0.526   2.374   4.423
 3673TIP3    H110904   0.600   2.342   4.474
 3673TIP3    H210905   0.449   2.336   4.466
 3674TIP3   OH210906   0.783   2.796   4.314
 3674TIP3    H110907   0.746   2.808   4.401
 3674TIP3    H210908   0.766   2.878   4.268
 3675TIP3   OH210909   0.477   2.935   2.901
 3675TIP3    H110910   0.427   2.938   2.820
 3675TIP3    H210911   0.558   2.982   2.882
 3676TIP3   OH210912   9.773   2.855   4.274
 3676TIP3    H110913   9.712   2.788   4.305
 3676TIP3    H210914   9.741   2.876   4.186
 3677TIP3   OH210915   0.268   2.715   3.467
 3677TIP3    H110916   0.241   2.802   3.436
 3677TIP3    H210917   0.354   2.702   3.427
 3678TIP3   OH210918   0.485   2.995   4.557
 3678TIP3    H110919   0.432   2.937   4.612
 3678TIP3    H210920   0.575   2.962   4.567
 3679TIP3   OH210921   9.586   2.793   4.501
 3679TIP3    H110922   9.517   2.833   4.554
 3679TIP3    H210923   9.610   2.714   4.548
 3680TIP3   OH210924   0.543   2.984   4.135
 3680TIP3    H110925   0.543   2.928   4.057
 3680TIP3    H210926   0.482   2.942   4.195
 3681TIP3   OH210927   0.217   2.509   3.820
 3681TIP3    H110928   0.180   2.580   3.873
 3681TIP3    H210929   0.311   2.525   3.820
 3682TIP3   OH210930   0.841   4.239   4.226
 3682TIP3    H110931   0.836   4.252   4.131
 3682TIP3    H210932   0.920   4.286   4.252
 3683TIP3   OH210933   9.695   3.351   4.634
 3683TIP3    H110934   9.738   3.405   4.700
 3683TIP3    H210935   9.625   3.306   4.681
 3684TIP3   OH210936   0.191   2.748   3.957
 3684TIP3    H110937   0.280   2.767   3.929
 3684TIP3    H210938   0.199   2.718   4.047
 3685TIP3   OH210939   0.201   2.698   4.228
 3685TIP3    H110940   0.120   2.747   4.241
 3685TIP3    H210941   0.270   2.759   4.255
 3686TIP3   OH210942   9.763   3.103   3.280
 3686TIP3    H110943   9.699   3.036   3.254
 3686TIP3    H210944   9.742   3.122   3.371
 3687TIP3   OH210945   0.836   3.333   3.885
 3687TIP3    H110946   0.873   3.381   3.811
 3687TIP3    H210947   0.760   3.287   3.849
 3688TIP3   OH210948   0.367   3.408   4.293
 3688TIP3    H110949   0.447   3.418   4.345
 3688TIP3    H210950   0.329   3.496   4.290
 3689TIP3   OH210951   0.502   2.676   3.319
 3689TIP3    H110952   0.597   2.689   3.317
 3689TIP3    H210953   0.468   2.736   3.252
 3690TIP3   OH210954   9.439   3.072   3.963
 3690TIP3    H110955   9.472   3.038   3.880
 3690TIP3    H210956   9.502   3.042   4.028
 3691TIP3   OH210957   0.138   3.258   3.120
 3691TIP3    H110958   0.084   3.333   3.095
 3691TIP3    H210959   0.077   3.199   3.165
 3692TIP3   OH210960   9.358   2.900   4.622
 3692TIP3    H110961   9.310   2.924   4.701
 3692TIP3    H210962   9.291   2.869   4.561
 3693TIP3   OH210963   0.515   3.707   4.187
 3693TIP3    H110964   0.421   3.690   4.189
 3693TIP3    H210965   0.534   3.745   4.273
 3694TIP3   OH210966   0.914   2.748   3.081
 3694TIP3    H110967   0.851   2.710   3.021
 3694TIP3    H210968   0.936   2.833   3.042
 3695TIP3   OH210969   1.140   3.626   4.153
 3695TIP3    H110970   1.048   3.600   4.155
 3695TIP3    H210971   1.173   3.590   4.070
 3696TIP3   OH210972   0.638   3.557   3.019
 3696TIP3    H110973   0.606   3.572   3.108
 3696TIP3    H210974   0.640   3.461   3.010
 3697TIP3   OH210975   0.622   3.193   3.777
 3697TIP3    H110976   0.532   3.173   3.802
 3697TIP3    H210977   0.658   3.109   3.747
 3698TIP3   OH210978   9.625   3.421   3.580
 3698TIP3    H110979   9.647   3.479   3.507
 3698TIP3    H210980   9.541   3.453   3.613
 3699TIP3   OH210981   9.665   3.152   3.531
 3699TIP3    H110982   9.651   3.246   3.542
 3699TIP3    H210983   9.632   3.114   3.612
 3700TIP3   OH210984   0.098   3.755   4.040
 3700TIP3    H110985   0.133   3.835   4.001
 3700TIP3    H210986   0.168   3.725   4.099
 3701TIP3   OH210987   9.549   3.661   3.430
 3701TIP3    H110988   9.499   3.679   3.509
 3701TIP3    H210989   9.625   3.718   3.435
 3702TIP3   OH210990   0.413   3.412   4.020
 3702TIP3    H110991   0.398   3.402   4.114
 3702TIP3    H210992   0.488   3.355   4.001
 3703TIP3   OH210993   0.382   3.271   2.918
 3703TIP3    H110994   0.443   3.261   2.991
 3703TIP3    H210995   0.296   3.258   2.957
 3704TIP3   OH210996   0.660   3.927   4.074
 3704TIP3    H110997   0.589   3.863   4.082
 3704TIP3    H210998   0.637   3.979   3.997
 3705TIP3   OH210999   9.594   2.528   4.604
 3705TIP3    H111000   9.533   2.556   4.672
 3705TIP3    H211001   9.653   2.467   4.649
 3706TIP3   OH211002   0.558   3.244   3.127
 3706TIP3    H111003   0.541   3.176   3.192
 3706TIP3    H211004   0.653   3.242   3.114
 3707TIP3   OH211005   9.169   3.707   4.213
 3707TIP3    H111006   9.095   3.651   4.237
 3707TIP3    H211007   9.246   3.661   4.248
 3708TIP3   OH211008   9.502   3.317   3.285
 3708TIP3    H111009   9.583   3.266   3.273
 3708TIP3    H211010   9.512   3.391   3.225
 3709TIP3   OH211011   0.550   2.644   4.380
 3709TIP3    H111012   0.615   2.652   4.310
 3709TIP3    H211013   0.532   2.550   4.384
 3710TIP3   OH211014   0.588   2.417   3.396
 3710TIP3    H111015   0.523   2.376   3.454
 3710TIP3    H211016   0.548   2.499   3.369
 3711TIP3   OH211017   9.780   3.487   3.098
 3711TIP3    H111018   9.688   3.505   3.118
 3711TIP3    H211019   9.829   3.533   3.166
 3712TIP3   OH211020   0.239   2.456   3.551
 3712TIP3    H111021   0.245   2.542   3.508
 3712TIP3    H211022   0.211   2.476   3.640
 3713TIP3   OH211023   0.394   2.864   4.334
 3713TIP3    H111024   0.416   2.919   4.409
 3713TIP3    H211025   0.443   2.783   4.348
 3714TIP3   OH211026   0.401   2.289   3.696
 3714TIP3    H111027   0.341   2.285   3.771
 3714TIP3    H211028   0.351   2.335   3.628
 3715TIP3   OH211029   9.530   3.569   3.171
 3715TIP3    H111030   9.476   3.630   3.121
 3715TIP3    H211031   9.527   3.602   3.260
 3716TIP3   OH211032   1.043   2.727   4.302
 3716TIP3    H111033   0.948   2.740   4.309
 3716TIP3    H211034   1.055   2.680   4.220
 3717TIP3   OH211035   0.705   2.928   3.718
 3717TIP3    H111036   0.634   2.882   3.761
 3717TIP3    H211037   0.785   2.891   3.756
 3718TIP3   OH211038   0.673   3.909   3.635
 3718TIP3    H111039   0.626   3.957   3.566
 3718TIP3    H211040   0.765   3.932   3.621
 3719TIP3   OH211041   1.680   4.536   1.256
 3719TIP3    H111042   1.621   4.509   1.186
 3719TIP3    H211043   1.762   4.489   1.238
 3720TIP3   OH211044   9.751   3.876   4.658
 3720TIP3    H111045   9.840   3.842   4.670
 3720TIP3    H211046   9.717   3.828   4.583
 3721TIP3   OH211047   0.557   3.796   4.444
 3721TIP3    H111048   0.572   3.726   4.507
 3721TIP3    H211049   0.633   3.854   4.456
 3722TIP3   OH211050   0.383   3.513   2.769
 3722TIP3    H111051   0.385   3.429   2.814
 3722TIP3    H211052   0.423   3.496   2.683
 3723TIP3   OH211053   9.428   3.289   4.852
 3723TIP3    H111054   9.413   3.201   4.819
 3723TIP3    H211055   9.379   3.346   4.794
 3724TIP3   OH211056   0.242   3.437   4.603
 3724TIP3    H111057   0.187   3.447   4.525
 3724TIP3    H211058   0.322   3.396   4.571
 3725TIP3   OH211059   0.667   3.480   4.225
 3725TIP3    H111060   0.748   3.495   4.176
 3725TIP3    H211061   0.611   3.554   4.204
 3726TIP3   OH211062   9.622   3.023   4.833
 3726TIP3    H111063   9.675   2.951   4.867
 3726TIP3    H211064   9.621   3.088   4.903
 3727TIP3   OH211065   0.532   3.344   4.571
 3727TIP3    H111066   0.599   3.310   4.512
 3727TIP3    H211067   0.533   3.283   4.646
 3728TIP3   OH211068   0.186   2.492   4.414
 3728TIP3    H111069   0.212   2.553   4.344
 3728TIP3    H211070   0.093   2.475   4.396
 3729TIP3   OH211071   0.191   3.089   4.291
 3729TIP3    H111072   0.286   3.080   4.284
 3729TIP3    H211073   0.167   3.152   4.222
 3730TIP3   OH211074   0.804   3.011   4.728
 3730TIP3    H111075   0.778   2.941   4.669
 3730TIP3    H211076   0.876   3.056   4.683
 3731TIP3   OH211077   0.781   3.297   4.389
 3731TIP3    H111078   0.732   3.361   4.338
 3731TIP3    H211079   0.871   3.306   4.359
 3732TIP3   OH211080   0.278   2.280   4.551
 3732TIP3    H111081   0.255   2.363   4.510
 3732TIP3    H211082   0.220   2.216   4.510
 3733TIP3   OH211083   0.350   2.806   4.695
 3733TIP3    H111084   0.303   2.802   4.777
 3733TIP3    H211085   0.374   2.715   4.677
 3734TIP3   OH211086   0.697   2.799   4.577
 3734TIP3    H111087   0.634   2.735   4.544
 3734TIP3    H211088   0.764   2.747   4.621
 3735TIP3   OH211089   0.898   2.671   4.718
 3735TIP3    H111090   0.905   2.576   4.717
 3735TIP3    H211091   0.889   2.693   4.811
 3736TIP3   OH211092   9.738   2.615   4.935
 3736TIP3    H111093   9.738   2.545   4.871
 3736TIP3    H211094   9.774   2.575   5.015
 3737TIP3   OH211095   0.413   2.563   4.857
 3737TIP3    H111096   0.372   2.479   4.876
 3737TIP3    H211097   0.348   2.628   4.881
 3738TIP3   OH211098   9.468   3.787   2.982
 3738TIP3    H111099   9.561   3.775   2.963
 3738TIP3    H211100   9.423   3.747   2.907
 3739TIP3   OH211101   0.931   3.995   3.622
 3739TIP3    H111102   0.967   4.005   3.710
 3739TIP3    H211103   1.005   4.015   3.564
 3740TIP3   OH211104   0.969   3.987   3.908
 3740TIP3    H111105   0.923   3.904   3.901
 3740TIP3    H211106   1.039   3.971   3.972
 3741TIP3   OH211107   1.024   3.689   4.490
 3741TIP3    H111108   0.954   3.700   4.554
 3741TIP3    H211109   1.069   3.774   4.488
 3742TIP3   OH211110   0.826   3.243   3.111
 3742TIP3    H111111   0.892   3.298   3.069
 3742TIP3    H211112   0.877   3.179   3.162
 3743TIP3   OH211113   0.954   3.061   3.289
 3743TIP3    H111114   0.886   3.024   3.345
 3743TIP3    H211115   1.020   3.096   3.349
 3744TIP3   OH211116   1.023   3.464   3.722
 3744TIP3    H111117   1.071   3.390   3.683
 3744TIP3    H211118   1.033   3.534   3.658
 3745TIP3   OH211119   0.826   3.746   3.925
 3745TIP3    H111120   0.758   3.794   3.974
 3745TIP3    H211121   0.779   3.707   3.851
 3746TIP3   OH211122   0.747   2.651   2.891
 3746TIP3    H111123   0.734   2.711   2.817
 3746TIP3    H211124   0.709   2.568   2.862
 3747TIP3   OH211125   0.760   2.933   3.444
 3747TIP3    H111126   0.769   2.842   3.417
 3747TIP3    H211127   0.742   2.929   3.537
 3748TIP3   OH211128   9.189   3.060   4.183
 3748TIP3    H111129   9.158   3.007   4.110
 3748TIP3    H211130   9.282   3.073   4.165
 3749TIP3   OH211131   1.035   3.336   4.287
 3749TIP3    H111132   1.105   3.272   4.271
 3749TIP3    H211133   1.029   3.386   4.205
 3750TIP3   OH211134   1.224   3.132   4.286
 3750TIP3    H111135   1.149   3.088   4.326
 3750TIP3    H211136   1.299   3.078   4.310
 3751TIP3   OH211137   0.781   2.684   3.319
 3751TIP3    H111138   0.813   2.597   3.343
 3751TIP3    H211139   0.829   2.706   3.239
 3752TIP3   OH211140   0.934   2.824   3.835
 3752TIP3    H111141   1.017   2.839   3.789
 3752TIP3    H211142   0.949   2.860   3.923
 3753TIP3   OH211143   1.002   2.970   4.068
 3753TIP3    H111144   0.923   2.997   4.116
 3753TIP3    H211145   1.029   3.048   4.019
 3754TIP3   OH211146   9.466   2.619   4.832
 3754TIP3    H111147   9.541   2.636   4.889
 3754TIP3    H211148   9.402   2.687   4.855
 3755TIP3   OH211149   1.441   2.560   4.599
 3755TIP3    H111150   1.508   2.505   4.558
 3755TIP3    H211151   1.403   2.609   4.527
 3756TIP3   OH211152   0.863   2.416   3.367
 3756TIP3    H111153   0.898   2.383   3.449
 3756TIP3    H211154   0.768   2.403   3.374
 3757TIP3   OH211155   9.135   2.669   4.192
 3757TIP3    H111156   9.194   2.707   4.128
 3757TIP3    H211157   9.145   2.725   4.270
 3758TIP3   OH211158   1.295   2.668   4.394
 3758TIP3    H111159   1.208   2.707   4.390
 3758TIP3    H211160   1.286   2.585   4.346
 3759TIP3   OH211161   1.056   2.277   3.018
 3759TIP3    H111162   0.984   2.270   2.955
 3759TIP3    H211163   1.075   2.371   3.023
 3760TIP3   OH211164   0.561   3.825   3.309
 3760TIP3    H111165   0.653   3.806   3.295
 3760TIP3    H211166   0.560   3.912   3.350
 3761TIP3   OH211167   9.408   2.186   4.640
 3761TIP3    H111168   9.398   2.240   4.718
 3761TIP3    H211169   9.375   2.240   4.568
 3762TIP3   OH211170   9.442   3.633   4.596
 3762TIP3    H111171   9.406   3.718   4.621
 3762TIP3    H211172   9.485   3.601   4.675
 3763TIP3   OH211173   9.670   3.693   4.176
 3763TIP3    H111174   9.600   3.743   4.136
 3763TIP3    H211175   9.749   3.719   4.128
 3764TIP3   OH211176   0.250   3.930   4.325
 3764TIP3    H111177   0.280   3.936   4.416
 3764TIP3    H211178   0.310   3.987   4.277
 3765TIP3   OH211179   0.431   4.099   4.207
 3765TIP3    H111180   0.500   4.051   4.161
 3765TIP3    H211181   0.477   4.159   4.265
 3766TIP3   OH211182   1.214   2.420   4.295
 3766TIP3    H111183   1.130   2.417   4.250
 3766TIP3    H211184   1.247   2.330   4.290
 3767TIP3   OH211185   9.509   3.889   4.068
 3767TIP3    H111186   9.428   3.891   4.120
 3767TIP3    H211187   9.484   3.928   3.984
 3768TIP3   OH211188   0.163   3.977   3.889
 3768TIP3    H111189   0.087   3.975   3.830
 3768TIP3    H211190   0.159   4.063   3.929
 3769TIP3   OH211191   0.413   3.891   3.934
 3769TIP3    H111192   0.323   3.918   3.917
 3769TIP3    H211193   0.467   3.957   3.890
 3770TIP3   OH211194   0.604   4.074   3.842
 3770TIP3    H111195   0.596   4.161   3.802
 3770TIP3    H211196   0.630   4.017   3.770
 3771TIP3   OH211197   9.228   3.732   3.947
 3771TIP3    H111198   9.198   3.728   4.038
 3771TIP3    H211199   9.317   3.697   3.950
 3772TIP3   OH211200   9.471   3.621   3.915
 3772TIP3    H111201   9.488   3.528   3.930
 3772TIP3    H211202   9.557   3.659   3.896
 3773TIP3   OH211203   9.727   3.688   3.841
 3773TIP3    H111204   9.742   3.595   3.824
 3773TIP3    H211205   9.791   3.710   3.908
 3774TIP3   OH211206   0.920   2.234   3.815
 3774TIP3    H111207   0.954   2.290   3.745
 3774TIP3    H211208   0.827   2.256   3.821
 3775TIP3   OH211209   1.030   2.328   3.577
 3775TIP3    H111210   1.107   2.281   3.544
 3775TIP3    H211211   1.058   2.419   3.583
 3776TIP3   OH211212   0.650   2.254   3.810
 3776TIP3    H111213   0.569   2.268   3.762
 3776TIP3    H211214   0.632   2.178   3.866
 3777TIP3   OH211215   9.731   3.716   2.929
 3777TIP3    H111216   9.809   3.738   2.879
 3777TIP3    H211217   9.742   3.624   2.954
 3778TIP3   OH211218   9.739   2.377   4.799
 3778TIP3    H111219   9.690   2.307   4.843
 3778TIP3    H211220   9.831   2.358   4.820
 3779TIP3   OH211221   0.944   2.397   4.715
 3779TIP3    H111222   0.963   2.372   4.805
 3779TIP3    H211223   1.030   2.399   4.672
 3780TIP3   OH211224   0.878   3.966   4.241
 3780TIP3    H111225   0.805   3.938   4.186
 3780TIP3    H211226   0.868   4.061   4.246
 3781TIP3   OH211227   2.149   3.358   2.982
 3781TIP3    H111228   2.118   3.443   2.950
 3781TIP3    H211229   2.078   3.297   2.959
 3782TIP3   OH211230   2.163   3.353   3.399
 3782TIP3    H111231   2.213   3.328   3.477
 3782TIP3    H211232   2.115   3.274   3.376
 3783TIP3   OH211233   1.440   3.201   3.745
 3783TIP3    H111234   1.482   3.148   3.812
 3783TIP3    H211235   1.512   3.227   3.687
 3784TIP3   OH211236   2.421   3.654   3.071
 3784TIP3    H111237   2.407   3.586   3.137
 3784TIP3    H211238   2.439   3.733   3.121
 3785TIP3   OH211239   1.423   3.642   3.437
 3785TIP3    H111240   1.413   3.547   3.432
 3785TIP3    H211241   1.516   3.657   3.425
 3786TIP3   OH211242   1.128   2.839   3.242
 3786TIP3    H111243   1.084   2.923   3.255
 3786TIP3    H211244   1.063   2.784   3.199
 3787TIP3   OH211245   1.187   3.132   3.430
 3787TIP3    H111246   1.238   3.055   3.456
 3787TIP3    H211247   1.245   3.181   3.372
 3788TIP3   OH211248   2.077   4.077   3.087
 3788TIP3    H111249   2.100   4.019   3.015
 3788TIP3    H211250   2.083   4.023   3.165
 3789TIP3   OH211251   1.941   3.573   3.395
 3789TIP3    H111252   1.980   3.498   3.351
 3789TIP3    H211253   2.015   3.624   3.427
 3790TIP3   OH211254   2.996   2.881   3.419
 3790TIP3    H111255   3.008   2.967   3.459
 3790TIP3    H211256   3.024   2.892   3.328
 3791TIP3   OH211257   2.371   3.054   3.441
 3791TIP3    H111258   2.400   2.967   3.468
 3791TIP3    H211259   2.331   3.041   3.355
 3792TIP3   OH211260   1.716   2.717   3.383
 3792TIP3    H111261   1.698   2.794   3.330
 3792TIP3    H211262   1.658   2.649   3.349
 3793TIP3   OH211263   2.422   2.812   3.041
 3793TIP3    H111264   2.488   2.806   3.110
 3793TIP3    H211265   2.468   2.850   2.966
 3794TIP3   OH211266   1.347   2.925   3.521
 3794TIP3    H111267   1.433   2.912   3.562
 3794TIP3    H211268   1.352   2.877   3.438
 3795TIP3   OH211269   1.775   3.140   3.367
 3795TIP3    H111270   1.869   3.125   3.361
 3795TIP3    H211271   1.735   3.064   3.324
 3796TIP3   OH211272   3.042   3.107   3.581
 3796TIP3    H111273   2.955   3.146   3.571
 3796TIP3    H211274   3.076   3.144   3.662
 3797TIP3   OH211275   1.697   2.718   3.843
 3797TIP3    H111276   1.651   2.754   3.767
 3797TIP3    H211277   1.640   2.737   3.917
 3798TIP3   OH211278   2.049   3.572   2.836
 3798TIP3    H111279   2.002   3.529   2.765
 3798TIP3    H211280   1.993   3.645   2.861
 3799TIP3   OH211281   1.789   3.496   3.613
 3799TIP3    H111282   1.735   3.568   3.644
 3799TIP3    H211283   1.835   3.531   3.537
 3800TIP3   OH211284   2.581   2.828   3.264
 3800TIP3    H111285   2.533   2.812   3.346
 3800TIP3    H211286   2.632   2.907   3.282
 3801TIP3   OH211287   1.598   2.826   3.609
 3801TIP3    H111288   1.653   2.901   3.630
 3801TIP3    H211289   1.639   2.787   3.532
 3802TIP3   OH211290   1.633   3.699   3.717
 3802TIP3    H111291   1.619   3.788   3.686
 3802TIP3    H211292   1.555   3.678   3.768
 3803TIP3   OH211293   0.997   3.430   2.976
 3803TIP3    H111294   0.963   3.436   2.887
 3803TIP3    H211295   1.069   3.367   2.969
 3804TIP3   OH211296   2.451   3.902   3.214
 3804TIP3    H111297   2.363   3.895   3.250
 3804TIP3    H211298   2.451   3.984   3.165
 3805TIP3   OH211299   2.796   2.764   3.584
 3805TIP3    H111300   2.710   2.787   3.548
 3805TIP3    H211301   2.858   2.794   3.517
 3806TIP3   OH211302   2.038   2.407   3.577
 3806TIP3    H111303   2.031   2.315   3.603
 3806TIP3    H211304   1.963   2.449   3.617
 3807TIP3   OH211305   2.161   3.939   2.863
 3807TIP3    H111306   2.211   3.858   2.854
 3807TIP3    H211307   2.222   4.007   2.836
 3808TIP3   OH211308   2.296   3.707   2.829
 3808TIP3    H111309   2.224   3.643   2.824
 3808TIP3    H211310   2.347   3.678   2.905
 3809TIP3   OH211311   2.690   3.783   3.554
 3809TIP3    H111312   2.669   3.710   3.496
 3809TIP3    H211313   2.675   3.861   3.501
 3810TIP3   OH211314   1.958   3.191   2.868
 3810TIP3    H111315   1.877   3.159   2.907
 3810TIP3    H211316   1.935   3.214   2.778
 3811TIP3   OH211317   1.952   3.001   2.524
 3811TIP3    H111318   2.015   3.049   2.578
 3811TIP3    H211319   2.006   2.937   2.477
 3812TIP3   OH211320   2.864   3.450   3.421
 3812TIP3    H111321   2.779   3.494   3.417
 3812TIP3    H211322   2.900   3.460   3.333
 3813TIP3   OH211323   2.333   3.294   2.790
 3813TIP3    H111324   2.278   3.320   2.864
 3813TIP3    H211325   2.415   3.266   2.829
 3814TIP3   OH211326   2.566   3.309   3.733
 3814TIP3    H111327   2.560   3.392   3.779
 3814TIP3    H211328   2.485   3.303   3.683
 3815TIP3   OH211329   1.596   3.276   3.200
 3815TIP3    H111330   1.596   3.222   3.121
 3815TIP3    H211331   1.666   3.240   3.254
 3816TIP3   OH211332   1.685   3.690   3.335
 3816TIP3    H111333   1.657   3.675   3.245
 3816TIP3    H211334   1.771   3.650   3.340
 3817TIP3   OH211335   1.653   3.261   3.577
 3817TIP3    H111336   1.695   3.222   3.500
 3817TIP3    H211337   1.700   3.343   3.592
 3818TIP3   OH211338   2.210   3.899   3.341
 3818TIP3    H111339   2.200   3.976   3.397
 3818TIP3    H211340   2.195   3.825   3.400
 3819TIP3   OH211341   1.833   3.792   3.886
 3819TIP3    H111342   1.771   3.849   3.932
 3819TIP3    H211343   1.779   3.741   3.826
 3820TIP3   OH211344   2.173   3.132   2.632
 3820TIP3    H111345   2.215   3.198   2.688
 3820TIP3    H211346   2.209   3.149   2.544
 3821TIP3   OH211347   1.584   3.331   4.045
 3821TIP3    H111348   1.588   3.427   4.054
 3821TIP3    H211349   1.491   3.313   4.033
 3822TIP3   OH211350   1.913   3.812   2.878
 3822TIP3    H111351   1.994   3.863   2.878
 3822TIP3    H211352   1.854   3.861   2.820
 3823TIP3   OH211353   1.622   3.951   3.969
 3823TIP3    H111354   1.599   3.962   3.877
 3823TIP3    H211355   1.539   3.937   4.014
 3824TIP3   OH211356   2.676   2.359   2.684
 3824TIP3    H111357   2.601   2.385   2.737
 3824TIP3    H211358   2.694   2.435   2.628
 3825TIP3   OH211359   2.506   3.745   2.233
 3825TIP3    H111360   2.497   3.837   2.208
 3825TIP3    H211361   2.596   3.723   2.210
 3826TIP3   OH211362   1.218   3.505   3.922
 3826TIP3    H111363   1.151   3.487   3.856
 3826TIP3    H211364   1.252   3.419   3.945
 3827TIP3   OH211365   1.116   3.680   3.558
 3827TIP3    H111366   1.202   3.660   3.521
 3827TIP3    H211367   1.132   3.754   3.617
 3828TIP3   OH211368   2.917   4.156   3.623
 3828TIP3    H111369   2.923   4.061   3.632
 3828TIP3    H211370   2.838   4.180   3.670
 3829TIP3   OH211371   2.023   3.936   3.750
 3829TIP3    H111372   2.013   4.027   3.778
 3829TIP3    H211373   1.956   3.888   3.798
 3830TIP3   OH211374   1.803   4.032   2.703
 3830TIP3    H111375   1.766   4.008   2.618
 3830TIP3    H211376   1.759   4.114   2.725
 3831TIP3   OH211377   1.224   3.910   3.079
 3831TIP3    H111378   1.272   3.894   3.160
 3831TIP3    H211379   1.170   3.832   3.067
 3832TIP3   OH211380   2.011   3.969   2.340
 3832TIP3    H111381   2.061   3.895   2.307
 3832TIP3    H211382   2.042   3.980   2.430
 3833TIP3   OH211383   2.059   4.015   2.607
 3833TIP3    H111384   1.970   4.016   2.643
 3833TIP3    H211385   2.112   3.973   2.675
 3834TIP3   OH211386   2.806   3.270   3.896
 3834TIP3    H111387   2.726   3.279   3.844
 3834TIP3    H211388   2.826   3.177   3.893
 3835TIP3   OH211389   1.416   3.694   3.888
 3835TIP3    H111390   1.468   3.680   3.967
 3835TIP3    H211391   1.345   3.630   3.894
 3836TIP3   OH211392   1.803   2.500   3.703
 3836TIP3    H111393   1.720   2.468   3.668
 3836TIP3    H211394   1.781   2.582   3.746
 3837TIP3   OH211395   2.343   2.622   3.906
 3837TIP3    H111396   2.412   2.599   3.968
 3837TIP3    H211397   2.261   2.606   3.953
 3838TIP3   OH211398   2.565   3.042   3.821
 3838TIP3    H111399   2.525   3.039   3.909
 3838TIP3    H211400   2.550   3.132   3.791
 3839TIP3   OH211401   2.280   3.161   2.386
 3839TIP3    H111402   2.234   3.147   2.304
 3839TIP3    H211403   2.363   3.203   2.361
 3840TIP3   OH211404   1.961   2.535   2.676
 3840TIP3    H111405   1.929   2.542   2.766
 3840TIP3    H211406   1.910   2.463   2.638
 3841TIP3   OH211407   1.746   3.036   3.714
 3841TIP3    H111408   1.698   3.040   3.797
 3841TIP3    H211409   1.723   3.118   3.670
 3842TIP3   OH211410   1.632   2.936   3.246
 3842TIP3    H111411   1.542   2.901   3.243
 3842TIP3    H211412   1.646   2.973   3.159
 3843TIP3   OH211413   2.120   2.996   2.968
 3843TIP3    H111414   2.064   3.065   2.932
 3843TIP3    H211415   2.167   2.962   2.892
 3844TIP3   OH211416   2.285   3.251   4.032
 3844TIP3    H111417   2.259   3.183   4.094
 3844TIP3    H211418   2.378   3.267   4.051
 3845TIP3   OH211419   2.275   2.999   3.191
 3845TIP3    H111420   2.210   3.022   3.125
 3845TIP3    H211421   2.321   2.924   3.154
 3846TIP3   OH211422   1.582   3.050   3.935
 3846TIP3    H111423   1.590   3.114   4.005
 3846TIP3    H211424   1.563   2.968   3.979
 3847TIP3   OH211425   1.604   2.547   2.651
 3847TIP3    H111426   1.610   2.624   2.707
 3847TIP3    H211427   1.529   2.564   2.594
 3848TIP3   OH211428   1.151   2.569   3.555
 3848TIP3    H111429   1.234   2.607   3.585
 3848TIP3    H211430   1.162   2.559   3.461
 3849TIP3   OH211431   1.100   2.549   3.023
 3849TIP3    H111432   1.144   2.593   2.951
 3849TIP3    H211433   1.032   2.610   3.051
 3850TIP3   OH211434   2.317   3.254   3.613
 3850TIP3    H111435   2.342   3.188   3.549
 3850TIP3    H211436   2.269   3.206   3.680
 3851TIP3   OH211437   1.985   2.687   3.298
 3851TIP3    H111438   1.901   2.697   3.341
 3851TIP3    H211439   2.049   2.691   3.369
 3852TIP3   OH211440   1.395   2.789   3.289
 3852TIP3    H111441   1.304   2.795   3.258
 3852TIP3    H211442   1.420   2.699   3.270
 3853TIP3   OH211443   1.635   2.741   2.966
 3853TIP3    H111444   1.685   2.821   2.986
 3853TIP3    H211445   1.576   2.767   2.896
 3854TIP3   OH211446   2.433   2.791   3.501
 3854TIP3    H111447   2.412   2.811   3.593
 3854TIP3    H211448   2.365   2.729   3.474
 3855TIP3   OH211449   1.497   2.797   2.737
 3855TIP3    H111450   1.446   2.764   2.663
 3855TIP3    H211451   1.562   2.855   2.697
 3856TIP3   OH211452   2.631   4.495   3.713
 3856TIP3    H111453   2.628   4.508   3.619
 3856TIP3    H211454   2.710   4.540   3.742
 3857TIP3   OH211455   1.568   3.604   4.122
 3857TIP3    H111456   1.649   3.624   4.168
 3857TIP3    H211457   1.500   3.614   4.188
 3858TIP3   OH211458   2.049   3.083   3.392
 3858TIP3    H111459   2.107   3.033   3.335
 3858TIP3    H211460   2.045   3.033   3.473
 3859TIP3   OH211461   1.532   2.537   3.272
 3859TIP3    H111462   1.497   2.461   3.320
 3859TIP3    H211463   1.564   2.500   3.190
 3860TIP3   OH211464   2.008   2.969   3.654
 3860TIP3    H111465   1.921   3.004   3.673
 3860TIP3    H211466   2.067   3.024   3.705
 3861TIP3   OH211467   1.679   3.344   2.793
 3861TIP3    H111468   1.665   3.253   2.820
 3861TIP3    H211469   1.697   3.391   2.875
 3862TIP3   OH211470   2.629   3.585   3.373
 3862TIP3    H111471   2.665   3.633   3.299
 3862TIP3    H211472   2.550   3.543   3.339
 3863TIP3   OH211473   2.210   2.642   2.691
 3863TIP3    H111474   2.117   2.622   2.683
 3863TIP3    H211475   2.215   2.737   2.700
 3864TIP3   OH211476   2.153   3.671   3.782
 3864TIP3    H111477   2.204   3.662   3.862
 3864TIP3    H211478   2.112   3.758   3.789
 3865TIP3   OH211479   2.271   2.905   2.748
 3865TIP3    H111480   2.365   2.916   2.756
 3865TIP3    H211481   2.242   2.982   2.699
 3866TIP3   OH211482   1.441   3.365   3.412
 3866TIP3    H111483   1.480   3.340   3.328
 3866TIP3    H211484   1.498   3.325   3.477
 3867TIP3   OH211485   1.875   3.463   2.640
 3867TIP3    H111486   1.839   3.551   2.632
 3867TIP3    H211487   1.807   3.414   2.688
 3868TIP3   OH211488   1.310   3.271   4.056
 3868TIP3    H111489   1.306   3.241   4.147
 3868TIP3    H211490   1.236   3.227   4.013
 3869TIP3   OH211491   2.056   3.410   4.076
 3869TIP3    H111492   1.986   3.352   4.047
 3869TIP3    H211493   2.136   3.368   4.043
 3870TIP3   OH211494   2.294   3.962   3.674
 3870TIP3    H111495   2.200   3.947   3.677
 3870TIP3    H211496   2.316   3.996   3.761
 3871TIP3   OH211497   2.683   3.011   2.575
 3871TIP3    H111498   2.624   2.967   2.513
 3871TIP3    H211499   2.692   3.100   2.541
 3872TIP3   OH211500   2.934   3.880   3.640
 3872TIP3    H111501   2.841   3.857   3.638
 3872TIP3    H211502   2.968   3.846   3.557
 3873TIP3   OH211503   2.423   3.809   2.499
 3873TIP3    H111504   2.392   3.737   2.554
 3873TIP3    H211505   2.443   3.767   2.415
 3874TIP3   OH211506   2.405   3.448   3.269
 3874TIP3    H111507   2.315   3.426   3.295
 3874TIP3    H211508   2.439   3.368   3.229
 3875TIP3   OH211509   1.543   3.690   3.093
 3875TIP3    H111510   1.541   3.767   3.036
 3875TIP3    H211511   1.454   3.654   3.086
 3876TIP3   OH211512   1.700   3.472   3.031
 3876TIP3    H111513   1.653   3.554   3.050
 3876TIP3    H211514   1.666   3.409   3.095
 3877TIP3   OH211515   1.838   4.007   3.542
 3877TIP3    H111516   1.874   4.080   3.491
 3877TIP3    H211517   1.913   3.972   3.589
 3878TIP3   OH211518   1.466   3.912   2.940
 3878TIP3    H111519   1.377   3.923   2.975
 3878TIP3    H211520   1.504   4.000   2.942
 3879TIP3   OH211521   2.180   3.671   3.505
 3879TIP3    H111522   2.174   3.667   3.601
 3879TIP3    H211523   2.239   3.600   3.482
 3880TIP3   OH211524   2.189   3.542   2.378
 3880TIP3    H111525   2.240   3.517   2.455
 3880TIP3    H211526   2.107   3.494   2.388
 3881TIP3   OH211527   2.451   4.166   3.554
 3881TIP3    H111528   2.380   4.105   3.575
 3881TIP3    H211529   2.415   4.221   3.484
 3882TIP3   OH211530   2.494   4.017   2.181
 3882TIP3    H111531   2.504   4.076   2.106
 3882TIP3    H211532   2.425   4.058   2.234
 3883TIP3   OH211533   1.527   2.796   4.050
 3883TIP3    H111534   1.432   2.808   4.053
 3883TIP3    H211535   1.546   2.739   4.125
 3884TIP3   OH211536   2.362   3.474   2.577
 3884TIP3    H111537   2.343   3.418   2.652
 3884TIP3    H211538   2.458   3.477   2.574
 3885TIP3   OH211539   1.250   3.900   3.706
 3885TIP3    H111540   1.307   3.841   3.755
 3885TIP3    H211541   1.269   3.987   3.742
 3886TIP3   OH211542   1.542   3.522   2.403
 3886TIP3    H111543   1.550   3.430   2.377
 3886TIP3    H211544   1.522   3.518   2.497
 3887TIP3   OH211545   1.487   3.524   2.672
 3887TIP3    H111546   1.553   3.474   2.720
 3887TIP3    H211547   1.506   3.615   2.692
 3888TIP3   OH211548   1.168   3.248   2.869
 3888TIP3    H111549   1.110   3.187   2.823
 3888TIP3    H211550   1.210   3.298   2.799
 3889TIP3   OH211551   2.368   2.856   3.761
 3889TIP3    H111552   2.448   2.899   3.792
 3889TIP3    H211553   2.361   2.777   3.815
 3890TIP3   OH211554   2.276   2.594   2.954
 3890TIP3    H111555   2.247   2.613   2.865
 3890TIP3    H211556   2.314   2.675   2.986
 3891TIP3   OH211557   1.759   3.706   2.609
 3891TIP3    H111558   1.680   3.746   2.646
 3891TIP3    H211559   1.754   3.725   2.516
 3892TIP3   OH211560   1.971   2.771   3.031
 3892TIP3    H111561   2.009   2.856   3.010
 3892TIP3    H211562   1.969   2.769   3.127
 3893TIP3   OH211563   2.210   3.089   3.805
 3893TIP3    H111564   2.235   3.131   3.887
 3893TIP3    H211565   2.260   3.007   3.803
 3894TIP3   OH211566   2.089   2.491   3.127
 3894TIP3    H111567   2.059   2.567   3.176
 3894TIP3    H211568   2.157   2.525   3.069
 3895TIP3   OH211569   1.516   3.805   2.690
 3895TIP3    H111570   1.489   3.873   2.628
 3895TIP3    H211571   1.498   3.842   2.776
 3896TIP3   OH211572   1.636   2.448   2.997
 3896TIP3    H111573   1.588   2.530   2.994
 3896TIP3    H211574   1.726   2.471   2.972
 3897TIP3   OH211575   2.831   3.001   3.802
 3897TIP3    H111576   2.736   3.001   3.812
 3897TIP3    H211577   2.847   2.958   3.718
 3898TIP3   OH211578   2.494   3.189   3.183
 3898TIP3    H111579   2.417   3.133   3.192
 3898TIP3    H211580   2.560   3.148   3.239
 3899TIP3   OH211581   1.231   3.422   2.654
 3899TIP3    H111582   1.310   3.475   2.664
 3899TIP3    H211583   1.257   3.352   2.595
 3900TIP3   OH211584   1.181   2.718   2.823
 3900TIP3    H111585   1.261   2.772   2.824
 3900TIP3    H211586   1.134   2.748   2.745
 3901TIP3   OH211587   2.474   4.169   3.128
 3901TIP3    H111588   2.432   4.223   3.061
 3901TIP3    H211589   2.568   4.178   3.111
 3902TIP3   OH211590   1.547   2.411   3.649
 3902TIP3    H111591   1.517   2.383   3.563
 3902TIP3    H211592   1.534   2.335   3.705
 3903TIP3   OH211593   1.044   3.697   3.054
 3903TIP3    H111594   1.016   3.710   3.145
 3903TIP3    H211595   1.037   3.603   3.040
 3904TIP3   OH211596   1.271   4.205   4.122
 3904TIP3    H111597   1.353   4.210   4.171
 3904TIP3    H211598   1.258   4.112   4.106
 3905TIP3   OH211599   1.732   4.108   4.167
 3905TIP3    H111600   1.823   4.080   4.174
 3905TIP3    H211601   1.696   4.057   4.094
 3906TIP3   OH211602   1.713   3.723   2.331
 3906TIP3    H111603   1.651   3.652   2.350
 3906TIP3    H211604   1.783   3.681   2.280
 3907TIP3   OH211605   2.347   4.054   3.928
 3907TIP3    H111606   2.365   3.983   3.990
 3907TIP3    H211607   2.421   4.114   3.939
 3908TIP3   OH211608   2.143   3.761   2.225
 3908TIP3    H111609   2.175   3.692   2.282
 3908TIP3    H211610   2.202   3.759   2.149
 3909TIP3   OH211611   1.364   3.608   4.314
 3909TIP3    H111612   1.382   3.515   4.325
 3909TIP3    H211613   1.279   3.611   4.270
 3910TIP3   OH211614   1.334   3.207   2.521
 3910TIP3    H111615   1.371   3.145   2.585
 3910TIP3    H211616   1.408   3.226   2.463
 3911TIP3   OH211617   1.986   3.686   4.090
 3911TIP3    H111618   1.943   3.707   4.007
 3911TIP3    H211619   2.023   3.599   4.076
 3912TIP3   OH211620   1.938   3.422   2.372
 3912TIP3    H111621   1.912   3.428   2.464
 3912TIP3    H211622   1.914   3.334   2.346
 3913TIP3   OH211623   2.467   3.740   3.716
 3913TIP3    H111624   2.543   3.763   3.662
 3913TIP3    H211625   2.401   3.805   3.694
 3914TIP3   OH211626   1.479   3.354   4.324
 3914TIP3    H111627   1.548   3.337   4.261
 3914TIP3    H211628   1.524   3.371   4.406
 3915TIP3   OH211629   1.848   3.236   3.987
 3915TIP3    H111630   1.760   3.273   3.996
 3915TIP3    H211631   1.876   3.264   3.899
 3916TIP3   OH211632   1.686   2.914   2.572
 3916TIP3    H111633   1.655   2.946   2.488
 3916TIP3    H211634   1.776   2.943   2.578
 3917TIP3   OH211635   2.347   3.607   4.058
 3917TIP3    H111636   2.413   3.568   4.001
 3917TIP3    H211637   2.343   3.549   4.134
 3918TIP3   OH211638   2.493   3.261   2.224
 3918TIP3    H111639   2.474   3.220   2.140
 3918TIP3    H211640   2.459   3.351   2.215
 3919TIP3   OH211641   1.949   3.001   4.086
 3919TIP3    H111642   1.951   2.931   4.021
 3919TIP3    H211643   1.916   3.077   4.039
 3920TIP3   OH211644   1.957   2.802   3.883
 3920TIP3    H111645   1.985   2.840   3.800
 3920TIP3    H211646   1.866   2.776   3.868
 3921TIP3   OH211647   1.956   3.333   3.758
 3921TIP3    H111648   2.046   3.358   3.736
 3921TIP3    H211649   1.901   3.392   3.706
 3922TIP3   OH211650   2.554   3.286   4.127
 3922TIP3    H111651   2.591   3.197   4.132
 3922TIP3    H211652   2.630   3.342   4.109
 3923TIP3   OH211653   2.581   3.553   3.876
 3923TIP3    H111654   2.531   3.618   3.827
 3923TIP3    H211655   2.671   3.565   3.845
 3924TIP3   OH211656   1.833   3.080   4.331
 3924TIP3    H111657   1.764   3.016   4.348
 3924TIP3    H211658   1.862   3.061   4.241
 3925TIP3   OH211659   2.078   2.572   3.986
 3925TIP3    H111660   2.038   2.652   3.952
 3925TIP3    H211661   2.011   2.505   3.971
 3926TIP3   OH211662   2.205   3.039   4.188
 3926TIP3    H111663   2.193   3.026   4.283
 3926TIP3    H211664   2.119   3.019   4.151
 3927TIP3   OH211665   2.454   3.001   4.064
 3927TIP3    H111666   2.374   2.998   4.116
 3927TIP3    H211667   2.524   2.973   4.124
 3928TIP3   OH211668   2.688   2.962   4.212
 3928TIP3    H111669   2.702   2.868   4.219
 3928TIP3    H211670   2.685   2.992   4.303
 3929TIP3   OH211671   1.663   2.862   4.394
 3929TIP3    H111672   1.670   2.775   4.355
 3929TIP3    H211673   1.705   2.853   4.480
 3930TIP3   OH211674   2.143   2.546   4.251
 3930TIP3    H111675   2.211   2.479   4.244
 3930TIP3    H211676   2.113   2.559   4.161
 3931TIP3   OH211677   2.240   2.760   4.396
 3931TIP3    H111678   2.210   2.688   4.340
 3931TIP3    H211679   2.168   2.822   4.396
 3932TIP3   OH211680   1.493   4.023   2.514
 3932TIP3    H111681   1.584   4.011   2.486
 3932TIP3    H211682   1.450   4.062   2.438
 3933TIP3   OH211683   0.962   3.426   2.690
 3933TIP3    H111684   1.057   3.436   2.682
 3933TIP3    H211685   0.947   3.331   2.686
 3934TIP3   OH211686   0.994   3.791   3.319
 3934TIP3    H111687   1.004   3.733   3.394
 3934TIP3    H211688   1.032   3.874   3.349
 3935TIP3   OH211689   2.748   4.210   3.116
 3935TIP3    H111690   2.770   4.240   3.205
 3935TIP3    H211691   2.807   4.259   3.059
 3936TIP3   OH211692   2.767   4.244   3.398
 3936TIP3    H111693   2.719   4.162   3.391
 3936TIP3    H211694   2.835   4.227   3.463
 3937TIP3   OH211695   2.821   3.948   3.974
 3937TIP3    H111696   2.750   3.959   4.037
 3937TIP3    H211697   2.866   4.032   3.974
 3938TIP3   OH211698   2.641   3.468   2.576
 3938TIP3    H111699   2.699   3.538   2.548
 3938TIP3    H211700   2.685   3.428   2.651
 3939TIP3   OH211701   2.762   3.320   2.777
 3939TIP3    H111702   2.693   3.281   2.830
 3939TIP3    H211703   2.825   3.354   2.841
 3940TIP3   OH211704   2.817   3.720   3.213
 3940TIP3    H111705   2.866   3.650   3.171
 3940TIP3    H211706   2.817   3.792   3.150
 3941TIP3   OH211707   2.623   4.006   3.406
 3941TIP3    H111708   2.556   4.053   3.456
 3941TIP3    H211709   2.575   3.966   3.333
 3942TIP3   OH211710   2.679   3.242   2.424
 3942TIP3    H111711   2.612   3.241   2.356
 3942TIP3    H211712   2.660   3.321   2.475
 3943TIP3   OH211713   2.530   2.902   2.382
 3943TIP3    H111714   2.484   2.928   2.303
 3943TIP3    H211715   2.523   2.807   2.384
 3944TIP3   OH211716   2.560   3.185   2.914
 3944TIP3    H111717   2.561   3.090   2.897
 3944TIP3    H211718   2.541   3.192   3.007
 3945TIP3   OH211719   1.179   3.237   3.682
 3945TIP3    H111720   1.169   3.204   3.593
 3945TIP3    H211721   1.273   3.234   3.699
 3946TIP3   OH211722   2.837   3.593   3.775
 3946TIP3    H111723   2.906   3.529   3.758
 3946TIP3    H211724   2.836   3.649   3.697
 3947TIP3   OH211725   3.021   3.385   3.767
 3947TIP3    H111726   2.948   3.345   3.815
 3947TIP3    H211727   3.097   3.331   3.791
 3948TIP3   OH211728   2.497   2.633   2.381
 3948TIP3    H111729   2.556   2.595   2.445
 3948TIP3    H211730   2.413   2.588   2.395
 3949TIP3   OH211731   2.560   2.910   2.810
 3949TIP3    H111732   2.605   2.826   2.819
 3949TIP3    H211733   2.600   2.951   2.733
 3950TIP3   OH211734   2.710   3.067   3.327
 3950TIP3    H111735   2.789   3.086   3.277
 3950TIP3    H211736   2.724   3.110   3.411
 3951TIP3   OH211737   2.783   3.220   3.553
 3951TIP3    H111738   2.710   3.248   3.608
 3951TIP3    H211739   2.812   3.300   3.509
 3952TIP3   OH211740   1.398   2.923   4.340
 3952TIP3    H111741   1.493   2.917   4.355
 3952TIP3    H211742   1.363   2.840   4.372
 3953TIP3   OH211743   3.225   2.810   4.088
 3953TIP3    H111744   3.302   2.757   4.066
 3953TIP3    H211745   3.208   2.861   4.009
 3954TIP3   OH211746   2.676   2.658   2.853
 3954TIP3    H111747   2.721   2.642   2.937
 3954TIP3    H211748   2.612   2.587   2.846
 3955TIP3   OH211749   1.391   2.641   3.677
 3955TIP3    H111750   1.444   2.561   3.674
 3955TIP3    H211751   1.452   2.711   3.652
 3956TIP3   OH211752   1.184   2.910   3.749
 3956TIP3    H111753   1.227   2.890   3.667
 3956TIP3    H211754   1.205   3.001   3.766
 3957TIP3   OH211755   3.096   2.938   3.882
 3957TIP3    H111756   3.015   2.977   3.913
 3957TIP3    H211757   3.068   2.859   3.834
 3958TIP3   OH211758   2.733   2.560   2.510
 3958TIP3    H111759   2.787   2.504   2.453
 3958TIP3    H211760   2.777   2.645   2.509
 3959TIP3   OH211761   1.134   2.474   3.293
 3959TIP3    H111762   1.043   2.447   3.305
 3959TIP3    H211763   1.140   2.495   3.200
 3960TIP3   OH211764   2.314   4.137   2.763
 3960TIP3    H111765   2.362   4.117   2.683
 3960TIP3    H211766   2.360   4.213   2.800
 3961TIP3   OH211767   1.375   2.449   4.060
 3961TIP3    H111768   1.321   2.448   4.139
 3961TIP3    H211769   1.330   2.509   4.001
 3962TIP3   OH211770   1.397   3.928   4.133
 3962TIP3    H111771   1.304   3.906   4.127
 3962TIP3    H211772   1.418   3.915   4.226
 3963TIP3   OH211773   1.609   3.975   3.689
 3963TIP3    H111774   1.560   4.051   3.657
 3963TIP3    H211775   1.693   3.981   3.645
 3964TIP3   OH211776   2.004   4.203   3.829
 3964TIP3    H111777   2.043   4.196   3.916
 3964TIP3    H211778   2.065   4.257   3.780
 3965TIP3   OH211779   2.192   4.359   3.700
 3965TIP3    H111780   2.249   4.305   3.645
 3965TIP3    H211781   2.253   4.412   3.752
 3966TIP3   OH211782   3.000   2.693   3.780
 3966TIP3    H111783   2.920   2.699   3.729
 3966TIP3    H211784   3.025   2.600   3.774
 3967TIP3   OH211785   1.272   4.209   3.739
 3967TIP3    H111786   1.182   4.232   3.716
 3967TIP3    H211787   1.298   4.274   3.803
 3968TIP3   OH211788   1.502   4.207   3.587
 3968TIP3    H111789   1.418   4.210   3.633
 3968TIP3    H211790   1.480   4.227   3.496
 3969TIP3   OH211791   1.916   4.219   3.381
 3969TIP3    H111792   1.846   4.228   3.316
 3969TIP3    H211793   1.924   4.306   3.418
 3970TIP3   OH211794   2.181   4.163   3.435
 3970TIP3    H111795   2.089   4.177   3.411
 3970TIP3    H211796   2.230   4.225   3.381
 3971TIP3   OH211797   2.386   4.332   3.331
 3971TIP3    H111798   2.381   4.418   3.288
 3971TIP3    H211799   2.415   4.273   3.262
 3972TIP3   OH211800   1.168   3.992   3.454
 3972TIP3    H111801   1.197   3.966   3.542
 3972TIP3    H211802   1.237   3.959   3.397
 3973TIP3   OH211803   1.375   3.884   3.313
 3973TIP3    H111804   1.387   3.798   3.353
 3973TIP3    H211805   1.462   3.923   3.313
 3974TIP3   OH211806   1.648   3.966   3.338
 3974TIP3    H111807   1.664   3.873   3.321
 3974TIP3    H211808   1.704   3.987   3.413
 3975TIP3   OH211809   2.218   2.610   3.447
 3975TIP3    H111810   2.170   2.535   3.482
 3975TIP3    H211811   2.282   2.571   3.387
 3976TIP3   OH211812   2.711   2.521   3.310
 3976TIP3    H111813   2.750   2.571   3.238
 3976TIP3    H211814   2.620   2.551   3.313
 3977TIP3   OH211815   2.831   2.598   3.076
 3977TIP3    H111816   2.900   2.537   3.048
 3977TIP3    H211817   2.870   2.684   3.065
 3978TIP3   OH211818   1.461   2.304   3.409
 3978TIP3    H111819   1.371   2.274   3.419
 3978TIP3    H211820   1.512   2.224   3.398
 3979TIP3   OH211821   1.306   2.167   3.041
 3979TIP3    H111822   1.342   2.230   2.979
 3979TIP3    H211823   1.214   2.192   3.050
 3980TIP3   OH211824   1.919   2.353   3.303
 3980TIP3    H111825   1.975   2.402   3.242
 3980TIP3    H211826   1.949   2.381   3.390
 3981TIP3   OH211827   2.421   2.502   3.293
 3981TIP3    H111828   2.423   2.476   3.201
 3981TIP3    H211829   2.428   2.420   3.342
 3982TIP3   OH211830   2.491   2.447   2.864
 3982TIP3    H111831   2.413   2.499   2.886
 3982TIP3    H211832   2.477   2.363   2.908
 3983TIP3   OH211833   0.845   3.776   2.851
 3983TIP3    H111834   0.927   3.760   2.897
 3983TIP3    H211835   0.861   3.854   2.798
 3984TIP3   OH211836   1.406   2.336   2.846
 3984TIP3    H111837   1.438   2.277   2.777
 3984TIP3    H211838   1.463   2.412   2.841
 3985TIP3   OH211839   1.885   2.531   2.940
 3985TIP3    H111840   1.957   2.502   2.996
 3985TIP3    H211841   1.881   2.626   2.954
 3986TIP3   OH211842   1.750   3.974   2.433
 3986TIP3    H111843   1.836   3.994   2.397
 3986TIP3    H211844   1.726   3.891   2.392
 3987TIP3   OH211845   2.454   4.078   2.531
 3987TIP3    H111846   2.447   3.983   2.525
 3987TIP3    H211847   2.409   4.111   2.453
 3988TIP3   OH211848   1.681   2.590   4.304
 3988TIP3    H111849   1.647   2.524   4.365
 3988TIP3    H211850   1.773   2.600   4.327
 3989TIP3   OH211851   1.928   2.599   4.427
 3989TIP3    H111852   2.005   2.577   4.374
 3989TIP3    H211853   1.924   2.528   4.492
 3990TIP3   OH211854   1.065   3.790   2.478
 3990TIP3    H111855   1.073   3.808   2.572
 3990TIP3    H211856   1.145   3.742   2.456
 3991TIP3   OH211857   2.747   2.691   4.218
 3991TIP3    H111858   2.767   2.662   4.307
 3991TIP3    H211859   2.831   2.685   4.172
 3992TIP3   OH211860   2.667   4.221   3.722
 3992TIP3    H111861   2.594   4.191   3.667
 3992TIP3    H211862   2.654   4.316   3.728
 3993TIP3   OH211863   3.945   3.614   2.454
 3993TIP3    H111864   3.914   3.700   2.427
 3993TIP3    H211865   3.876   3.553   2.428
 3994TIP3   OH211866   3.947   3.599   2.885
 3994TIP3    H111867   4.003   3.580   2.960
 3994TIP3    H211868   3.905   3.516   2.864
 3995TIP3   OH211869   3.241   3.461   3.227
 3995TIP3    H111870   3.280   3.410   3.297
 3995TIP3    H211871   3.314   3.484   3.170
 3996TIP3   OH211872   4.215   3.910   2.558
 3996TIP3    H111873   4.202   3.842   2.624
 3996TIP3    H211874   4.234   3.989   2.608
 3997TIP3   OH211875   3.236   3.901   2.921
 3997TIP3    H111876   3.218   3.807   2.924
 3997TIP3    H211877   3.330   3.907   2.908
 3998TIP3   OH211878   2.920   3.092   2.710
 3998TIP3    H111879   2.883   3.179   2.728
 3998TIP3    H211880   2.848   3.045   2.667
 3999TIP3   OH211881   2.989   3.395   2.923
 3999TIP3    H111882   3.039   3.317   2.945
 3999TIP3    H211883   3.050   3.450   2.874
 4000TIP3   OH211884   3.875   4.335   2.572
 4000TIP3    H111885   3.897   4.273   2.503
 4000TIP3    H211886   3.880   4.283   2.653
 4001TIP3   OH211887   3.748   3.822   2.883
 4001TIP3    H111888   3.793   3.742   2.855
 4001TIP3    H211889   3.819   3.879   2.914
 4002TIP3   OH211890   4.788   3.140   2.905
 4002TIP3    H111891   4.803   3.226   2.945
 4002TIP3    H211892   4.807   3.153   2.812
 4003TIP3   OH211893   4.161   3.310   2.920
 4003TIP3    H111894   4.189   3.222   2.944
 4003TIP3    H211895   4.116   3.299   2.836
 4004TIP3   OH211896   3.505   2.977   2.886
 4004TIP3    H111897   3.494   3.045   2.820
 4004TIP3    H211898   3.453   2.903   2.854
 4005TIP3   OH211899   4.211   3.066   2.519
 4005TIP3    H111900   4.273   3.060   2.591
 4005TIP3    H211901   4.262   3.100   2.446
 4006TIP3   OH211902   3.134   3.175   3.006
 4006TIP3    H111903   3.217   3.159   3.051
 4006TIP3    H211904   3.143   3.131   2.922
 4007TIP3   OH211905   3.554   3.380   2.832
 4007TIP3    H111906   3.649   3.369   2.839
 4007TIP3    H211907   3.524   3.299   2.791
 4008TIP3   OH211908   4.841   3.364   3.067
 4008TIP3    H111909   4.752   3.398   3.061
 4008TIP3    H211910   4.875   3.400   3.149
 4009TIP3   OH211911   3.491   2.973   3.334
 4009TIP3    H111912   3.444   3.009   3.259
 4009TIP3    H211913   3.435   2.991   3.410
 4010TIP3   OH211914   3.845   3.832   2.317
 4010TIP3    H111915   3.802   3.796   2.239
 4010TIP3    H211916   3.789   3.905   2.343
 4011TIP3   OH211917   3.584   3.748   3.094
 4011TIP3    H111918   3.532   3.820   3.128
 4011TIP3    H211919   3.633   3.786   3.021
 4012TIP3   OH211920   4.370   3.088   2.743
 4012TIP3    H111921   4.324   3.068   2.824
 4012TIP3    H211922   4.422   3.165   2.763
 4013TIP3   OH211923   3.380   3.083   3.107
 4013TIP3    H111924   3.435   3.158   3.129
 4013TIP3    H211925   3.423   3.043   3.032
 4014TIP3   OH211926   3.432   3.953   3.202
 4014TIP3    H111927   3.417   4.042   3.171
 4014TIP3    H211928   3.354   3.932   3.253
 4015TIP3   OH211929   2.814   3.656   2.460
 4015TIP3    H111930   2.779   3.671   2.372
 4015TIP3    H211931   2.836   3.743   2.492
 4016TIP3   OH211932   4.247   4.159   2.699
 4016TIP3    H111933   4.159   4.152   2.736
 4016TIP3    H211934   4.246   4.242   2.652
 4017TIP3   OH211935   4.588   3.031   3.074
 4017TIP3    H111936   4.502   3.050   3.036
 4017TIP3    H211937   4.650   3.058   3.006
 4018TIP3   OH211938   3.837   2.664   3.067
 4018TIP3    H111939   3.826   2.571   3.087
 4018TIP3    H211940   3.759   2.706   3.104
 4019TIP3   OH211941   3.953   4.193   2.346
 4019TIP3    H111942   4.005   4.113   2.339
 4019TIP3    H211943   4.012   4.263   2.318
 4020TIP3   OH211944   4.093   3.963   2.315
 4020TIP3    H111945   4.021   3.901   2.310
 4020TIP3    H211946   4.144   3.936   2.391
 4021TIP3   OH211947   4.487   4.041   3.040
 4021TIP3    H111948   4.465   3.967   2.983
 4021TIP3    H211949   4.472   4.118   2.985
 4022TIP3   OH211950   3.768   3.453   2.309
 4022TIP3    H111951   3.682   3.490   2.290
 4022TIP3    H211952   3.810   3.447   2.223
 4023TIP3   OH211953   3.766   3.250   1.988
 4023TIP3    H111954   3.830   3.298   2.041
 4023TIP3    H211955   3.818   3.182   1.945
 4024TIP3   OH211956   4.660   3.707   2.908
 4024TIP3    H111957   4.575   3.750   2.906
 4024TIP3    H211958   4.696   3.718   2.820
 4025TIP3   OH211959   4.135   3.546   2.269
 4025TIP3    H111960   4.079   3.573   2.342
 4025TIP3    H211961   4.216   3.517   2.311
 4026TIP3   OH211962   4.362   3.564   3.219
 4026TIP3    H111963   4.356   3.647   3.265
 4026TIP3    H211964   4.282   3.558   3.168
 4027TIP3   OH211965   3.350   3.511   2.683
 4027TIP3    H111966   3.305   3.449   2.626
 4027TIP3    H211967   3.423   3.463   2.720
 4028TIP3   OH211968   3.496   3.944   2.816
 4028TIP3    H111969   3.467   3.927   2.726
 4028TIP3    H211970   3.582   3.902   2.822
 4029TIP3   OH211971   3.453   3.511   3.053
 4029TIP3    H111972   3.490   3.473   2.973
 4029TIP3    H211973   3.502   3.592   3.065
 4030TIP3   OH211974   4.006   4.155   2.827
 4030TIP3    H111975   3.996   4.233   2.881
 4030TIP3    H211976   3.992   4.082   2.887
 4031TIP3   OH211977   3.629   4.048   3.372
 4031TIP3    H111978   3.568   4.105   3.419
 4031TIP3    H211979   3.575   3.997   3.313
 4032TIP3   OH211980   3.971   3.395   2.108
 4032TIP3    H111981   4.027   3.455   2.157
 4032TIP3    H211982   4.000   3.403   2.017
 4033TIP3   OH211983   3.381   3.591   3.527
 4033TIP3    H111984   3.385   3.686   3.540
 4033TIP3    H211985   3.287   3.573   3.516
 4034TIP3   OH211986   3.706   4.069   2.361
 4034TIP3    H111987   3.787   4.120   2.363
 4034TIP3    H211988   3.646   4.122   2.308
 4035TIP3   OH211989   3.418   4.205   3.458
 4035TIP3    H111990   3.394   4.216   3.366
 4035TIP3    H211991   3.334   4.191   3.503
 4036TIP3   OH211992   4.479   2.620   2.159
 4036TIP3    H111993   4.403   2.640   2.214
 4036TIP3    H211994   4.488   2.697   2.102
 4037TIP3   OH211995   3.212   3.338   2.512
 4037TIP3    H111996   3.146   3.390   2.467
 4037TIP3    H211997   3.215   3.255   2.463
 4038TIP3   OH211998   4.299   4.002   1.720
 4038TIP3    H111999   4.292   4.094   1.697
 4038TIP3    H212000   4.388   3.977   1.695
 4039TIP3   OH212001   3.016   3.764   3.408
 4039TIP3    H112002   2.947   3.746   3.344
 4039TIP3    H212003   3.049   3.677   3.431
 4040TIP3   OH212004   2.863   3.951   3.057
 4040TIP3    H112005   2.957   3.969   3.064
 4040TIP3    H212006   2.821   4.030   3.091
 4041TIP3   OH212007   4.716   4.415   3.109
 4041TIP3    H112008   4.722   4.320   3.119
 4041TIP3    H212009   4.636   4.439   3.157
 4042TIP3   OH212010   3.819   4.194   3.236
 4042TIP3    H112011   3.809   4.285   3.265
 4042TIP3    H212012   3.751   4.146   3.284
 4043TIP3   OH212013   3.598   4.292   2.185
 4043TIP3    H112014   3.550   4.268   2.106
 4043TIP3    H212015   3.558   4.373   2.214
 4044TIP3   OH212016   3.032   4.149   2.566
 4044TIP3    H112017   3.076   4.139   2.651
 4044TIP3    H212018   2.981   4.068   2.556
 4045TIP3   OH212019   3.801   4.225   1.812
 4045TIP3    H112020   3.850   4.150   1.778
 4045TIP3    H212021   3.834   4.237   1.901
 4046TIP3   OH212022   3.852   4.266   2.083
 4046TIP3    H112023   3.764   4.271   2.121
 4046TIP3    H212024   3.906   4.225   2.150
 4047TIP3   OH212025   4.605   3.517   3.373
 4047TIP3    H112026   4.522   3.530   3.327
 4047TIP3    H212027   4.623   3.423   3.366
 4048TIP3   OH212028   3.214   3.953   3.374
 4048TIP3    H112029   3.265   3.938   3.453
 4048TIP3    H212030   3.142   3.889   3.380
 4049TIP3   OH212031   3.597   2.755   3.192
 4049TIP3    H112032   3.513   2.723   3.157
 4049TIP3    H212033   3.575   2.837   3.236
 4050TIP3   OH212034   4.133   2.882   3.392
 4050TIP3    H112035   4.201   2.859   3.455
 4050TIP3    H212036   4.051   2.866   3.438
 4051TIP3   OH212037   4.361   3.298   3.312
 4051TIP3    H112038   4.321   3.296   3.399
 4051TIP3    H212039   4.345   3.388   3.281
 4052TIP3   OH212040   4.048   3.393   1.848
 4052TIP3    H112041   3.997   3.389   1.767
 4052TIP3    H212042   4.129   3.436   1.823
 4053TIP3   OH212043   3.536   3.292   3.202
 4053TIP3    H112044   3.490   3.301   3.286
 4053TIP3    H212045   3.514   3.373   3.155
 4054TIP3   OH212046   3.431   3.168   2.701
 4054TIP3    H112047   3.339   3.145   2.718
 4054TIP3    H212048   3.440   3.163   2.606
 4055TIP3   OH212049   3.897   3.250   2.448
 4055TIP3    H112050   3.843   3.318   2.408
 4055TIP3    H212051   3.950   3.216   2.375
 4056TIP3   OH212052   4.081   3.510   3.518
 4056TIP3    H112053   4.054   3.442   3.580
 4056TIP3    H212054   4.173   3.526   3.538
 4057TIP3   OH212055   4.076   3.265   2.661
 4057TIP3    H112056   4.002   3.285   2.603
 4057TIP3    H212057   4.114   3.185   2.624
 4058TIP3   OH212058   3.375   3.311   3.422
 4058TIP3    H112059   3.384   3.375   3.493
 4058TIP3    H212060   3.355   3.228   3.467
 4059TIP3   OH212061   2.964   2.822   3.010
 4059TIP3    H112062   3.034   2.861   3.062
 4059TIP3    H212063   2.997   2.823   2.921
 4060TIP3   OH212064   2.862   2.806   2.510
 4060TIP3    H112065   2.907   2.842   2.433
 4060TIP3    H212066   2.799   2.875   2.534
 4061TIP3   OH212067   4.116   3.510   3.095
 4061TIP3    H112068   4.138   3.444   3.030
 4061TIP3    H212069   4.068   3.462   3.163
 4062TIP3   OH212070   3.790   3.046   2.837
 4062TIP3    H112071   3.709   3.012   2.874
 4062TIP3    H212072   3.859   2.992   2.875
 4063TIP3   OH212073   3.187   3.050   2.768
 4063TIP3    H112074   3.098   3.055   2.733
 4063TIP3    H212075   3.213   2.959   2.754
 4064TIP3   OH212076   4.225   3.047   2.983
 4064TIP3    H112077   4.202   3.068   3.074
 4064TIP3    H212078   4.158   2.985   2.955
 4065TIP3   OH212079   3.271   3.116   2.282
 4065TIP3    H112080   3.208   3.084   2.218
 4065TIP3    H212081   3.344   3.054   2.277
 4066TIP3   OH212082   4.427   4.753   3.202
 4066TIP3    H112083   4.427   4.766   3.107
 4066TIP3    H212084   4.507   4.798   3.232
 4067TIP3   OH212085   3.366   3.862   3.608
 4067TIP3    H112086   3.446   3.881   3.655
 4067TIP3    H212087   3.296   3.872   3.673
 4068TIP3   OH212088   3.826   3.330   2.886
 4068TIP3    H112089   3.844   3.253   2.832
 4068TIP3    H212090   3.824   3.296   2.975
 4069TIP3   OH212091   3.321   2.798   2.766
 4069TIP3    H112092   3.290   2.721   2.813
 4069TIP3    H212093   3.350   2.764   2.681
 4070TIP3   OH212094   3.799   3.230   3.149
 4070TIP3    H112095   3.712   3.264   3.170
 4070TIP3    H212096   3.859   3.286   3.199
 4071TIP3   OH212097   3.519   3.580   2.259
 4071TIP3    H112098   3.450   3.516   2.244
 4071TIP3    H212099   3.498   3.619   2.344
 4072TIP3   OH212100   4.424   3.841   2.861
 4072TIP3    H112101   4.459   3.889   2.786
 4072TIP3    H212102   4.345   3.798   2.826
 4073TIP3   OH212103   3.938   2.915   2.175
 4073TIP3    H112104   3.844   2.923   2.190
 4073TIP3    H212105   3.972   3.004   2.187
 4074TIP3   OH212106   3.949   3.929   3.271
 4074TIP3    H112107   3.999   3.917   3.352
 4074TIP3    H212108   3.908   4.015   3.282
 4075TIP3   OH212109   4.058   3.160   2.231
 4075TIP3    H112110   4.152   3.163   2.244
 4075TIP3    H212111   4.038   3.239   2.181
 4076TIP3   OH212112   3.233   3.621   2.907
 4076TIP3    H112113   3.265   3.593   2.821
 4076TIP3    H212114   3.294   3.582   2.969
 4077TIP3   OH212115   3.681   3.739   2.107
 4077TIP3    H112116   3.635   3.823   2.103
 4077TIP3    H212117   3.622   3.682   2.156
 4078TIP3   OH212118   3.106   3.528   3.539
 4078TIP3    H112119   3.106   3.500   3.630
 4078TIP3    H212120   3.031   3.483   3.499
 4079TIP3   OH212121   3.851   3.667   3.560
 4079TIP3    H112122   3.781   3.608   3.533
 4079TIP3    H212123   3.931   3.625   3.529
 4080TIP3   OH212124   4.090   4.218   3.160
 4080TIP3    H112125   3.995   4.202   3.163
 4080TIP3    H212126   4.112   4.251   3.247
 4081TIP3   OH212127   4.473   3.253   2.046
 4081TIP3    H112128   4.418   3.207   1.983
 4081TIP3    H212129   4.478   3.343   2.013
 4082TIP3   OH212130   4.730   4.139   3.126
 4082TIP3    H112131   4.637   4.116   3.126
 4082TIP3    H212132   4.764   4.104   3.043
 4083TIP3   OH212133   4.218   4.069   1.986
 4083TIP3    H112134   4.188   3.999   2.045
 4083TIP3    H212135   4.236   4.024   1.903
 4084TIP3   OH212136   4.198   3.704   2.756
 4084TIP3    H112137   4.108   3.681   2.780
 4084TIP3    H212138   4.233   3.623   2.718
 4085TIP3   OH212139   3.348   3.940   2.576
 4085TIP3    H112140   3.347   4.016   2.518
 4085TIP3    H212141   3.256   3.922   2.595
 4086TIP3   OH212142   2.909   3.228   2.274
 4086TIP3    H112143   2.956   3.308   2.297
 4086TIP3    H212144   2.831   3.229   2.329
 4087TIP3   OH212145   3.441   3.693   2.491
 4087TIP3    H112146   3.420   3.782   2.520
 4087TIP3    H212147   3.409   3.636   2.561
 4088TIP3   OH212148   3.635   4.265   3.028
 4088TIP3    H112149   3.672   4.338   2.978
 4088TIP3    H212150   3.709   4.230   3.078
 4089TIP3   OH212151   3.268   4.165   2.425
 4089TIP3    H112152   3.180   4.170   2.463
 4089TIP3    H212153   3.303   4.254   2.430
 4090TIP3   OH212154   3.981   3.930   2.996
 4090TIP3    H112155   3.971   3.927   3.091
 4090TIP3    H212156   4.050   3.867   2.977
 4091TIP3   OH212157   3.981   3.807   1.864
 4091TIP3    H112158   4.032   3.780   1.941
 4091TIP3    H212159   3.899   3.759   1.872
 4092TIP3   OH212160   4.246   4.421   3.041
 4092TIP3    H112161   4.177   4.359   3.064
 4092TIP3    H212162   4.207   4.475   2.972
 4093TIP3   OH212163   4.292   4.274   1.672
 4093TIP3    H112164   4.311   4.336   1.602
 4093TIP3    H212165   4.221   4.315   1.721
 4094TIP3   OH212166   3.316   3.058   3.536
 4094TIP3    H112167   3.221   3.067   3.537
 4094TIP3    H212168   3.338   3.017   3.619
 4095TIP3   OH212169   4.158   3.728   2.059
 4095TIP3    H112170   4.140   3.674   2.136
 4095TIP3    H212171   4.253   3.732   2.054
 4096TIP3   OH212172   3.064   4.159   3.193
 4096TIP3    H112173   3.115   4.096   3.244
 4096TIP3    H212174   3.081   4.244   3.235
 4097TIP3   OH212175   3.331   3.772   1.886
 4097TIP3    H112176   3.341   3.681   1.857
 4097TIP3    H212177   3.316   3.766   1.980
 4098TIP3   OH212178   3.279   3.790   2.158
 4098TIP3    H112179   3.348   3.760   2.217
 4098TIP3    H212180   3.280   3.885   2.165
 4099TIP3   OH212181   3.009   3.474   2.368
 4099TIP3    H112182   2.944   3.523   2.418
 4099TIP3    H212183   3.033   3.532   2.296
 4100TIP3   OH212184   4.164   3.114   3.244
 4100TIP3    H112185   4.244   3.156   3.276
 4100TIP3    H212186   4.155   3.036   3.299
 4101TIP3   OH212187   4.074   2.842   2.415
 4101TIP3    H112188   4.022   2.867   2.339
 4101TIP3    H212189   4.102   2.926   2.453
 4102TIP3   OH212190   3.547   3.975   2.096
 4102TIP3    H112191   3.462   4.000   2.132
 4102TIP3    H212192   3.568   4.046   2.034
 4103TIP3   OH212193   3.819   3.009   2.566
 4103TIP3    H112194   3.836   3.092   2.522
 4103TIP3    H212195   3.804   3.033   2.658
 4104TIP3   OH212196   4.007   3.350   3.290
 4104TIP3    H112197   4.033   3.390   3.373
 4104TIP3    H212198   4.055   3.267   3.287
 4105TIP3   OH212199   3.887   2.743   2.596
 4105TIP3    H112200   3.838   2.824   2.591
 4105TIP3    H212201   3.962   2.757   2.538
 4106TIP3   OH212202   3.299   4.064   2.172
 4106TIP3    H112203   3.277   4.136   2.112
 4106TIP3    H212204   3.285   4.100   2.259
 4107TIP3   OH212205   4.624   3.242   3.282
 4107TIP3    H112206   4.530   3.252   3.296
 4107TIP3    H212207   4.631   3.185   3.206
 4108TIP3   OH212208   4.291   3.447   2.669
 4108TIP3    H112209   4.214   3.391   2.675
 4108TIP3    H212210   4.355   3.405   2.727
 4109TIP3   OH212211   3.036   3.657   2.153
 4109TIP3    H112212   3.108   3.720   2.162
 4109TIP3    H212213   3.069   3.592   2.092
 4110TIP3   OH212214   2.936   2.950   2.289
 4110TIP3    H112215   2.948   3.045   2.298
 4110TIP3    H212216   2.887   2.940   2.207
 4111TIP3   OH212217   4.270   4.427   2.615
 4111TIP3    H112218   4.229   4.479   2.546
 4111TIP3    H212219   4.364   4.436   2.599
 4112TIP3   OH212220   3.334   2.672   3.146
 4112TIP3    H112221   3.305   2.643   3.060
 4112TIP3    H212222   3.324   2.595   3.202
 4113TIP3   OH212223   2.857   3.930   2.534
 4113TIP3    H112224   2.805   3.961   2.609
 4113TIP3    H212225   2.814   3.969   2.458
 4114TIP3   OH212226   3.064   4.463   3.612
 4114TIP3    H112227   3.147   4.467   3.661
 4114TIP3    H212228   3.050   4.369   3.598
 4115TIP3   OH212229   3.527   4.366   3.652
 4115TIP3    H112230   3.618   4.337   3.661
 4115TIP3    H212231   3.492   4.313   3.580
 4116TIP3   OH212232   3.486   3.968   1.774
 4116TIP3    H112233   3.437   3.900   1.819
 4116TIP3    H212234   3.560   3.923   1.733
 4117TIP3   OH212235   4.145   4.311   3.412
 4117TIP3    H112236   4.160   4.240   3.475
 4117TIP3    H212237   4.219   4.370   3.425
 4118TIP3   OH212238   3.928   4.014   1.695
 4118TIP3    H112239   3.960   3.948   1.757
 4118TIP3    H212240   3.987   4.005   1.620
 4119TIP3   OH212241   3.161   3.865   3.799
 4119TIP3    H112242   3.179   3.772   3.811
 4119TIP3    H212243   3.074   3.868   3.757
 4120TIP3   OH212244   3.168   3.470   2.006
 4120TIP3    H112245   3.216   3.436   2.081
 4120TIP3    H212246   3.234   3.481   1.938
 4121TIP3   OH212247   3.783   3.943   3.577
 4121TIP3    H112248   3.739   3.964   3.495
 4121TIP3    H212249   3.818   3.855   3.563
 4122TIP3   OH212250   3.730   3.687   1.841
 4122TIP3    H112251   3.705   3.695   1.933
 4122TIP3    H212252   3.712   3.595   1.819
 4123TIP3   OH212253   4.262   3.995   3.198
 4123TIP3    H112254   4.339   4.020   3.147
 4123TIP3    H212255   4.196   4.061   3.179
 4124TIP3   OH212256   3.273   3.610   3.809
 4124TIP3    H112257   3.346   3.591   3.750
 4124TIP3    H212258   3.315   3.627   3.894
 4125TIP3   OH212259   3.328   3.381   2.213
 4125TIP3    H112260   3.300   3.302   2.259
 4125TIP3    H212261   3.392   3.349   2.149
 4126TIP3   OH212262   3.643   3.492   3.472
 4126TIP3    H112263   3.556   3.530   3.482
 4126TIP3    H212264   3.671   3.519   3.384
 4127TIP3   OH212265   3.497   3.287   2.030
 4127TIP3    H112266   3.466   3.268   1.941
 4127TIP3    H212267   3.589   3.261   2.030
 4128TIP3   OH212268   4.140   3.864   3.543
 4128TIP3    H112269   4.207   3.824   3.488
 4128TIP3    H212270   4.136   3.807   3.620
 4129TIP3   OH212271   4.265   3.514   1.725
 4129TIP3    H112272   4.250   3.473   1.640
 4129TIP3    H212273   4.241   3.606   1.712
 4130TIP3   OH212274   3.743   3.256   3.572
 4130TIP3    H112275   3.745   3.187   3.506
 4130TIP3    H212276   3.710   3.333   3.525
 4131TIP3   OH212277   3.751   3.057   3.370
 4131TIP3    H112278   3.779   3.096   3.287
 4131TIP3    H212279   3.660   3.031   3.355
 4132TIP3   OH212280   3.750   3.584   3.240
 4132TIP3    H112281   3.840   3.611   3.221
 4132TIP3    H212282   3.695   3.644   3.189
 4133TIP3   OH212283   4.348   3.551   3.615
 4133TIP3    H112284   4.391   3.465   3.616
 4133TIP3    H212285   4.419   3.614   3.608
 4134TIP3   OH212286   4.377   3.810   3.360
 4134TIP3    H112287   4.326   3.874   3.311
 4134TIP3    H212288   4.467   3.823   3.329
 4135TIP3   OH212289   3.629   3.333   3.817
 4135TIP3    H112290   3.561   3.269   3.836
 4135TIP3    H212291   3.657   3.313   3.728
 4136TIP3   OH212292   3.871   2.829   3.479
 4136TIP3    H112293   3.832   2.909   3.443
 4136TIP3    H212294   3.806   2.761   3.462
 4137TIP3   OH212295   3.999   3.299   3.673
 4137TIP3    H112296   3.988   3.286   3.767
 4137TIP3    H212297   3.913   3.277   3.636
 4138TIP3   OH212298   4.251   3.260   3.554
 4138TIP3    H112299   4.170   3.258   3.606
 4138TIP3    H212300   4.319   3.232   3.616
 4139TIP3   OH212301   4.488   3.215   3.700
 4139TIP3    H112302   4.498   3.121   3.708
 4139TIP3    H212303   4.482   3.246   3.791
 4140TIP3   OH212304   3.466   3.105   3.877
 4140TIP3    H112305   3.473   3.015   3.844
 4140TIP3    H212306   3.504   3.101   3.964
 4141TIP3   OH212307   3.935   2.797   3.746
 4141TIP3    H112308   4.005   2.733   3.733
 4141TIP3    H212309   3.901   2.815   3.659
 4142TIP3   OH212310   4.041   3.019   3.876
 4142TIP3    H112311   4.007   2.943   3.829
 4142TIP3    H212312   3.968   3.081   3.879
 4143TIP3   OH212313   3.298   4.279   1.993
 4143TIP3    H112314   3.384   4.252   1.960
 4143TIP3    H212315   3.256   4.320   1.917
 4144TIP3   OH212316   2.765   3.660   2.174
 4144TIP3    H112317   2.859   3.672   2.170
 4144TIP3    H212318   2.751   3.570   2.143
 4145TIP3   OH212319   2.655   4.237   2.629
 4145TIP3    H112320   2.592   4.182   2.582
 4145TIP3    H212321   2.701   4.177   2.687
 4146TIP3   OH212322   2.800   4.071   2.796
 4146TIP3    H112323   2.790   3.999   2.858
 4146TIP3    H212324   2.853   4.135   2.841
 4147TIP3   OH212325   4.544   4.467   2.604
 4147TIP3    H112326   4.564   4.495   2.694
 4147TIP3    H212327   4.603   4.519   2.549
 4148TIP3   OH212328   4.565   4.500   2.884
 4148TIP3    H112329   4.516   4.418   2.879
 4148TIP3    H212330   4.632   4.484   2.950
 4149TIP3   OH212331   4.615   4.205   3.455
 4149TIP3    H112332   4.542   4.214   3.516
 4149TIP3    H212333   4.662   4.288   3.461
 4150TIP3   OH212334   4.437   3.720   2.062
 4150TIP3    H112335   4.495   3.791   2.034
 4150TIP3    H212336   4.481   3.681   2.137
 4151TIP3   OH212337   4.561   3.576   2.265
 4151TIP3    H112338   4.493   3.537   2.319
 4151TIP3    H212339   4.625   3.610   2.328
 4152TIP3   OH212340   4.610   3.978   2.701
 4152TIP3    H112341   4.661   3.908   2.660
 4152TIP3    H212342   4.611   4.050   2.637
 4153TIP3   OH212343   4.419   4.264   2.891
 4153TIP3    H112344   4.352   4.309   2.943
 4153TIP3    H212345   4.370   4.224   2.819
 4154TIP3   OH212346   4.469   3.493   1.910
 4154TIP3    H112347   4.398   3.493   1.844
 4154TIP3    H212348   4.452   3.571   1.962
 4155TIP3   OH212349   4.327   3.139   1.845
 4155TIP3    H112350   4.279   3.175   1.771
 4155TIP3    H212351   4.315   3.044   1.838
 4156TIP3   OH212352   4.358   3.437   2.400
 4156TIP3    H112353   4.358   3.342   2.384
 4156TIP3    H212354   4.339   3.446   2.493
 4157TIP3   OH212355   2.977   3.492   3.177
 4157TIP3    H112356   2.967   3.463   3.086
 4157TIP3    H212357   3.071   3.492   3.193
 4158TIP3   OH212358   4.634   3.852   3.262
 4158TIP3    H112359   4.703   3.787   3.246
 4158TIP3    H212360   4.635   3.908   3.184
 4159TIP3   OH212361   4.817   3.644   3.254
 4159TIP3    H112362   4.743   3.601   3.297
 4159TIP3    H212363   4.892   3.588   3.276
 4160TIP3   OH212364   4.278   2.868   1.827
 4160TIP3    H112365   4.344   2.841   1.891
 4160TIP3    H212366   4.195   2.835   1.863
 4161TIP3   OH212367   4.351   3.160   2.288
 4161TIP3    H112368   4.398   3.078   2.300
 4161TIP3    H212369   4.391   3.199   2.210
 4162TIP3   OH212370   4.505   3.323   2.813
 4162TIP3    H112371   4.586   3.340   2.765
 4162TIP3    H212372   4.519   3.365   2.898
 4163TIP3   OH212373   4.580   3.476   3.039
 4163TIP3    H112374   4.507   3.503   3.095
 4163TIP3    H212375   4.609   3.556   2.997
 4164TIP3   OH212376   3.205   3.183   3.818
 4164TIP3    H112377   3.298   3.175   3.837
 4164TIP3    H212378   3.167   3.101   3.852
 4165TIP3   OH212379   5.043   3.066   3.576
 4165TIP3    H112380   5.110   3.013   3.532
 4165TIP3    H212381   5.005   3.119   3.506
 4166TIP3   OH212382   4.472   2.912   2.339
 4166TIP3    H112383   4.514   2.898   2.423
 4166TIP3    H212384   4.410   2.840   2.330
 4167TIP3   OH212385   3.173   2.897   3.181
 4167TIP3    H112386   3.228   2.818   3.177
 4167TIP3    H212387   3.233   2.968   3.159
 4168TIP3   OH212388   2.951   3.161   3.223
 4168TIP3    H112389   3.002   3.143   3.144
 4168TIP3    H212390   2.970   3.252   3.245
 4169TIP3   OH212391   4.890   3.194   3.390
 4169TIP3    H112392   4.815   3.236   3.431
 4169TIP3    H212393   4.853   3.129   3.331
 4170TIP3   OH212394   4.511   2.823   1.976
 4170TIP3    H112395   4.560   2.764   1.919
 4170TIP3    H212396   4.565   2.902   1.981
 4171TIP3   OH212397   2.944   2.667   2.731
 4171TIP3    H112398   2.858   2.656   2.772
 4171TIP3    H212399   2.927   2.723   2.655
 4172TIP3   OH212400   4.101   4.394   2.246
 4172TIP3    H112401   4.156   4.378   2.168
 4172TIP3    H212402   4.147   4.462   2.294
 4173TIP3   OH212403   3.172   2.711   3.553
 4173TIP3    H112404   3.123   2.714   3.635
 4173TIP3    H212405   3.120   2.764   3.492
 4174TIP3   OH212406   3.192   4.183   3.622
 4174TIP3    H112407   3.099   4.162   3.615
 4174TIP3    H212408   3.213   4.170   3.715
 4175TIP3   OH212409   3.406   4.230   3.176
 4175TIP3    H112410   3.356   4.305   3.145
 4175TIP3    H212411   3.491   4.238   3.133
 4176TIP3   OH212412   3.801   4.461   3.315
 4176TIP3    H112413   3.839   4.452   3.402
 4176TIP3    H212414   3.863   4.515   3.267
 4177TIP3   OH212415   3.992   4.616   3.188
 4177TIP3    H112416   4.051   4.561   3.138
 4177TIP3    H212417   4.049   4.671   3.242
 4178TIP3   OH212418   4.796   2.949   3.272
 4178TIP3    H112419   4.714   2.952   3.222
 4178TIP3    H212420   4.826   2.859   3.263
 4179TIP3   OH212421   3.069   4.472   3.224
 4179TIP3    H112422   2.977   4.489   3.203
 4179TIP3    H212423   3.090   4.538   3.290
 4180TIP3   OH212424   3.299   4.463   3.074
 4180TIP3    H112425   3.216   4.467   3.121
 4180TIP3    H212426   3.276   4.483   2.983
 4181TIP3   OH212427   3.712   4.477   2.866
 4181TIP3    H112428   3.640   4.486   2.804
 4181TIP3    H212429   3.720   4.563   2.906
 4182TIP3   OH212430   3.977   4.419   2.917
 4182TIP3    H112431   3.885   4.435   2.895
 4182TIP3    H212432   4.025   4.484   2.867
 4183TIP3   OH212433   4.183   4.591   2.819
 4183TIP3    H112434   4.178   4.676   2.776
 4183TIP3    H212435   4.212   4.531   2.750
 4184TIP3   OH212436   2.977   4.245   2.944
 4184TIP3    H112437   3.005   4.221   3.032
 4184TIP3    H212438   3.047   4.214   2.887
 4185TIP3   OH212439   3.180   4.138   2.800
 4185TIP3    H112440   3.192   4.054   2.843
 4185TIP3    H212441   3.267   4.178   2.801
 4186TIP3   OH212442   3.450   4.220   2.823
 4186TIP3    H112443   3.468   4.127   2.806
 4186TIP3    H212444   3.504   4.241   2.899
 4187TIP3   OH212445   3.998   2.871   2.924
 4187TIP3    H112446   3.955   2.797   2.966
 4187TIP3    H212447   4.062   2.832   2.865
 4188TIP3   OH212448   4.506   2.780   2.800
 4188TIP3    H112449   4.542   2.829   2.726
 4188TIP3    H212450   4.412   2.802   2.800
 4189TIP3   OH212451   4.625   2.857   2.564
 4189TIP3    H112452   4.693   2.796   2.536
 4189TIP3    H212453   4.663   2.943   2.552
 4190TIP3   OH212454   3.247   2.569   2.906
 4190TIP3    H112455   3.157   2.537   2.914
 4190TIP3    H212456   3.300   2.490   2.895
 4191TIP3   OH212457   3.094   2.484   2.573
 4191TIP3    H112458   3.127   2.537   2.501
 4191TIP3    H212459   3.048   2.546   2.630
 4192TIP3   OH212460   3.741   2.612   2.798
 4192TIP3    H112461   3.784   2.660   2.728
 4192TIP3    H212462   3.781   2.645   2.878
 4193TIP3   OH212463   4.216   2.764   2.786
 4193TIP3    H112464   4.210   2.737   2.695
 4193TIP3    H212465   4.223   2.682   2.835
 4194TIP3   OH212466   4.292   2.698   2.342
 4194TIP3    H112467   4.213   2.748   2.362
 4194TIP3    H212468   4.277   2.613   2.384
 4195TIP3   OH212469   2.740   4.047   2.314
 4195TIP3    H112470   2.656   4.016   2.279
 4195TIP3    H212471   2.744   4.139   2.287
 4196TIP3   OH212472   3.211   2.632   2.349
 4196TIP3    H112473   3.241   2.554   2.301
 4196TIP3    H212474   3.277   2.698   2.331
 4197TIP3   OH212475   3.546   4.193   1.915
 4197TIP3    H112476   3.629   4.220   1.876
 4197TIP3    H212477   3.516   4.121   1.859
 4198TIP3   OH212478   4.251   4.338   2.017
 4198TIP3    H112479   4.244   4.243   2.012
 4198TIP3    H212480   4.206   4.370   1.939
 4199TIP3   OH212481   3.492   2.824   3.816
 4199TIP3    H112482   3.452   2.761   3.875
 4199TIP3    H212483   3.582   2.831   3.845
 4200TIP3   OH212484   3.734   2.813   3.954
 4200TIP3    H112485   3.808   2.800   3.894
 4200TIP3    H212486   3.736   2.737   4.012
 4201TIP3   OH212487   2.857   4.034   1.978
 4201TIP3    H112488   2.856   4.036   2.074
 4201TIP3    H212489   2.938   3.988   1.956
 4202TIP3   OH212490   4.548   2.941   3.703
 4202TIP3    H112491   4.567   2.909   3.791
 4202TIP3    H212492   4.633   2.939   3.658
 4203TIP3   OH212493   4.465   4.479   3.206
 4203TIP3    H112494   4.391   4.448   3.153
 4203TIP3    H212495   4.450   4.573   3.215
 4204TIP3   OH212496   5.743   3.866   1.944
 4204TIP3    H112497   5.710   3.952   1.919
 4204TIP3    H212498   5.674   3.805   1.919
 4205TIP3   OH212499   5.743   3.861   2.372
 4205TIP3    H112500   5.797   3.839   2.448
 4205TIP3    H212501   5.697   3.779   2.352
 4206TIP3   OH212502   5.037   3.716   2.712
 4206TIP3    H112503   5.076   3.665   2.783
 4206TIP3    H212504   5.110   3.740   2.656
 4207TIP3   OH212505   6.013   4.168   2.043
 4207TIP3    H112506   5.996   4.099   2.108
 4207TIP3    H212507   6.031   4.246   2.095
 4208TIP3   OH212508   5.031   4.151   2.400
 4208TIP3    H112509   5.013   4.057   2.406
 4208TIP3    H212510   5.126   4.156   2.391
 4209TIP3   OH212511   4.712   3.351   2.182
 4209TIP3    H112512   4.672   3.434   2.207
 4209TIP3    H212513   4.640   3.301   2.142
 4210TIP3   OH212514   4.789   3.657   2.410
 4210TIP3    H112515   4.840   3.580   2.435
 4210TIP3    H212516   4.855   3.719   2.377
 4211TIP3   OH212517   5.671   4.590   2.057
 4211TIP3    H112518   5.693   4.527   1.988
 4211TIP3    H212519   5.676   4.539   2.138
 4212TIP3   OH212520   5.544   4.081   2.370
 4212TIP3    H112521   5.590   4.001   2.342
 4212TIP3    H212522   5.614   4.138   2.401
 4213TIP3   OH212523   6.583   3.397   2.388
 4213TIP3    H112524   6.598   3.482   2.429
 4213TIP3    H212525   6.609   3.408   2.297
 4214TIP3   OH212526   5.953   3.566   2.407
 4214TIP3    H112527   5.984   3.481   2.436
 4214TIP3    H212528   5.917   3.551   2.320
 4215TIP3   OH212529   5.310   3.223   2.364
 4215TIP3    H112530   5.288   3.296   2.307
 4215TIP3    H212531   5.255   3.151   2.334
 4216TIP3   OH212532   6.007   3.327   2.004
 4216TIP3    H112533   6.070   3.321   2.075
 4216TIP3    H212534   6.057   3.360   1.930
 4217TIP3   OH212535   4.933   3.437   2.498
 4217TIP3    H112536   5.016   3.419   2.541
 4217TIP3    H212537   4.935   3.386   2.417
 4218TIP3   OH212538   5.350   3.639   2.315
 4218TIP3    H112539   5.445   3.625   2.320
 4218TIP3    H212540   5.315   3.557   2.281
 4219TIP3   OH212541   6.636   3.620   2.552
 4219TIP3    H112542   6.546   3.652   2.548
 4219TIP3    H212543   6.669   3.650   2.637
 4220TIP3   OH212544   5.288   3.229   2.819
 4220TIP3    H112545   5.239   3.264   2.744
 4220TIP3    H212546   5.233   3.247   2.895
 4221TIP3   OH212547   5.623   4.078   1.816
 4221TIP3    H112548   5.587   4.053   1.731
 4221TIP3    H212549   5.577   4.158   1.839
 4222TIP3   OH212550   5.381   4.005   2.581
 4222TIP3    H112551   5.328   4.076   2.615
 4222TIP3    H212552   5.429   4.044   2.508
 4223TIP3   OH212553   6.161   3.352   2.228
 4223TIP3    H112554   6.120   3.329   2.311
 4223TIP3    H212555   6.218   3.426   2.249
 4224TIP3   OH212556   5.183   3.335   2.586
 4224TIP3    H112557   5.238   3.410   2.609
 4224TIP3    H212558   5.229   3.293   2.514
 4225TIP3   OH212559   5.227   4.208   2.688
 4225TIP3    H112560   5.213   4.298   2.659
 4225TIP3    H212561   5.149   4.187   2.740
 4226TIP3   OH212562   4.607   3.912   1.945
 4226TIP3    H112563   4.570   3.930   1.858
 4226TIP3    H212564   4.630   3.999   1.979
 4227TIP3   OH212565   6.048   4.413   2.189
 4227TIP3    H112566   5.960   4.406   2.225
 4227TIP3    H212567   6.047   4.495   2.139
 4228TIP3   OH212568   6.379   3.294   2.558
 4228TIP3    H112569   6.295   3.313   2.516
 4228TIP3    H212570   6.444   3.318   2.492
 4229TIP3   OH212571   5.634   2.920   2.554
 4229TIP3    H112572   5.626   2.828   2.578
 4229TIP3    H212573   5.556   2.961   2.591
 4230TIP3   OH212574   5.750   4.445   1.832
 4230TIP3    H112575   5.804   4.366   1.824
 4230TIP3    H212576   5.809   4.516   1.805
 4231TIP3   OH212577   5.908   4.228   1.794
 4231TIP3    H112578   5.881   4.146   1.753
 4231TIP3    H212579   5.949   4.202   1.876
 4232TIP3   OH212580   6.285   4.293   2.524
 4232TIP3    H112581   6.262   4.221   2.465
 4232TIP3    H212582   6.270   4.372   2.472
 4233TIP3   OH212583   5.568   3.703   1.799
 4233TIP3    H112584   5.485   3.747   1.779
 4233TIP3    H212585   5.614   3.701   1.715
 4234TIP3   OH212586   5.536   3.515   1.483
 4234TIP3    H112587   5.602   3.562   1.534
 4234TIP3    H212588   5.586   3.449   1.435
 4235TIP3   OH212589   6.457   3.968   2.397
 4235TIP3    H112590   6.371   4.009   2.390
 4235TIP3    H212591   6.494   3.975   2.309
 4236TIP3   OH212592   5.928   3.798   1.754
 4236TIP3    H112593   5.873   3.824   1.828
 4236TIP3    H212594   6.010   3.769   1.793
 4237TIP3   OH212595   6.157   3.822   2.705
 4237TIP3    H112596   6.151   3.904   2.755
 4237TIP3    H212597   6.076   3.818   2.655
 4238TIP3   OH212598   5.153   3.771   2.161
 4238TIP3    H112599   5.116   3.710   2.097
 4238TIP3    H212600   5.225   3.723   2.202
 4239TIP3   OH212601   5.293   4.200   2.301
 4239TIP3    H112602   5.267   4.184   2.211
 4239TIP3    H212603   5.379   4.159   2.309
 4240TIP3   OH212604   5.249   3.768   2.538
 4240TIP3    H112605   5.288   3.730   2.459
 4240TIP3    H212606   5.298   3.849   2.553
 4241TIP3   OH212607   5.806   4.409   2.313
 4241TIP3    H112608   5.790   4.488   2.365
 4241TIP3    H212609   5.791   4.336   2.374
 4242TIP3   OH212610   5.425   4.303   2.858
 4242TIP3    H112611   5.364   4.359   2.906
 4242TIP3    H212612   5.370   4.252   2.800
 4243TIP3   OH212613   5.757   3.655   1.592
 4243TIP3    H112614   5.817   3.712   1.639
 4243TIP3    H212615   5.785   3.661   1.500
 4244TIP3   OH212616   5.178   3.848   3.008
 4244TIP3    H112617   5.183   3.942   3.025
 4244TIP3    H212618   5.084   3.830   3.000
 4245TIP3   OH212619   5.501   4.328   1.846
 4245TIP3    H112620   5.585   4.373   1.848
 4245TIP3    H212621   5.444   4.386   1.796
 4246TIP3   OH212622   5.215   4.460   2.946
 4246TIP3    H112623   5.188   4.470   2.855
 4246TIP3    H212624   5.133   4.445   2.993
 4247TIP3   OH212625   6.269   2.881   1.650
 4247TIP3    H112626   6.192   2.901   1.704
 4247TIP3    H212627   6.278   2.956   1.592
 4248TIP3   OH212628   5.028   3.612   1.962
 4248TIP3    H112629   4.950   3.659   1.933
 4248TIP3    H212630   4.998   3.522   1.976
 4249TIP3   OH212631   6.099   4.259   1.201
 4249TIP3    H112632   6.093   4.351   1.179
 4249TIP3    H212633   6.188   4.234   1.175
 4250TIP3   OH212634   4.811   4.020   2.894
 4250TIP3    H112635   4.741   4.002   2.832
 4250TIP3    H212636   4.845   3.934   2.919
 4251TIP3   OH212637   4.656   4.211   2.544
 4251TIP3    H112638   4.749   4.230   2.558
 4251TIP3    H212639   4.610   4.287   2.577
 4252TIP3   OH212640   6.507   4.677   2.645
 4252TIP3    H112641   6.511   4.582   2.631
 4252TIP3    H212642   6.415   4.694   2.665
 4253TIP3   OH212643   5.613   4.449   2.721
 4253TIP3    H112644   5.603   4.540   2.751
 4253TIP3    H212645   5.546   4.401   2.769
 4254TIP3   OH212646   5.394   4.547   1.673
 4254TIP3    H112647   5.347   4.525   1.593
 4254TIP3    H212648   5.355   4.629   1.702
 4255TIP3   OH212649   4.829   4.405   2.053
 4255TIP3    H112650   4.873   4.396   2.138
 4255TIP3    H212651   4.779   4.324   2.044
 4256TIP3   OH212652   5.595   4.480   1.300
 4256TIP3    H112653   5.645   4.407   1.265
 4256TIP3    H212654   5.630   4.493   1.388
 4257TIP3   OH212655   5.648   4.522   1.570
 4257TIP3    H112656   5.561   4.526   1.610
 4257TIP3    H212657   5.703   4.482   1.637
 4258TIP3   OH212658   6.404   3.777   2.859
 4258TIP3    H112659   6.320   3.782   2.812
 4258TIP3    H212660   6.422   3.684   2.866
 4259TIP3   OH212661   5.009   4.209   2.860
 4259TIP3    H112662   5.060   4.196   2.940
 4259TIP3    H212663   4.938   4.145   2.867
 4260TIP3   OH212664   5.395   3.011   2.678
 4260TIP3    H112665   5.312   2.977   2.645
 4260TIP3    H212666   5.371   3.092   2.723
 4261TIP3   OH212667   5.935   3.137   2.878
 4261TIP3    H112668   6.004   3.112   2.939
 4261TIP3    H212669   5.853   3.121   2.926
 4262TIP3   OH212670   6.157   3.557   2.797
 4262TIP3    H112671   6.117   3.552   2.884
 4262TIP3    H212672   6.141   3.647   2.768
 4263TIP3   OH212673   5.836   3.653   1.332
 4263TIP3    H112674   5.789   3.645   1.249
 4263TIP3    H212675   5.920   3.694   1.308
 4264TIP3   OH212676   5.545   3.052   1.645
 4264TIP3    H112677   5.507   3.061   1.732
 4264TIP3    H212678   5.509   2.971   1.611
 4265TIP3   OH212679   5.333   3.546   2.686
 4265TIP3    H112680   5.287   3.553   2.769
 4265TIP3    H212681   5.311   3.628   2.640
 4266TIP3   OH212682   5.211   3.425   2.207
 4266TIP3    H112683   5.122   3.400   2.232
 4266TIP3    H212684   5.220   3.393   2.117
 4267TIP3   OH212685   5.691   3.499   1.934
 4267TIP3    H112686   5.644   3.571   1.894
 4267TIP3    H212687   5.749   3.466   1.865
 4268TIP3   OH212688   5.876   3.764   3.007
 4268TIP3    H112689   5.849   3.696   3.068
 4268TIP3    H212690   5.969   3.780   3.028
 4269TIP3   OH212691   5.862   3.514   2.154
 4269TIP3    H112692   5.793   3.533   2.091
 4269TIP3    H212693   5.909   3.440   2.116
 4270TIP3   OH212694   5.172   3.564   2.907
 4270TIP3    H112695   5.180   3.628   2.977
 4270TIP3    H212696   5.152   3.482   2.952
 4271TIP3   OH212697   5.213   3.035   1.624
 4271TIP3    H112698   5.203   3.039   1.719
 4271TIP3    H212699   5.134   3.077   1.589
 4272TIP3   OH212700   4.758   3.078   2.489
 4272TIP3    H112701   4.833   3.113   2.536
 4272TIP3    H212702   4.792   3.059   2.401
 4273TIP3   OH212703   4.663   3.057   1.989
 4273TIP3    H112704   4.707   3.091   1.912
 4273TIP3    H212705   4.598   3.124   2.012
 4274TIP3   OH212706   5.908   3.767   2.583
 4274TIP3    H112707   5.931   3.701   2.518
 4274TIP3    H212708   5.863   3.719   2.652
 4275TIP3   OH212709   5.580   3.214   2.258
 4275TIP3    H112710   5.501   3.212   2.312
 4275TIP3    H212711   5.652   3.204   2.319
 4276TIP3   OH212712   4.971   3.300   2.264
 4276TIP3    H112713   4.883   3.305   2.227
 4276TIP3    H212714   4.999   3.209   2.248
 4277TIP3   OH212715   5.225   3.305   1.960
 4277TIP3    H112716   5.320   3.313   1.950
 4277TIP3    H212717   5.190   3.321   1.873
 4278TIP3   OH212718   6.021   3.304   2.467
 4278TIP3    H112719   6.002   3.321   2.559
 4278TIP3    H212720   5.954   3.241   2.440
 4279TIP3   OH212721   5.114   3.327   1.711
 4279TIP3    H112722   5.051   3.276   1.659
 4279TIP3    H212723   5.168   3.371   1.646
 4280TIP3   OH212724   6.215   5.015   2.676
 4280TIP3    H112725   6.209   5.021   2.581
 4280TIP3    H212726   6.274   5.087   2.700
 4281TIP3   OH212727   5.163   4.118   3.094
 4281TIP3    H112728   5.244   4.138   3.142
 4281TIP3    H212729   5.094   4.127   3.159
 4282TIP3   OH212730   5.625   3.591   2.363
 4282TIP3    H112731   5.690   3.540   2.314
 4282TIP3    H212732   5.622   3.550   2.449
 4283TIP3   OH212733   5.115   3.051   2.249
 4283TIP3    H112734   5.087   2.975   2.301
 4283TIP3    H212735   5.133   3.014   2.163
 4284TIP3   OH212736   5.598   3.491   2.626
 4284TIP3    H112737   5.511   3.522   2.651
 4284TIP3    H212738   5.659   3.542   2.680
 4285TIP3   OH212739   5.329   3.837   1.741
 4285TIP3    H112740   5.255   3.782   1.717
 4285TIP3    H212741   5.302   3.879   1.823
 4286TIP3   OH212742   6.219   4.097   2.343
 4286TIP3    H112743   6.253   4.146   2.268
 4286TIP3    H212744   6.141   4.054   2.310
 4287TIP3   OH212745   5.798   3.155   1.655
 4287TIP3    H112746   5.705   3.133   1.648
 4287TIP3    H212747   5.800   3.250   1.663
 4288TIP3   OH212748   5.749   4.185   2.758
 4288TIP3    H112749   5.795   4.170   2.841
 4288TIP3    H212750   5.704   4.269   2.771
 4289TIP3   OH212751   5.854   3.423   1.718
 4289TIP3    H112752   5.949   3.426   1.727
 4289TIP3    H212753   5.832   3.499   1.665
 4290TIP3   OH212754   5.025   3.865   2.389
 4290TIP3    H112755   5.061   3.842   2.303
 4290TIP3    H212756   5.089   3.831   2.452
 4291TIP3   OH212757   5.481   4.000   1.584
 4291TIP3    H112758   5.433   4.082   1.582
 4291TIP3    H212759   5.426   3.941   1.636
 4292TIP3   OH212760   4.903   3.786   3.025
 4292TIP3    H112761   4.904   3.759   3.117
 4292TIP3    H212762   4.828   3.740   2.988
 4293TIP3   OH212763   5.647   3.924   3.046
 4293TIP3    H112764   5.577   3.864   3.021
 4293TIP3    H212765   5.728   3.880   3.018
 4294TIP3   OH212766   5.885   4.472   2.646
 4294TIP3    H112767   5.791   4.455   2.647
 4294TIP3    H212768   5.905   4.504   2.734
 4295TIP3   OH212769   6.268   3.511   1.532
 4295TIP3    H112770   6.211   3.466   1.469
 4295TIP3    H212771   6.274   3.601   1.499
 4296TIP3   OH212772   6.526   4.403   2.607
 4296TIP3    H112773   6.437   4.369   2.608
 4296TIP3    H212774   6.564   4.368   2.526
 4297TIP3   OH212775   6.016   4.326   1.465
 4297TIP3    H112776   5.988   4.254   1.523
 4297TIP3    H212777   6.036   4.283   1.382
 4298TIP3   OH212778   5.993   3.960   2.241
 4298TIP3    H112779   5.903   3.938   2.266
 4298TIP3    H212780   6.028   3.880   2.203
 4299TIP3   OH212781   5.147   4.199   2.060
 4299TIP3    H112782   5.144   4.274   2.002
 4299TIP3    H212783   5.056   4.186   2.088
 4300TIP3   OH212784   4.710   3.481   1.776
 4300TIP3    H112785   4.751   3.564   1.798
 4300TIP3    H212786   4.627   3.481   1.825
 4301TIP3   OH212787   5.228   3.953   1.962
 4301TIP3    H112788   5.213   4.042   1.995
 4301TIP3    H212789   5.203   3.897   2.036
 4302TIP3   OH212790   5.430   4.522   2.515
 4302TIP3    H112791   5.466   4.596   2.465
 4302TIP3    H212792   5.504   4.488   2.565
 4303TIP3   OH212793   5.063   4.422   1.909
 4303TIP3    H112794   4.976   4.427   1.949
 4303TIP3    H212795   5.098   4.511   1.915
 4304TIP3   OH212796   5.778   4.186   2.483
 4304TIP3    H112797   5.769   4.184   2.578
 4304TIP3    H212798   5.843   4.119   2.463
 4305TIP3   OH212799   5.782   4.065   1.359
 4305TIP3    H112800   5.826   4.045   1.441
 4305TIP3    H212801   5.699   4.016   1.364
 4306TIP3   OH212802   6.034   4.679   2.528
 4306TIP3    H112803   5.967   4.615   2.550
 4306TIP3    H212804   5.997   4.729   2.455
 4307TIP3   OH212805   6.096   4.532   1.168
 4307TIP3    H112806   6.142   4.610   1.136
 4307TIP3    H212807   6.015   4.566   1.205
 4308TIP3   OH212808   5.116   3.310   3.023
 4308TIP3    H112809   5.021   3.319   3.027
 4308TIP3    H212810   5.138   3.260   3.102
 4309TIP3   OH212811   5.950   4.008   1.574
 4309TIP3    H112812   5.933   3.936   1.635
 4309TIP3    H212813   6.044   4.006   1.559
 4310TIP3   OH212814   4.861   4.410   2.680
 4310TIP3    H112815   4.912   4.347   2.731
 4310TIP3    H212816   4.876   4.494   2.724
 4311TIP3   OH212817   5.125   4.026   1.372
 4311TIP3    H112818   5.136   3.935   1.344
 4311TIP3    H212819   5.112   4.022   1.466
 4312TIP3   OH212820   5.069   4.046   1.644
 4312TIP3    H112821   5.131   4.019   1.711
 4312TIP3    H212822   5.068   4.141   1.648
 4313TIP3   OH212823   4.802   3.734   1.854
 4313TIP3    H112824   4.737   3.782   1.905
 4313TIP3    H212825   4.822   3.791   1.780
 4314TIP3   OH212826   5.964   3.368   2.729
 4314TIP3    H112827   6.043   3.412   2.762
 4314TIP3    H212828   5.955   3.290   2.785
 4315TIP3   OH212829   5.858   3.107   1.921
 4315TIP3    H112830   5.837   3.124   1.830
 4315TIP3    H212831   5.902   3.187   1.951
 4316TIP3   OH212832   5.339   4.230   1.579
 4316TIP3    H112833   5.254   4.254   1.617
 4316TIP3    H212834   5.361   4.303   1.522
 4317TIP3   OH212835   5.505   3.308   2.007
 4317TIP3    H112836   5.567   3.376   1.980
 4317TIP3    H212837   5.530   3.287   2.097
 4318TIP3   OH212838   5.805   3.603   2.778
 4318TIP3    H112839   5.829   3.643   2.862
 4318TIP3    H212840   5.854   3.520   2.776
 4319TIP3   OH212841   5.668   3.003   2.093
 4319TIP3    H112842   5.645   3.080   2.144
 4319TIP3    H212843   5.739   3.032   2.035
 4320TIP3   OH212844   5.090   4.320   1.656
 4320TIP3    H112845   5.070   4.393   1.597
 4320TIP3    H212846   5.079   4.356   1.744
 4321TIP3   OH212847   5.181   3.030   1.903
 4321TIP3    H112848   5.169   3.121   1.930
 4321TIP3    H212849   5.276   3.015   1.908
 4322TIP3   OH212850   6.419   3.493   2.768
 4322TIP3    H112851   6.326   3.508   2.783
 4322TIP3    H212852   6.422   3.430   2.697
 4323TIP3   OH212853   6.085   3.703   2.154
 4323TIP3    H112854   6.009   3.646   2.164
 4323TIP3    H212855   6.152   3.663   2.209
 4324TIP3   OH212856   4.827   3.909   1.636
 4324TIP3    H112857   4.899   3.971   1.645
 4324TIP3    H212858   4.857   3.846   1.571
 4325TIP3   OH212859   4.729   3.202   1.767
 4325TIP3    H112860   4.741   3.297   1.776
 4325TIP3    H212861   4.666   3.192   1.696
 4326TIP3   OH212862   6.063   4.677   2.095
 4326TIP3    H112863   6.019   4.731   2.030
 4326TIP3    H212864   6.156   4.692   2.080
 4327TIP3   OH212865   5.134   2.924   2.635
 4327TIP3    H112866   5.104   2.893   2.550
 4327TIP3    H212867   5.123   2.848   2.693
 4328TIP3   OH212868   4.654   4.185   2.024
 4328TIP3    H112869   4.605   4.218   2.099
 4328TIP3    H212870   4.611   4.226   1.948
 4329TIP3   OH212871   4.858   4.718   3.100
 4329TIP3    H112872   4.941   4.721   3.148
 4329TIP3    H212873   4.838   4.624   3.091
 4330TIP3   OH212874   5.323   4.625   3.138
 4330TIP3    H112875   5.413   4.594   3.149
 4330TIP3    H212876   5.288   4.570   3.067
 4331TIP3   OH212877   5.279   4.226   1.260
 4331TIP3    H112878   5.232   4.157   1.306
 4331TIP3    H212879   5.354   4.182   1.220
 4332TIP3   OH212880   5.935   4.562   2.900
 4332TIP3    H112881   5.953   4.492   2.963
 4332TIP3    H212882   6.004   4.627   2.917
 4333TIP3   OH212883   5.723   4.268   1.185
 4333TIP3    H112884   5.757   4.204   1.248
 4333TIP3    H212885   5.781   4.260   1.109
 4334TIP3   OH212886   4.958   4.120   3.284
 4334TIP3    H112887   4.975   4.027   3.297
 4334TIP3    H212888   4.872   4.124   3.244
 4335TIP3   OH212889   4.948   3.720   1.481
 4335TIP3    H112890   4.998   3.694   1.558
 4335TIP3    H212891   5.013   3.733   1.412
 4336TIP3   OH212892   5.580   4.200   3.063
 4336TIP3    H112893   5.534   4.220   2.981
 4336TIP3    H212894   5.615   4.112   3.050
 4337TIP3   OH212895   5.532   3.940   1.321
 4337TIP3    H112896   5.505   3.951   1.413
 4337TIP3    H212897   5.511   3.849   1.301
 4338TIP3   OH212898   6.062   4.251   2.688
 4338TIP3    H112899   6.136   4.275   2.632
 4338TIP3    H212900   5.994   4.315   2.666
 4339TIP3   OH212901   5.072   3.865   3.296
 4339TIP3    H112902   5.148   3.847   3.240
 4339TIP3    H212903   5.110   3.884   3.382
 4340TIP3   OH212904   5.120   3.661   1.694
 4340TIP3    H112905   5.099   3.630   1.782
 4340TIP3    H212906   5.169   3.590   1.654
 4341TIP3   OH212907   5.440   3.749   2.957
 4341TIP3    H112908   5.353   3.787   2.967
 4341TIP3    H212909   5.467   3.775   2.869
 4342TIP3   OH212910   5.265   3.481   1.540
 4342TIP3    H112911   5.234   3.484   1.449
 4342TIP3    H212912   5.360   3.489   1.533
 4343TIP3   OH212913   5.938   4.121   3.029
 4343TIP3    H112914   6.007   4.081   2.976
 4343TIP3    H212915   5.934   4.066   3.108
 4344TIP3   OH212916   6.059   3.770   1.215
 4344TIP3    H112917   6.044   3.728   1.130
 4344TIP3    H212918   6.035   3.862   1.200
 4345TIP3   OH212919   5.539   3.513   3.060
 4345TIP3    H112920   5.541   3.444   2.993
 4345TIP3    H212921   5.506   3.590   3.013
 4346TIP3   OH212922   5.547   3.317   2.854
 4346TIP3    H112923   5.575   3.353   2.770
 4346TIP3    H212924   5.457   3.289   2.840
 4347TIP3   OH212925   5.546   3.837   2.723
 4347TIP3    H112926   5.636   3.866   2.708
 4347TIP3    H212927   5.492   3.899   2.673
 4348TIP3   OH212928   6.145   3.796   3.107
 4348TIP3    H112929   6.178   3.707   3.120
 4348TIP3    H212930   6.223   3.849   3.095
 4349TIP3   OH212931   6.175   4.066   2.850
 4349TIP3    H112932   6.124   4.130   2.801
 4349TIP3    H212933   6.265   4.077   2.819
 4350TIP3   OH212934   5.425   3.596   3.303
 4350TIP3    H112935   5.354   3.534   3.324
 4350TIP3    H212936   5.453   3.572   3.215
 4351TIP3   OH212937   5.670   3.087   2.959
 4351TIP3    H112938   5.629   3.167   2.925
 4351TIP3    H212939   5.604   3.019   2.945
 4352TIP3   OH212940   5.794   3.553   3.162
 4352TIP3    H112941   5.785   3.540   3.257
 4352TIP3    H212942   5.708   3.532   3.127
 4353TIP3   OH212943   6.041   3.510   3.036
 4353TIP3    H112944   5.962   3.508   3.090
 4353TIP3    H212945   6.111   3.482   3.094
 4354TIP3   OH212946   6.277   3.473   3.182
 4354TIP3    H112947   6.293   3.379   3.190
 4354TIP3    H212948   6.274   3.505   3.272
 4355TIP3   OH212949   5.256   3.376   3.366
 4355TIP3    H112950   5.264   3.289   3.329
 4355TIP3    H212951   5.297   3.369   3.453
 4356TIP3   OH212952   5.736   3.060   3.223
 4356TIP3    H112953   5.805   2.995   3.217
 4356TIP3    H212954   5.707   3.074   3.133
 4357TIP3   OH212955   5.834   3.274   3.369
 4357TIP3    H112956   5.803   3.203   3.313
 4357TIP3    H212957   5.761   3.336   3.370
 4358TIP3   OH212958   5.091   4.536   1.478
 4358TIP3    H112959   5.178   4.509   1.448
 4358TIP3    H212960   5.052   4.578   1.402
 4359TIP3   OH212961   4.553   3.913   1.652
 4359TIP3    H112962   4.648   3.921   1.650
 4359TIP3    H212963   4.535   3.827   1.614
 4360TIP3   OH212964   4.452   4.495   2.117
 4360TIP3    H112965   4.389   4.440   2.070
 4360TIP3    H212966   4.497   4.435   2.176
 4361TIP3   OH212967   4.598   4.328   2.282
 4361TIP3    H112968   4.588   4.256   2.345
 4361TIP3    H212969   4.651   4.393   2.328
 4362TIP3   OH212970   6.327   4.745   2.077
 4362TIP3    H112971   6.354   4.772   2.165
 4362TIP3    H212972   6.393   4.785   2.020
 4363TIP3   OH212973   6.348   4.766   2.363
 4363TIP3    H112974   6.302   4.682   2.360
 4363TIP3    H212975   6.424   4.749   2.419
 4364TIP3   OH212976   6.439   4.487   2.927
 4364TIP3    H112977   6.365   4.488   2.987
 4364TIP3    H212978   6.463   4.579   2.917
 4365TIP3   OH212979   6.227   3.980   1.551
 4365TIP3    H112980   6.287   4.048   1.519
 4365TIP3    H212981   6.273   3.940   1.625
 4366TIP3   OH212982   6.356   3.835   1.750
 4366TIP3    H112983   6.288   3.794   1.805
 4366TIP3    H212984   6.421   3.868   1.813
 4367TIP3   OH212985   6.414   4.241   2.192
 4367TIP3    H112986   6.462   4.166   2.156
 4367TIP3    H212987   6.416   4.306   2.122
 4368TIP3   OH212988   6.215   4.522   2.384
 4368TIP3    H112989   6.146   4.566   2.434
 4368TIP3    H212990   6.168   4.481   2.311
 4369TIP3   OH212991   6.263   3.753   1.398
 4369TIP3    H112992   6.193   3.751   1.333
 4369TIP3    H212993   6.246   3.831   1.450
 4370TIP3   OH212994   6.116   3.401   1.333
 4370TIP3    H112995   6.073   3.436   1.255
 4370TIP3    H212996   6.106   3.306   1.326
 4371TIP3   OH212997   6.153   3.694   1.884
 4371TIP3    H112998   6.157   3.600   1.869
 4371TIP3    H212999   6.134   3.702   1.977
 4372TIP3   OH213000   4.773   3.755   2.664
 4372TIP3    H113001   4.762   3.722   2.575
 4372TIP3    H213002   4.867   3.751   2.681
 4373TIP3   OH213003   6.430   4.109   2.745
 4373TIP3    H113004   6.499   4.044   2.735
 4373TIP3    H213005   6.418   4.145   2.657
 4374TIP3   OH213006   6.616   3.904   2.742
 4374TIP3    H113007   6.542   3.860   2.783
 4374TIP3    H213008   6.691   3.847   2.761
 4375TIP3   OH213009   6.076   3.131   1.309
 4375TIP3    H113010   6.143   3.102   1.371
 4375TIP3    H213011   5.996   3.090   1.339
 4376TIP3   OH213012   6.148   3.418   1.773
 4376TIP3    H113013   6.193   3.335   1.786
 4376TIP3    H213014   6.188   3.456   1.695
 4377TIP3   OH213015   6.300   3.584   2.297
 4377TIP3    H113016   6.381   3.600   2.248
 4377TIP3    H213017   6.315   3.624   2.383
 4378TIP3   OH213018   6.376   3.734   2.524
 4378TIP3    H113019   6.303   3.761   2.581
 4378TIP3    H213020   6.406   3.815   2.483
 4379TIP3   OH213021   4.993   3.436   3.303
 4379TIP3    H113022   5.087   3.433   3.322
 4379TIP3    H213023   4.958   3.356   3.342
 4380TIP3   OH213024   6.832   3.338   3.059
 4380TIP3    H113025   6.898   3.278   3.025
 4380TIP3    H213026   6.798   3.383   2.982
 4381TIP3   OH213027   6.263   3.169   1.827
 4381TIP3    H113028   6.308   3.154   1.910
 4381TIP3    H213029   6.201   3.097   1.820
 4382TIP3   OH213030   4.974   3.150   2.651
 4382TIP3    H113031   5.026   3.071   2.656
 4382TIP3    H213032   5.037   3.220   2.632
 4383TIP3   OH213033   4.750   3.410   2.716
 4383TIP3    H113034   4.801   3.398   2.635
 4383TIP3    H213035   4.775   3.498   2.747
 4384TIP3   OH213036   6.685   3.446   2.854
 4384TIP3    H113037   6.600   3.484   2.878
 4384TIP3    H213038   6.664   3.367   2.805
 4385TIP3   OH213039   6.305   3.080   1.464
 4385TIP3    H113040   6.351   3.021   1.405
 4385TIP3    H213041   6.360   3.158   1.468
 4386TIP3   OH213042   4.739   2.935   2.221
 4386TIP3    H113043   4.654   2.919   2.261
 4386TIP3    H213044   4.720   2.985   2.142
 4387TIP3   OH213045   5.895   4.651   1.732
 4387TIP3    H113046   5.948   4.634   1.654
 4387TIP3    H213047   5.943   4.718   1.780
 4388TIP3   OH213048   4.965   2.975   3.042
 4388TIP3    H113049   4.915   2.976   3.123
 4388TIP3    H213050   4.911   3.025   2.980
 4389TIP3   OH213051   4.992   4.435   3.114
 4389TIP3    H113052   4.899   4.418   3.105
 4389TIP3    H213053   5.010   4.424   3.208
 4390TIP3   OH213054   5.201   4.485   2.663
 4390TIP3    H113055   5.151   4.560   2.632
 4390TIP3    H213056   5.286   4.494   2.620
 4391TIP3   OH213057   5.595   4.715   2.800
 4391TIP3    H113058   5.632   4.707   2.888
 4391TIP3    H213059   5.657   4.770   2.753
 4392TIP3   OH213060   5.785   4.871   2.673
 4392TIP3    H113061   5.845   4.816   2.623
 4392TIP3    H213062   5.842   4.926   2.727
 4393TIP3   OH213063   6.602   3.192   2.762
 4393TIP3    H113064   6.513   3.179   2.728
 4393TIP3    H213065   6.642   3.104   2.757
 4394TIP3   OH213066   4.864   4.733   2.709
 4394TIP3    H113067   4.772   4.748   2.689
 4394TIP3    H213068   4.885   4.797   2.777
 4395TIP3   OH213069   5.094   4.718   2.561
 4395TIP3    H113070   5.012   4.723   2.608
 4395TIP3    H213071   5.071   4.739   2.470
 4396TIP3   OH213072   5.504   4.735   2.353
 4396TIP3    H113073   5.431   4.744   2.291
 4396TIP3    H213074   5.512   4.822   2.392
 4397TIP3   OH213075   5.766   4.669   2.404
 4397TIP3    H113076   5.675   4.688   2.382
 4397TIP3    H213077   5.816   4.732   2.353
 4398TIP3   OH213078   5.967   4.833   2.299
 4398TIP3    H113079   5.969   4.921   2.260
 4398TIP3    H213080   5.998   4.775   2.230
 4399TIP3   OH213081   4.775   4.501   2.431
 4399TIP3    H113082   4.802   4.476   2.519
 4399TIP3    H213083   4.846   4.469   2.375
 4400TIP3   OH213084   4.977   4.392   2.286
 4400TIP3    H113085   4.988   4.307   2.329
 4400TIP3    H213086   5.064   4.432   2.289
 4401TIP3   OH213087   5.246   4.475   2.310
 4401TIP3    H113088   5.264   4.383   2.293
 4401TIP3    H213089   5.299   4.497   2.386
 4402TIP3   OH213090   5.806   3.120   2.399
 4402TIP3    H113091   5.766   3.049   2.449
 4402TIP3    H213092   5.875   3.078   2.347
 4403TIP3   OH213093   6.307   3.041   2.290
 4403TIP3    H113094   6.342   3.090   2.215
 4403TIP3    H213095   6.213   3.058   2.288
 4404TIP3   OH213096   6.420   3.116   2.050
 4404TIP3    H113097   6.488   3.054   2.023
 4404TIP3    H213098   6.459   3.202   2.037
 4405TIP3   OH213099   5.044   2.824   2.395
 4405TIP3    H113100   4.955   2.791   2.404
 4405TIP3    H213101   5.098   2.745   2.385
 4406TIP3   OH213102   4.873   2.740   2.057
 4406TIP3    H113103   4.895   2.786   1.976
 4406TIP3    H213104   4.834   2.807   2.114
 4407TIP3   OH213105   5.526   2.861   2.293
 4407TIP3    H113106   5.573   2.907   2.223
 4407TIP3    H213107   5.569   2.890   2.374
 4408TIP3   OH213108   6.021   3.001   2.269
 4408TIP3    H113109   6.033   2.966   2.181
 4408TIP3    H213110   6.028   2.925   2.326
 4409TIP3   OH213111   6.079   2.957   1.835
 4409TIP3    H113112   5.999   3.004   1.860
 4409TIP3    H213113   6.068   2.870   1.873
 4410TIP3   OH213114   4.538   4.303   1.804
 4410TIP3    H113115   4.454   4.269   1.773
 4410TIP3    H213116   4.540   4.394   1.773
 4411TIP3   OH213117   4.973   2.860   1.812
 4411TIP3    H113118   5.019   2.798   1.755
 4411TIP3    H213119   5.042   2.916   1.847
 4412TIP3   OH213120   5.456   3.057   1.908
 4412TIP3    H113121   5.515   3.003   1.961
 4412TIP3    H213122   5.473   3.147   1.938
 4413TIP3   OH213123   5.341   4.450   1.403
 4413TIP3    H113124   5.425   4.477   1.365
 4413TIP3    H213125   5.310   4.379   1.347
 4414TIP3   OH213126   6.042   4.595   1.502
 4414TIP3    H113127   6.037   4.500   1.496
 4414TIP3    H213128   5.997   4.626   1.423
 4415TIP3   OH213129   5.275   3.108   3.275
 4415TIP3    H113130   5.242   3.042   3.335
 4415TIP3    H213131   5.368   3.117   3.297
 4416TIP3   OH213132   5.522   3.112   3.397
 4416TIP3    H113133   5.599   3.092   3.344
 4416TIP3    H213134   5.520   3.043   3.463
 4417TIP3   OH213135   4.652   4.291   1.463
 4417TIP3    H113136   4.651   4.292   1.558
 4417TIP3    H213137   4.732   4.244   1.440
 4418TIP3   OH213138   6.342   3.203   3.188
 4418TIP3    H113139   6.359   3.173   3.277
 4418TIP3    H213140   6.428   3.198   3.145
 4419TIP3   OH213141   6.244   4.740   2.699
 4419TIP3    H113142   6.172   4.709   2.644
 4419TIP3    H213143   6.234   4.835   2.700
 4420TIP3   OH213144   7.543   4.132   1.426
 4420TIP3    H113145   7.529   4.202   1.362
 4420TIP3    H213146   7.466   4.077   1.418
 4421TIP3   OH213147   7.535   4.118   1.860
 4421TIP3    H113148   7.591   4.096   1.934
 4421TIP3    H213149   7.491   4.035   1.839
 4422TIP3   OH213150   6.832   3.971   2.206
 4422TIP3    H113151   6.872   3.918   2.275
 4422TIP3    H213152   6.904   3.994   2.148
 4423TIP3   OH213153   7.794   4.424   1.518
 4423TIP3    H113154   7.785   4.354   1.583
 4423TIP3    H213155   7.819   4.501   1.570
 4424TIP3   OH213156   6.821   4.411   1.911
 4424TIP3    H113157   6.804   4.317   1.905
 4424TIP3    H213158   6.914   4.420   1.891
 4425TIP3   OH213159   6.507   3.608   1.668
 4425TIP3    H113160   6.467   3.692   1.692
 4425TIP3    H213161   6.436   3.558   1.628
 4426TIP3   OH213162   6.583   3.913   1.898
 4426TIP3    H113163   6.634   3.835   1.922
 4426TIP3    H213164   6.648   3.973   1.862
 4427TIP3   OH213165   7.465   4.859   1.563
 4427TIP3    H113166   7.482   4.795   1.495
 4427TIP3    H213167   7.463   4.808   1.644
 4428TIP3   OH213168   7.334   4.338   1.864
 4428TIP3    H113169   7.378   4.260   1.830
 4428TIP3    H213170   7.406   4.394   1.895
 4429TIP3   OH213171   8.379   3.651   1.880
 4429TIP3    H113172   8.391   3.737   1.920
 4429TIP3    H213173   8.412   3.661   1.791
 4430TIP3   OH213174   7.740   3.820   1.890
 4430TIP3    H113175   7.773   3.735   1.918
 4430TIP3    H213176   7.700   3.804   1.805
 4431TIP3   OH213177   7.103   3.479   1.852
 4431TIP3    H113178   7.082   3.552   1.794
 4431TIP3    H213179   7.048   3.407   1.821
 4432TIP3   OH213180   7.794   3.594   1.499
 4432TIP3    H113181   7.859   3.585   1.569
 4432TIP3    H213182   7.843   3.628   1.424
 4433TIP3   OH213183   6.729   3.694   1.984
 4433TIP3    H113184   6.813   3.675   2.026
 4433TIP3    H213185   6.732   3.644   1.902
 4434TIP3   OH213186   7.144   3.895   1.808
 4434TIP3    H113187   7.239   3.883   1.810
 4434TIP3    H213188   7.110   3.814   1.770
 4435TIP3   OH213189   8.423   3.873   2.045
 4435TIP3    H113190   8.335   3.910   2.037
 4435TIP3    H213191   8.458   3.912   2.125
 4436TIP3   OH213192   7.086   3.486   2.306
 4436TIP3    H113193   7.036   3.521   2.232
 4436TIP3    H213194   7.029   3.500   2.382
 4437TIP3   OH213195   7.174   4.262   2.076
 4437TIP3    H113196   7.123   4.335   2.110
 4437TIP3    H213197   7.223   4.299   2.002
 4438TIP3   OH213198   7.957   3.608   1.718
 4438TIP3    H113199   7.913   3.590   1.802
 4438TIP3    H213200   8.014   3.682   1.737
 4439TIP3   OH213201   6.977   3.591   2.073
 4439TIP3    H113202   7.033   3.665   2.095
 4439TIP3    H213203   7.022   3.547   2.001
 4440TIP3   OH213204   7.021   4.466   2.193
 4440TIP3    H113205   7.005   4.552   2.153
 4440TIP3    H213206   6.942   4.447   2.243
 4441TIP3   OH213207   6.402   4.166   1.431
 4441TIP3    H113208   6.370   4.188   1.344
 4441TIP3    H213209   6.427   4.249   1.470
 4442TIP3   OH213210   7.838   4.664   1.673
 4442TIP3    H113211   7.750   4.658   1.712
 4442TIP3    H213212   7.838   4.749   1.629
 4443TIP3   OH213213   8.178   3.548   2.049
 4443TIP3    H113214   8.094   3.566   2.007
 4443TIP3    H213215   8.243   3.573   1.983
 4444TIP3   OH213216   7.427   3.175   2.044
 4444TIP3    H113217   7.419   3.083   2.070
 4444TIP3    H213218   7.350   3.217   2.082
 4445TIP3   OH213219   7.525   4.698   1.350
 4445TIP3    H113220   7.576   4.618   1.335
 4445TIP3    H213221   7.573   4.766   1.303
 4446TIP3   OH213222   7.677   4.486   1.269
 4446TIP3    H113223   7.620   4.415   1.238
 4446TIP3    H213224   7.721   4.450   1.345
 4447TIP3   OH213225   8.069   4.555   2.013
 4447TIP3    H113226   8.051   4.481   1.955
 4447TIP3    H213227   8.058   4.632   1.957
 4448TIP3   OH213228   7.345   4.003   1.268
 4448TIP3    H113229   7.254   4.029   1.251
 4448TIP3    H213230   7.397   4.068   1.220
 4449TIP3   OH213231   7.329   3.763   0.985
 4449TIP3    H113232   7.393   3.814   1.034
 4449TIP3    H213233   7.382   3.703   0.932
 4450TIP3   OH213234   8.246   4.217   1.884
 4450TIP3    H113235   8.162   4.262   1.880
 4450TIP3    H213236   8.284   4.227   1.797
 4451TIP3   OH213237   7.725   4.019   1.246
 4451TIP3    H113238   7.670   4.063   1.311
 4451TIP3    H213239   7.811   4.012   1.289
 4452TIP3   OH213240   7.950   4.077   2.193
 4452TIP3    H113241   7.946   4.161   2.239
 4452TIP3    H213242   7.870   4.073   2.142
 4453TIP3   OH213243   6.938   4.022   1.661
 4453TIP3    H113244   6.904   3.963   1.593
 4453TIP3    H213245   7.013   3.975   1.697
 4454TIP3   OH213246   7.079   4.452   1.802
 4454TIP3    H113247   7.054   4.438   1.711
 4454TIP3    H213248   7.167   4.415   1.809
 4455TIP3   OH213249   7.042   4.025   2.029
 4455TIP3    H113250   7.080   3.988   1.949
 4455TIP3    H213251   7.092   4.106   2.044
 4456TIP3   OH213252   7.599   4.665   1.807
 4456TIP3    H113253   7.590   4.743   1.862
 4456TIP3    H213254   7.585   4.592   1.867
 4457TIP3   OH213255   7.227   4.567   2.348
 4457TIP3    H113256   7.167   4.625   2.395
 4457TIP3    H213257   7.170   4.513   2.293
 4458TIP3   OH213258   7.566   3.892   1.058
 4458TIP3    H113259   7.613   3.957   1.111
 4458TIP3    H213260   7.576   3.924   0.968
 4459TIP3   OH213261   6.975   4.112   2.490
 4459TIP3    H113262   6.977   4.203   2.521
 4459TIP3    H213263   6.882   4.091   2.484
 4460TIP3   OH213264   7.239   4.663   1.406
 4460TIP3    H113265   7.334   4.654   1.396
 4460TIP3    H213266   7.211   4.706   1.325
 4461TIP3   OH213267   7.009   4.733   2.413
 4461TIP3    H113268   7.013   4.749   2.319
 4461TIP3    H213269   6.925   4.690   2.427
 4462TIP3   OH213270   8.046   3.158   1.160
 4462TIP3    H113271   7.955   3.164   1.191
 4462TIP3    H213272   8.063   3.243   1.119
 4463TIP3   OH213273   6.817   3.863   1.460
 4463TIP3    H113274   6.742   3.911   1.425
 4463TIP3    H213275   6.785   3.774   1.472
 4464TIP3   OH213276   7.869   4.493   0.665
 4464TIP3    H113277   7.873   4.588   0.672
 4464TIP3    H213278   7.960   4.464   0.677
 4465TIP3   OH213279   6.623   4.293   2.376
 4465TIP3    H113280   6.552   4.274   2.315
 4465TIP3    H213281   6.653   4.207   2.406
 4466TIP3   OH213282   6.481   4.454   2.017
 4466TIP3    H113283   6.574   4.449   1.996
 4466TIP3    H213284   6.471   4.534   2.068
 4467TIP3   OH213285   8.302   4.912   2.088
 4467TIP3    H113286   8.307   4.818   2.102
 4467TIP3    H213287   8.224   4.940   2.135
 4468TIP3   OH213288   7.413   4.710   2.207
 4468TIP3    H113289   7.402   4.800   2.237
 4468TIP3    H213290   7.350   4.660   2.257
 4469TIP3   OH213291   7.180   4.798   1.170
 4469TIP3    H113292   7.141   4.774   1.086
 4469TIP3    H213293   7.140   4.883   1.191
 4470TIP3   OH213294   6.619   4.658   1.551
 4470TIP3    H113295   6.669   4.650   1.632
 4470TIP3    H213296   6.574   4.574   1.543
 4471TIP3   OH213297   7.377   4.713   0.807
 4471TIP3    H113298   7.429   4.644   0.767
 4471TIP3    H213299   7.398   4.709   0.900
 4472TIP3   OH213300   7.423   4.707   1.077
 4472TIP3    H113301   7.342   4.731   1.122
 4472TIP3    H213302   7.463   4.640   1.132
 4473TIP3   OH213303   8.192   4.034   2.352
 4473TIP3    H113304   8.111   4.042   2.302
 4473TIP3    H213305   8.213   3.941   2.351
 4474TIP3   OH213306   6.814   4.491   2.404
 4474TIP3    H113307   6.874   4.443   2.460
 4474TIP3    H213308   6.743   4.429   2.386
 4475TIP3   OH213309   7.189   3.267   2.165
 4475TIP3    H113310   7.105   3.234   2.133
 4475TIP3    H213311   7.166   3.348   2.210
 4476TIP3   OH213312   7.734   3.392   2.367
 4476TIP3    H113313   7.804   3.368   2.427
 4476TIP3    H213314   7.653   3.376   2.416
 4477TIP3   OH213315   7.951   3.811   2.282
 4477TIP3    H113316   7.912   3.808   2.369
 4477TIP3    H213317   7.937   3.901   2.252
 4478TIP3   OH213318   7.584   3.941   0.784
 4478TIP3    H113319   7.569   3.910   0.695
 4478TIP3    H213320   7.674   3.974   0.783
 4479TIP3   OH213321   7.333   3.315   1.139
 4479TIP3    H113322   7.295   3.318   1.226
 4479TIP3    H213323   7.301   3.234   1.100
 4480TIP3   OH213324   7.130   3.801   2.169
 4480TIP3    H113325   7.085   3.807   2.254
 4480TIP3    H213326   7.107   3.883   2.125
 4481TIP3   OH213327   7.007   3.682   1.694
 4481TIP3    H113328   6.918   3.657   1.717
 4481TIP3    H213329   7.018   3.651   1.604
 4482TIP3   OH213330   7.467   3.785   1.407
 4482TIP3    H113331   7.423   3.856   1.360
 4482TIP3    H213332   7.532   3.752   1.345
 4483TIP3   OH213333   7.673   4.021   2.491
 4483TIP3    H113334   7.648   3.953   2.554
 4483TIP3    H213335   7.766   4.037   2.510
 4484TIP3   OH213336   7.637   3.776   1.639
 4484TIP3    H113337   7.574   3.805   1.573
 4484TIP3    H213338   7.686   3.706   1.597
 4485TIP3   OH213339   6.969   3.812   2.393
 4485TIP3    H113340   7.002   3.868   2.463
 4485TIP3    H213341   6.948   3.729   2.436
 4486TIP3   OH213342   7.004   3.290   1.111
 4486TIP3    H113343   6.995   3.297   1.206
 4486TIP3    H213344   6.926   3.334   1.077
 4487TIP3   OH213345   6.554   3.336   1.975
 4487TIP3    H113346   6.628   3.371   2.025
 4487TIP3    H213347   6.591   3.317   1.889
 4488TIP3   OH213348   6.456   3.313   1.478
 4488TIP3    H113349   6.502   3.348   1.400
 4488TIP3    H213350   6.392   3.381   1.500
 4489TIP3   OH213351   7.702   4.021   2.068
 4489TIP3    H113352   7.724   3.955   2.003
 4489TIP3    H213353   7.657   3.972   2.138
 4490TIP3   OH213354   7.371   3.477   1.744
 4490TIP3    H113355   7.293   3.475   1.799
 4490TIP3    H213356   7.444   3.468   1.806
 4491TIP3   OH213357   6.767   3.556   1.750
 4491TIP3    H113358   6.679   3.561   1.712
 4491TIP3    H213359   6.796   3.466   1.734
 4492TIP3   OH213360   7.023   3.562   1.447
 4492TIP3    H113361   7.117   3.573   1.436
 4492TIP3    H213362   6.987   3.578   1.360
 4493TIP3   OH213363   7.815   3.561   1.955
 4493TIP3    H113364   7.796   3.579   2.047
 4493TIP3    H213365   7.746   3.500   1.928
 4494TIP3   OH213366   6.909   3.579   1.199
 4494TIP3    H113367   6.846   3.530   1.145
 4494TIP3    H213368   6.963   3.626   1.135
 4495TIP3   OH213369   8.016   5.265   2.174
 4495TIP3    H113370   8.015   5.277   2.079
 4495TIP3    H213371   8.094   5.311   2.203
 4496TIP3   OH213372   6.964   4.375   2.602
 4496TIP3    H113373   7.047   4.385   2.648
 4496TIP3    H213374   6.899   4.366   2.672
 4497TIP3   OH213375   7.418   3.848   1.847
 4497TIP3    H113376   7.482   3.802   1.792
 4497TIP3    H213377   7.421   3.802   1.931
 4498TIP3   OH213378   6.909   3.307   1.736
 4498TIP3    H113379   6.881   3.232   1.788
 4498TIP3    H213380   6.928   3.271   1.649
 4499TIP3   OH213381   7.395   3.742   2.111
 4499TIP3    H113382   7.308   3.773   2.135
 4499TIP3    H213383   7.455   3.794   2.165
 4500TIP3   OH213384   7.083   4.110   1.216
 4500TIP3    H113385   7.016   4.042   1.205
 4500TIP3    H213386   7.072   4.140   1.307
 4501TIP3   OH213387   8.013   4.355   1.833
 4501TIP3    H113388   8.050   4.403   1.759
 4501TIP3    H213389   7.934   4.314   1.798
 4502TIP3   OH213390   7.581   3.432   1.153
 4502TIP3    H113391   7.487   3.412   1.149
 4502TIP3    H213392   7.584   3.527   1.168
 4503TIP3   OH213393   7.542   4.436   2.252
 4503TIP3    H113394   7.600   4.421   2.327
 4503TIP3    H213395   7.513   4.527   2.261
 4504TIP3   OH213396   7.651   3.690   1.219
 4504TIP3    H113397   7.746   3.699   1.229
 4504TIP3    H213398   7.627   3.759   1.157
 4505TIP3   OH213399   6.818   4.129   1.884
 4505TIP3    H113400   6.851   4.103   1.798
 4505TIP3    H213401   6.882   4.094   1.946
 4506TIP3   OH213402   6.696   4.058   2.515
 4506TIP3    H113403   6.701   4.025   2.605
 4506TIP3    H213404   6.623   4.009   2.476
 4507TIP3   OH213405   7.445   4.179   2.530
 4507TIP3    H113406   7.377   4.121   2.496
 4507TIP3    H213407   7.527   4.138   2.503
 4508TIP3   OH213408   7.682   4.730   2.134
 4508TIP3    H113409   7.587   4.718   2.137
 4508TIP3    H213410   7.704   4.765   2.221
 4509TIP3   OH213411   8.063   3.787   1.032
 4509TIP3    H113412   7.999   3.744   0.975
 4509TIP3    H213413   8.071   3.875   0.998
 4510TIP3   OH213414   8.314   4.632   2.107
 4510TIP3    H113415   8.220   4.619   2.098
 4510TIP3    H213416   8.350   4.606   2.022
 4511TIP3   OH213417   7.804   4.558   0.968
 4511TIP3    H113418   7.773   4.503   1.041
 4511TIP3    H213419   7.815   4.496   0.895
 4512TIP3   OH213420   7.787   4.221   1.727
 4512TIP3    H113421   7.696   4.200   1.748
 4512TIP3    H213422   7.823   4.140   1.692
 4513TIP3   OH213423   6.964   4.455   1.551
 4513TIP3    H113424   6.990   4.530   1.499
 4513TIP3    H213425   6.871   4.443   1.531
 4514TIP3   OH213426   6.503   3.736   1.261
 4514TIP3    H113427   6.547   3.818   1.283
 4514TIP3    H213428   6.422   3.738   1.312
 4515TIP3   OH213429   7.028   4.198   1.466
 4515TIP3    H113430   7.024   4.289   1.497
 4515TIP3    H213431   6.998   4.146   1.540
 4516TIP3   OH213432   7.232   4.773   1.997
 4516TIP3    H113433   7.268   4.847   1.948
 4516TIP3    H213434   7.306   4.740   2.048
 4517TIP3   OH213435   6.849   4.675   1.402
 4517TIP3    H113436   6.762   4.675   1.443
 4517TIP3    H213437   6.881   4.764   1.413
 4518TIP3   OH213438   7.570   4.441   1.975
 4518TIP3    H113439   7.563   4.435   2.070
 4518TIP3    H213440   7.640   4.380   1.951
 4519TIP3   OH213441   7.554   4.320   0.842
 4519TIP3    H113442   7.633   4.303   0.894
 4519TIP3    H213443   7.482   4.306   0.902
 4520TIP3   OH213444   7.840   4.931   2.019
 4520TIP3    H113445   7.771   4.868   2.040
 4520TIP3    H213446   7.803   4.984   1.949
 4521TIP3   OH213447   7.894   4.772   0.657
 4521TIP3    H113448   7.922   4.804   0.571
 4521TIP3    H213449   7.808   4.812   0.671
 4522TIP3   OH213450   6.911   3.562   2.511
 4522TIP3    H113451   6.816   3.572   2.516
 4522TIP3    H213452   6.934   3.509   2.588
 4523TIP3   OH213453   7.765   4.267   1.000
 4523TIP3    H113454   7.706   4.239   1.070
 4523TIP3    H213455   7.853   4.242   1.031
 4524TIP3   OH213456   6.639   4.697   2.162
 4524TIP3    H113457   6.699   4.640   2.211
 4524TIP3    H213458   6.660   4.785   2.194
 4525TIP3   OH213459   6.901   4.286   0.859
 4525TIP3    H113460   6.926   4.199   0.829
 4525TIP3    H213461   6.901   4.279   0.954
 4526TIP3   OH213462   6.874   4.286   1.135
 4526TIP3    H113463   6.956   4.243   1.162
 4526TIP3    H213464   6.890   4.379   1.149
 4527TIP3   OH213465   6.598   3.986   1.343
 4527TIP3    H113466   6.532   4.037   1.391
 4527TIP3    H213467   6.623   4.043   1.270
 4528TIP3   OH213468   7.758   3.623   2.217
 4528TIP3    H113469   7.837   3.668   2.247
 4528TIP3    H213470   7.752   3.546   2.273
 4529TIP3   OH213471   7.638   3.379   1.418
 4529TIP3    H113472   7.621   3.394   1.325
 4529TIP3    H213473   7.682   3.459   1.447
 4530TIP3   OH213474   7.141   4.433   1.046
 4530TIP3    H113475   7.080   4.481   1.102
 4530TIP3    H213476   7.212   4.406   1.105
 4531TIP3   OH213477   7.303   3.573   1.487
 4531TIP3    H113478   7.358   3.647   1.459
 4531TIP3    H213479   7.331   3.556   1.577
 4532TIP3   OH213480   7.599   3.857   2.265
 4532TIP3    H113481   7.624   3.899   2.347
 4532TIP3    H213482   7.648   3.776   2.263
 4533TIP3   OH213483   7.458   3.263   1.588
 4533TIP3    H113484   7.432   3.340   1.639
 4533TIP3    H213485   7.527   3.295   1.530
 4534TIP3   OH213486   6.913   4.558   1.164
 4534TIP3    H113487   6.884   4.626   1.104
 4534TIP3    H213488   6.895   4.593   1.251
 4535TIP3   OH213489   6.976   3.288   1.392
 4535TIP3    H113490   6.965   3.379   1.417
 4535TIP3    H213491   7.070   3.272   1.399
 4536TIP3   OH213492   8.216   3.756   2.263
 4536TIP3    H113493   8.122   3.765   2.275
 4536TIP3    H213494   8.226   3.702   2.185
 4537TIP3   OH213495   7.878   3.962   1.652
 4537TIP3    H113496   7.801   3.907   1.664
 4537TIP3    H213497   7.946   3.920   1.706
 4538TIP3   OH213498   6.627   4.165   1.127
 4538TIP3    H113499   6.703   4.221   1.139
 4538TIP3    H213500   6.654   4.102   1.060
 4539TIP3   OH213501   6.524   3.458   1.256
 4539TIP3    H113502   6.537   3.553   1.263
 4539TIP3    H213503   6.471   3.447   1.178
 4540TIP3   OH213504   7.860   4.931   1.596
 4540TIP3    H113505   7.814   4.983   1.530
 4540TIP3    H213506   7.952   4.955   1.586
 4541TIP3   OH213507   6.927   3.181   2.124
 4541TIP3    H113508   6.897   3.149   2.039
 4541TIP3    H213509   6.918   3.106   2.183
 4542TIP3   OH213510   6.453   4.431   1.525
 4542TIP3    H113511   6.405   4.467   1.599
 4542TIP3    H213512   6.412   4.471   1.448
 4543TIP3   OH213513   7.084   4.893   2.627
 4543TIP3    H113514   7.176   4.879   2.649
 4543TIP3    H213515   7.071   4.841   2.548
 4544TIP3   OH213516   7.076   4.489   0.759
 4544TIP3    H113517   7.038   4.425   0.819
 4544TIP3    H213518   7.156   4.448   0.726
 4545TIP3   OH213519   7.733   4.827   2.385
 4545TIP3    H113520   7.747   4.756   2.448
 4545TIP3    H213521   7.809   4.884   2.398
 4546TIP3   OH213522   7.512   4.527   0.670
 4546TIP3    H113523   7.548   4.457   0.725
 4546TIP3    H213524   7.562   4.522   0.589
 4547TIP3   OH213525   6.747   4.372   2.781
 4547TIP3    H113526   6.765   4.278   2.791
 4547TIP3    H213527   6.661   4.375   2.738
 4548TIP3   OH213528   6.736   3.973   0.965
 4548TIP3    H113529   6.785   3.944   1.042
 4548TIP3    H213530   6.803   3.991   0.899
 4549TIP3   OH213531   7.378   4.455   2.552
 4549TIP3    H113532   7.339   4.478   2.468
 4549TIP3    H213533   7.417   4.368   2.538
 4550TIP3   OH213534   7.241   4.222   0.821
 4550TIP3    H113535   7.233   4.237   0.915
 4550TIP3    H213536   7.255   4.128   0.813
 4551TIP3   OH213537   7.849   4.506   2.172
 4551TIP3    H113538   7.927   4.529   2.121
 4551TIP3    H213539   7.786   4.576   2.152
 4552TIP3   OH213540   6.877   4.127   2.781
 4552TIP3    H113541   6.950   4.085   2.735
 4552TIP3    H213542   6.909   4.141   2.870
 4553TIP3   OH213543   6.898   3.905   1.182
 4553TIP3    H113544   6.887   3.871   1.271
 4553TIP3    H213545   6.956   3.842   1.139
 4554TIP3   OH213546   7.222   3.993   2.436
 4554TIP3    H113547   7.141   4.042   2.448
 4554TIP3    H213548   7.258   4.026   2.354
 4555TIP3   OH213549   7.057   3.736   1.029
 4555TIP3    H113550   7.030   3.742   0.937
 4555TIP3    H213551   7.152   3.744   1.027
 4556TIP3   OH213552   7.731   4.374   2.510
 4556TIP3    H113553   7.804   4.341   2.458
 4556TIP3    H213554   7.730   4.319   2.589
 4557TIP3   OH213555   7.840   4.020   0.714
 4557TIP3    H113556   7.841   3.976   0.629
 4557TIP3    H213557   7.815   4.110   0.694
 4558TIP3   OH213558   7.335   3.768   2.546
 4558TIP3    H113559   7.340   3.697   2.482
 4558TIP3    H213560   7.299   3.842   2.497
 4559TIP3   OH213561   7.345   3.571   2.342
 4559TIP3    H113562   7.373   3.606   2.258
 4559TIP3    H213563   7.254   3.543   2.328
 4560TIP3   OH213564   7.345   4.104   2.223
 4560TIP3    H113565   7.435   4.131   2.203
 4560TIP3    H213566   7.290   4.163   2.171
 4561TIP3   OH213567   7.941   4.058   2.588
 4561TIP3    H113568   7.980   3.971   2.592
 4561TIP3    H213569   8.016   4.117   2.576
 4562TIP3   OH213570   7.968   4.324   2.333
 4562TIP3    H113571   7.916   4.387   2.283
 4562TIP3    H213572   8.057   4.336   2.303
 4563TIP3   OH213573   7.221   3.854   2.789
 4563TIP3    H113574   7.152   3.790   2.811
 4563TIP3    H213575   7.250   3.828   2.701
 4564TIP3   OH213576   7.468   3.341   2.446
 4564TIP3    H113577   7.427   3.421   2.413
 4564TIP3    H213578   7.401   3.273   2.433
 4565TIP3   OH213579   7.591   3.810   2.649
 4565TIP3    H113580   7.581   3.797   2.743
 4565TIP3    H213581   7.506   3.789   2.612
 4566TIP3   OH213582   7.841   3.771   2.524
 4566TIP3    H113583   7.762   3.768   2.578
 4566TIP3    H213584   7.911   3.742   2.582
 4567TIP3   OH213585   8.073   3.725   2.670
 4567TIP3    H113586   8.089   3.631   2.679
 4567TIP3    H213587   8.068   3.757   2.760
 4568TIP3   OH213588   7.055   3.633   2.853
 4568TIP3    H113589   7.061   3.545   2.816
 4568TIP3    H213590   7.093   3.626   2.940
 4569TIP3   OH213591   7.532   3.316   2.712
 4569TIP3    H113592   7.601   3.250   2.706
 4569TIP3    H213593   7.503   3.329   2.622
 4570TIP3   OH213594   7.628   3.532   2.856
 4570TIP3    H113595   7.598   3.459   2.802
 4570TIP3    H213596   7.555   3.593   2.856
 4571TIP3   OH213597   6.869   4.776   0.994
 4571TIP3    H113598   6.959   4.757   0.968
 4571TIP3    H213599   6.823   4.788   0.911
 4572TIP3   OH213600   6.353   4.171   1.133
 4572TIP3    H113601   6.449   4.177   1.135
 4572TIP3    H213602   6.336   4.083   1.099
 4573TIP3   OH213603   6.246   4.748   1.602
 4573TIP3    H113604   6.181   4.695   1.556
 4573TIP3    H213605   6.290   4.686   1.660
 4574TIP3   OH213606   6.387   4.579   1.769
 4574TIP3    H113607   6.379   4.510   1.835
 4574TIP3    H213608   6.439   4.647   1.811
 4575TIP3   OH213609   8.115   5.027   1.583
 4575TIP3    H113610   8.151   5.030   1.671
 4575TIP3    H213611   8.191   5.022   1.525
 4576TIP3   OH213612   8.158   5.013   1.862
 4576TIP3    H113613   8.111   4.930   1.853
 4576TIP3    H213614   8.225   4.994   1.928
 4577TIP3   OH213615   8.194   4.713   2.430
 4577TIP3    H113616   8.122   4.721   2.492
 4577TIP3    H213617   8.236   4.800   2.431
 4578TIP3   OH213618   8.032   4.222   1.055
 4578TIP3    H113619   8.091   4.292   1.028
 4578TIP3    H213620   8.077   4.180   1.129
 4579TIP3   OH213621   8.161   4.085   1.253
 4579TIP3    H113622   8.094   4.048   1.309
 4579TIP3    H213623   8.225   4.123   1.313
 4580TIP3   OH213624   8.195   4.487   1.667
 4580TIP3    H113625   8.248   4.414   1.635
 4580TIP3    H213626   8.212   4.558   1.606
 4581TIP3   OH213627   8.011   4.777   1.862
 4581TIP3    H113628   7.945   4.822   1.914
 4581TIP3    H213629   7.962   4.736   1.791
 4582TIP3   OH213630   8.058   4.015   0.879
 4582TIP3    H113631   7.981   4.011   0.823
 4582TIP3    H213632   8.043   4.091   0.936
 4583TIP3   OH213633   7.895   3.684   0.850
 4583TIP3    H113634   7.830   3.713   0.786
 4583TIP3    H213635   7.885   3.589   0.853
 4584TIP3   OH213636   7.960   3.954   1.388
 4584TIP3    H113637   7.956   3.861   1.370
 4584TIP3    H213638   7.935   3.962   1.480
 4585TIP3   OH213639   6.569   4.016   2.151
 4585TIP3    H113640   6.559   3.981   2.063
 4585TIP3    H213641   6.663   4.008   2.169
 4586TIP3   OH213642   8.223   4.367   2.236
 4586TIP3    H113643   8.291   4.301   2.221
 4586TIP3    H213644   8.236   4.432   2.166
 4587TIP3   OH213645   8.403   4.161   2.232
 4587TIP3    H113646   8.329   4.118   2.275
 4587TIP3    H213647   8.477   4.104   2.251
 4588TIP3   OH213648   7.855   3.417   0.846
 4588TIP3    H113649   7.904   3.354   0.899
 4588TIP3    H213650   7.764   3.388   0.853
 4589TIP3   OH213651   7.941   3.688   1.274
 4589TIP3    H113652   7.989   3.606   1.286
 4589TIP3    H213653   7.980   3.728   1.196
 4590TIP3   OH213654   8.096   3.839   1.788
 4590TIP3    H113655   8.175   3.857   1.738
 4590TIP3    H213656   8.112   3.880   1.873
 4591TIP3   OH213657   8.167   3.988   2.016
 4591TIP3    H113658   8.094   4.018   2.071
 4591TIP3    H213659   8.198   4.068   1.972
 4592TIP3   OH213660   6.791   3.695   2.793
 4592TIP3    H113661   6.885   3.691   2.811
 4592TIP3    H213662   6.756   3.613   2.828
 4593TIP3   OH213663   8.630   3.596   2.549
 4593TIP3    H113664   8.686   3.529   2.510
 4593TIP3    H213665   8.591   3.642   2.475
 4594TIP3   OH213666   8.060   3.442   1.334
 4594TIP3    H113667   8.103   3.436   1.419
 4594TIP3    H213668   7.994   3.373   1.336
 4595TIP3   OH213669   6.767   3.408   2.143
 4595TIP3    H113670   6.819   3.328   2.148
 4595TIP3    H213671   6.830   3.477   2.122
 4596TIP3   OH213672   6.546   3.669   2.200
 4596TIP3    H113673   6.595   3.658   2.118
 4596TIP3    H213674   6.587   3.744   2.242
 4597TIP3   OH213675   8.475   3.696   2.348
 4597TIP3    H113676   8.389   3.734   2.361
 4597TIP3    H213677   8.459   3.616   2.297
 4598TIP3   OH213678   8.125   3.354   0.967
 4598TIP3    H113679   8.192   3.322   0.908
 4598TIP3    H213680   8.148   3.446   0.982
 4599TIP3   OH213681   6.534   3.189   1.708
 4599TIP3    H113682   6.448   3.173   1.747
 4599TIP3    H213683   6.515   3.239   1.629
 4600TIP3   OH213684   7.669   4.904   1.229
 4600TIP3    H113685   7.726   4.871   1.160
 4600TIP3    H213686   7.727   4.949   1.289
 4601TIP3   OH213687   6.761   3.237   2.530
 4601TIP3    H113688   6.708   3.228   2.609
 4601TIP3    H213689   6.704   3.285   2.469
 4602TIP3   OH213690   6.802   4.657   2.638
 4602TIP3    H113691   6.793   4.590   2.570
 4602TIP3    H213692   6.893   4.652   2.664
 4603TIP3   OH213693   7.001   4.740   2.139
 4603TIP3    H113694   6.953   4.817   2.106
 4603TIP3    H213695   7.085   4.743   2.094
 4604TIP3   OH213696   7.390   4.977   2.291
 4604TIP3    H113697   7.430   4.966   2.377
 4604TIP3    H213698   7.454   5.028   2.241
 4605TIP3   OH213699   7.582   5.127   2.161
 4605TIP3    H113700   7.640   5.071   2.109
 4605TIP3    H213701   7.641   5.181   2.213
 4606TIP3   OH213702   8.398   3.451   2.244
 4606TIP3    H113703   8.311   3.444   2.205
 4606TIP3    H213704   8.431   3.361   2.244
 4607TIP3   OH213705   6.662   4.984   2.204
 4607TIP3    H113706   6.571   5.002   2.180
 4607TIP3    H213707   6.686   5.055   2.263
 4608TIP3   OH213708   6.890   4.973   2.047
 4608TIP3    H113709   6.807   4.980   2.094
 4608TIP3    H213710   6.868   4.996   1.957
 4609TIP3   OH213711   7.304   4.989   1.841
 4609TIP3    H113712   7.234   5.000   1.776
 4609TIP3    H213713   7.314   5.076   1.879
 4610TIP3   OH213714   7.565   4.926   1.902
 4610TIP3    H113715   7.475   4.945   1.874
 4610TIP3    H213716   7.619   4.986   1.851
 4611TIP3   OH213717   7.768   5.090   1.801
 4611TIP3    H113718   7.758   5.177   1.764
 4611TIP3    H213719   7.800   5.036   1.729
 4612TIP3   OH213720   6.562   4.762   1.908
 4612TIP3    H113721   6.587   4.742   1.998
 4612TIP3    H213722   6.634   4.729   1.854
 4613TIP3   OH213723   6.773   4.649   1.781
 4613TIP3    H113724   6.786   4.564   1.823
 4613TIP3    H213725   6.860   4.688   1.779
 4614TIP3   OH213726   7.042   4.732   1.797
 4614TIP3    H113727   7.060   4.641   1.775
 4614TIP3    H213728   7.102   4.752   1.869
 4615TIP3   OH213729   7.595   3.384   1.886
 4615TIP3    H113730   7.561   3.309   1.936
 4615TIP3    H213731   7.663   3.346   1.830
 4616TIP3   OH213732   8.097   3.334   1.808
 4616TIP3    H113733   8.136   3.378   1.734
 4616TIP3    H213734   8.004   3.358   1.805
 4617TIP3   OH213735   8.205   3.403   1.568
 4617TIP3    H113736   8.275   3.343   1.541
 4617TIP3    H213737   8.240   3.490   1.552
 4618TIP3   OH213738   6.839   3.080   1.882
 4618TIP3    H113739   6.749   3.047   1.892
 4618TIP3    H213740   6.893   3.002   1.873
 4619TIP3   OH213741   6.665   2.994   1.542
 4619TIP3    H113742   6.689   3.041   1.462
 4619TIP3    H213743   6.628   3.061   1.599
 4620TIP3   OH213744   7.321   3.116   1.786
 4620TIP3    H113745   7.365   3.167   1.718
 4620TIP3    H213746   7.362   3.145   1.867
 4621TIP3   OH213747   7.813   3.277   1.758
 4621TIP3    H113748   7.861   3.238   1.685
 4621TIP3    H213749   7.809   3.208   1.824
 4622TIP3   OH213750   7.875   3.244   1.380
 4622TIP3    H113751   7.790   3.287   1.393
 4622TIP3    H213752   7.866   3.158   1.421
 4623TIP3   OH213753   6.340   4.542   1.303
 4623TIP3    H113754   6.257   4.503   1.276
 4623TIP3    H213755   6.333   4.634   1.276
 4624TIP3   OH213756   6.766   3.119   1.301
 4624TIP3    H113757   6.811   3.056   1.245
 4624TIP3    H213758   6.837   3.175   1.336
 4625TIP3   OH213759   7.251   3.317   1.403
 4625TIP3    H113760   7.311   3.268   1.459
 4625TIP3    H213761   7.267   3.408   1.424
 4626TIP3   OH213762   7.120   4.718   0.906
 4626TIP3    H113763   7.207   4.735   0.871
 4626TIP3    H213764   7.098   4.631   0.873
 4627TIP3   OH213765   7.821   4.826   0.999
 4627TIP3    H113766   7.829   4.731   0.994
 4627TIP3    H213767   7.748   4.846   0.939
 4628TIP3   OH213768   7.070   3.363   2.765
 4628TIP3    H113769   7.035   3.298   2.826
 4628TIP3    H213770   7.163   3.371   2.790
 4629TIP3   OH213771   7.317   3.368   2.889
 4629TIP3    H113772   7.395   3.345   2.837
 4629TIP3    H213773   7.311   3.298   2.955
 4630TIP3   OH213774   6.452   4.552   0.961
 4630TIP3    H113775   6.450   4.538   1.056
 4630TIP3    H213776   6.531   4.505   0.932
 4631TIP3   OH213777   8.140   3.456   2.679
 4631TIP3    H113778   8.158   3.426   2.768
 4631TIP3    H213779   8.225   3.451   2.634
 4632TIP3   OH213780   8.056   4.990   2.184
 4632TIP3    H113781   7.983   4.960   2.130
 4632TIP3    H213782   8.043   5.085   2.190
 4633TIP3   OH213783   8.623   4.219   1.697
 4633TIP3    H113784   8.661   4.170   1.769
 4633TIP3    H213785   8.697   4.246   1.643
 4634TIP3   OH213786   8.570   4.652   1.404
 4634TIP3    H113787   8.559   4.557   1.398
 4634TIP3    H213788   8.662   4.667   1.386
 4635TIP3   OH213789   8.302   3.864   1.163
 4635TIP3    H113790   8.268   3.948   1.193
 4635TIP3    H213791   8.226   3.820   1.124
 4636TIP3   OH213792   8.385   4.173   1.390
 4636TIP3    H113793   8.436   4.095   1.412
 4636TIP3    H213794   8.451   4.237   1.362
 4637TIP3   OH213795   9.162   5.126   1.016
 4637TIP3    H113796   9.236   5.065   1.009
 4637TIP3    H213797   9.149   5.136   1.110
 4638TIP3   OH213798   9.078   4.601   1.315
 4638TIP3    H113799   9.098   4.553   1.234
 4638TIP3    H213800   9.156   4.653   1.331
 4639TIP3   OH213801   8.856   3.738   1.357
 4639TIP3    H113802   8.864   3.808   1.292
 4639TIP3    H213803   8.805   3.670   1.312
 4640TIP3   OH213804   8.522   3.948   1.470
 4640TIP3    H113805   8.601   3.923   1.518
 4640TIP3    H213806   8.531   3.903   1.386
 4641TIP3   OH213807   8.927   4.159   1.278
 4641TIP3    H113808   9.016   4.154   1.245
 4641TIP3    H213809   8.887   4.076   1.252
 4642TIP3   OH213810   8.873   3.748   1.818
 4642TIP3    H113811   8.827   3.779   1.740
 4642TIP3    H213812   8.812   3.762   1.890
 4643TIP3   OH213813   8.968   4.512   1.557
 4643TIP3    H113814   8.905   4.576   1.593
 4643TIP3    H213815   9.000   4.553   1.477
 4644TIP3   OH213816   8.754   3.841   1.584
 4644TIP3    H113817   8.813   3.915   1.601
 4644TIP3    H213818   8.794   3.796   1.509
 4645TIP3   OH213819   8.793   4.700   1.660
 4645TIP3    H113820   8.787   4.791   1.633
 4645TIP3    H213821   8.713   4.684   1.709
 4646TIP3   OH213822   8.205   4.408   0.945
 4646TIP3    H113823   8.166   4.423   0.858
 4646TIP3    H213824   8.230   4.495   0.975
 4647TIP3   OH213825   8.723   4.292   1.139
 4647TIP3    H113826   8.683   4.235   1.073
 4647TIP3    H213827   8.791   4.238   1.179
 4648TIP3   OH213828   8.817   4.694   1.277
 4648TIP3    H113829   8.791   4.681   1.186
 4648TIP3    H213830   8.905   4.657   1.283
 4649TIP3   OH213831   8.831   4.277   1.512
 4649TIP3    H113832   8.868   4.240   1.432
 4649TIP3    H213833   8.880   4.358   1.526
 4650TIP3   OH213834   9.003   4.790   1.819
 4650TIP3    H113835   8.957   4.852   1.875
 4650TIP3    H213836   8.934   4.749   1.766
 4651TIP3   OH213837   8.750   4.392   1.949
 4651TIP3    H113838   8.740   4.482   1.979
 4651TIP3    H213839   8.662   4.355   1.957
 4652TIP3   OH213840   9.070   4.886   0.899
 4652TIP3    H113841   9.071   4.978   0.924
 4652TIP3    H213842   8.995   4.878   0.840
 4653TIP3   OH213843   8.795   4.961   1.908
 4653TIP3    H113844   8.773   4.965   1.815
 4653TIP3    H213845   8.711   4.954   1.953
 4654TIP3   OH213846   8.614   4.127   0.941
 4654TIP3    H113847   8.537   4.173   0.908
 4654TIP3    H213848   8.594   4.034   0.928
 4655TIP3   OH213849   8.390   4.531   1.865
 4655TIP3    H113850   8.321   4.508   1.803
 4655TIP3    H213851   8.427   4.447   1.892
 4656TIP3   OH213852   8.307   4.697   1.515
 4656TIP3    H113853   8.393   4.680   1.476
 4656TIP3    H213854   8.322   4.768   1.577
 4657TIP3   OH213855   9.180   4.959   1.686
 4657TIP3    H113856   9.194   5.049   1.715
 4657TIP3    H213857   9.120   4.922   1.751
 4658TIP3   OH213858   8.433   4.890   1.020
 4658TIP3    H113859   8.472   4.890   1.108
 4658TIP3    H213860   8.387   4.806   1.015
 4659TIP3   OH213861   8.567   4.733   1.822
 4659TIP3    H113862   8.618   4.724   1.903
 4659TIP3    H213863   8.501   4.665   1.828
 4660TIP3   OH213864   8.969   3.526   1.686
 4660TIP3    H113865   8.886   3.504   1.643
 4660TIP3    H213866   8.949   3.606   1.736
 4661TIP3   OH213867   8.909   4.051   1.656
 4661TIP3    H113868   8.870   4.058   1.743
 4661TIP3    H213869   8.888   4.134   1.613
 4662TIP3   OH213870   8.810   3.939   1.170
 4662TIP3    H113871   8.719   3.913   1.188
 4662TIP3    H213872   8.825   3.911   1.080
 4663TIP3   OH213873   8.757   4.059   1.889
 4663TIP3    H113874   8.809   4.108   1.952
 4663TIP3    H213875   8.733   3.979   1.934
 4664TIP3   OH213876   8.793   3.665   0.623
 4664TIP3    H113877   8.765   3.639   0.711
 4664TIP3    H213878   8.713   3.698   0.581
 4665TIP3   OH213879   8.329   3.625   1.482
 4665TIP3    H113880   8.408   3.650   1.530
 4665TIP3    H213881   8.361   3.601   1.395
 4666TIP3   OH213882   8.258   3.599   0.985
 4666TIP3    H113883   8.321   3.637   0.923
 4666TIP3    H213884   8.190   3.666   0.994
 4667TIP3   OH213885   8.565   3.828   1.227
 4667TIP3    H113886   8.474   3.832   1.195
 4667TIP3    H213887   8.590   3.736   1.216
 4668TIP3   OH213888   8.847   3.848   0.911
 4668TIP3    H113889   8.923   3.864   0.855
 4668TIP3    H213890   8.771   3.869   0.856
 4669TIP3   OH213891   8.637   3.900   0.744
 4669TIP3    H113892   8.557   3.851   0.724
 4669TIP3    H213893   8.681   3.911   0.660
 4670TIP3   OH213894   8.695   4.649   2.052
 4670TIP3    H113895   8.778   4.670   2.095
 4670TIP3    H213896   8.632   4.640   2.123
 4671TIP3   OH213897   8.684   3.580   1.206
 4671TIP3    H113898   8.663   3.499   1.252
 4671TIP3    H213899   8.706   3.552   1.117
 4672TIP3   OH213900   8.854   4.434   0.726
 4672TIP3    H113901   8.828   4.343   0.711
 4672TIP3    H213902   8.892   4.434   0.814
 4673TIP3   OH213903   9.298   4.712   1.705
 4673TIP3    H113904   9.217   4.666   1.727
 4673TIP3    H213905   9.269   4.802   1.686
 4674TIP3   OH213906   8.599   4.373   1.372
 4674TIP3    H113907   8.635   4.358   1.285
 4674TIP3    H213908   8.666   4.340   1.432
 4675TIP3   OH213909   8.486   4.305   2.001
 4675TIP3    H113910   8.497   4.275   2.091
 4675TIP3    H213911   8.412   4.254   1.968
 4676TIP3   OH213912   9.201   4.401   2.012
 4676TIP3    H113913   9.120   4.350   2.005
 4676TIP3    H213914   9.245   4.385   1.929
 4677TIP3   OH213915   8.722   4.681   1.013
 4677TIP3    H113916   8.722   4.764   0.966
 4677TIP3    H213917   8.648   4.632   0.976
 4678TIP3   OH213918   8.284   4.008   0.726
 4678TIP3    H113919   8.331   4.088   0.752
 4678TIP3    H213920   8.203   4.011   0.776
 4679TIP3   OH213921   8.896   4.464   1.006
 4679TIP3    H113922   8.850   4.548   0.999
 4679TIP3    H213923   8.835   4.406   1.051
 4680TIP3   OH213924   9.016   5.024   1.476
 4680TIP3    H113925   9.059   5.092   1.423
 4680TIP3    H213926   9.083   4.998   1.539
 4681TIP3   OH213927   8.665   4.919   0.873
 4681TIP3    H113928   8.579   4.919   0.916
 4681TIP3    H213929   8.697   5.008   0.884
 4682TIP3   OH213930   8.697   3.809   2.019
 4682TIP3    H113931   8.602   3.820   2.023
 4682TIP3    H213932   8.716   3.746   2.088
 4683TIP3   OH213933   8.426   4.925   1.673
 4683TIP3    H113934   8.480   4.865   1.725
 4683TIP3    H213935   8.438   5.010   1.715
 4684TIP3   OH213936   8.619   4.574   0.710
 4684TIP3    H113937   8.703   4.530   0.709
 4684TIP3    H213938   8.635   4.658   0.667
 4685TIP3   OH213939   8.393   4.244   0.827
 4685TIP3    H113940   8.330   4.286   0.886
 4685TIP3    H213941   8.404   4.307   0.755
 4686TIP3   OH213942   8.658   4.828   0.614
 4686TIP3    H113943   8.682   4.905   0.562
 4686TIP3    H213944   8.660   4.860   0.705
 4687TIP3   OH213945   8.784   3.579   0.936
 4687TIP3    H113946   8.815   3.669   0.943
 4687TIP3    H213947   8.864   3.526   0.931
 4688TIP3   OH213948   8.395   4.442   0.628
 4688TIP3    H113949   8.464   4.499   0.661
 4688TIP3    H213950   8.440   4.383   0.567
 4689TIP3   OH213951   8.367   3.754   0.777
 4689TIP3    H113952   8.343   3.846   0.768
 4689TIP3    H213953   8.295   3.707   0.734
 4690TIP3   OH213954   8.710   3.447   1.616
 4690TIP3    H113955   8.689   3.420   1.526
 4690TIP3    H213956   8.706   3.365   1.666
 4691TIP3   OH213957   8.258   4.673   1.026
 4691TIP3    H113958   8.215   4.708   1.104
 4691TIP3    H213959   8.207   4.707   0.953
 4692TIP3   OH213960   8.439   5.235   2.072
 4692TIP3    H113961   8.510   5.240   2.135
 4692TIP3    H213962   8.438   5.143   2.044
 4693TIP3   OH213963   8.849   5.179   2.075
 4693TIP3    H113964   8.943   5.193   2.082
 4693TIP3    H213965   8.840   5.100   2.021
 4694TIP3   OH213966   8.534   4.609   2.274
 4694TIP3    H113967   8.562   4.518   2.276
 4694TIP3    H213968   8.449   4.608   2.231
 4695TIP3   OH213969   8.547   4.246   0.509
 4695TIP3    H113970   8.612   4.229   0.577
 4695TIP3    H213971   8.596   4.236   0.427
 4696TIP3   OH213972   9.109   4.666   2.040
 4696TIP3    H113973   9.091   4.692   1.950
 4696TIP3    H213974   9.162   4.586   2.032
 4697TIP3   OH213975   8.682   4.358   2.267
 4697TIP3    H113976   8.756   4.305   2.237
 4697TIP3    H213977   8.709   4.391   2.353
 4698TIP3   OH213978   8.749   4.179   0.690
 4698TIP3    H113979   8.712   4.147   0.773
 4698TIP3    H213980   8.791   4.103   0.651
 4699TIP3   OH213981   8.980   4.248   1.938
 4699TIP3    H113982   8.900   4.301   1.944
 4699TIP3    H213983   9.018   4.272   1.854
 4700TIP3   OH213984   8.852   3.955   0.555
 4700TIP3    H113985   8.839   3.938   0.461
 4700TIP3    H213986   8.927   3.901   0.578
 4701TIP3   OH213987   9.103   4.050   2.089
 4701TIP3    H113988   9.116   3.972   2.035
 4701TIP3    H213989   9.072   4.117   2.027
 4702TIP3   OH213990   9.115   3.852   1.898
 4702TIP3    H113991   9.174   3.829   1.826
 4702TIP3    H213992   9.031   3.814   1.874
 4703TIP3   OH213993   9.117   4.349   1.722
 4703TIP3    H113994   9.169   4.303   1.657
 4703TIP3    H213995   9.065   4.412   1.671
 4704TIP3   OH213996   8.896   4.148   2.252
 4704TIP3    H113997   8.869   4.062   2.282
 4704TIP3    H213998   8.968   4.131   2.191
 4705TIP3   OH213999   8.829   3.892   2.334
 4705TIP3    H114000   8.836   3.807   2.291
 4705TIP3    H214001   8.857   3.877   2.424
 4706TIP3   OH214002   8.127   4.403   0.674
 4706TIP3    H114003   8.217   4.425   0.648
 4706TIP3    H214004   8.109   4.321   0.627
 4707TIP3   OH214005   8.030   4.971   1.098
 4707TIP3    H114006   7.966   4.917   1.053
 4707TIP3    H214007   8.075   4.910   1.157
 4708TIP3   OH214008   8.182   4.815   1.269
 4708TIP3    H114009   8.176   4.743   1.332
 4708TIP3    H214010   8.234   4.882   1.313
 4709TIP3   OH214011   8.363   4.270   1.643
 4709TIP3    H114012   8.354   4.237   1.554
 4709TIP3    H214013   8.456   4.262   1.663
 4710TIP3   OH214014   8.566   3.947   2.278
 4710TIP3    H114015   8.661   3.944   2.292
 4710TIP3    H214016   8.534   3.865   2.316
 4711TIP3   OH214017   8.548   3.665   1.650
 4711TIP3    H114018   8.600   3.585   1.646
 4711TIP3    H214019   8.611   3.735   1.634
 4712TIP3   OH214020   8.337   3.932   1.687
 4712TIP3    H114021   8.383   3.915   1.605
 4712TIP3    H214022   8.375   4.012   1.721
 4713TIP3   OH214023   8.319   3.487   1.227
 4713TIP3    H114024   8.231   3.469   1.261
 4713TIP3    H214025   8.304   3.537   1.147
 4714TIP3   OH214026   8.557   3.481   2.007
 4714TIP3    H114027   8.511   3.480   2.091
 4714TIP3    H214028   8.504   3.537   1.951
 4715TIP3   OH214029   8.572   4.963   2.071
 4715TIP3    H114030   8.481   4.936   2.079
 4715TIP3    H214031   8.609   4.952   2.159
 4716TIP3   OH214032   8.793   4.970   1.628
 4716TIP3    H114033   8.736   5.044   1.607
 4716TIP3    H214034   8.874   4.989   1.582
 4717TIP3   OH214035   9.252   5.225   1.707
 4717TIP3    H114036   9.297   5.244   1.789
 4717TIP3    H214037   9.322   5.212   1.643
 4718TIP3   OH214038   8.437   5.222   1.724
 4718TIP3    H114039   8.352   5.252   1.694
 4718TIP3    H214040   8.469   5.291   1.782
 4719TIP3   OH214041   8.660   5.196   1.567
 4719TIP3    H114042   8.582   5.208   1.622
 4719TIP3    H214043   8.628   5.206   1.478
 4720TIP3   OH214044   9.112   5.202   1.281
 4720TIP3    H114045   9.022   5.206   1.250
 4720TIP3    H214046   9.143   5.292   1.277
 4721TIP3   OH214047   9.359   5.196   1.425
 4721TIP3    H114048   9.277   5.183   1.378
 4721TIP3    H214049   9.398   5.274   1.384
 4722TIP3   OH214050   8.346   4.994   1.422
 4722TIP3    H114051   8.379   4.973   1.510
 4722TIP3    H214052   8.418   4.971   1.363
 4723TIP3   OH214053   8.545   4.896   1.269
 4723TIP3    H114054   8.555   4.810   1.311
 4723TIP3    H214055   8.631   4.937   1.279
 4724TIP3   OH214056   8.812   4.965   1.303
 4724TIP3    H114057   8.819   4.870   1.291
 4724TIP3    H214058   8.878   4.986   1.369
 4725TIP3   OH214059   8.632   3.358   1.363
 4725TIP3    H114060   8.548   3.323   1.393
 4725TIP3    H214061   8.690   3.281   1.360
 4726TIP3   OH214062   8.448   3.294   1.076
 4726TIP3    H114063   8.403   3.316   0.994
 4726TIP3    H214064   8.418   3.361   1.138
 4727TIP3   OH214065   8.125   4.780   0.817
 4727TIP3    H114066   8.041   4.766   0.774
 4727TIP3    H214067   8.145   4.872   0.800
 4728TIP3   OH214068   8.636   3.444   0.752
 4728TIP3    H114069   8.634   3.356   0.789
 4728TIP3    H214070   8.672   3.499   0.822
 4729TIP3   OH214071   8.831   3.614   2.248
 4729TIP3    H114072   8.789   3.542   2.295
 4729TIP3    H214073   8.919   3.619   2.286
 4730TIP3   OH214074   9.063   3.619   2.400
 4730TIP3    H114075   9.152   3.612   2.365
 4730TIP3    H214076   9.059   3.552   2.468
 4731TIP3   OH214077   8.203   4.842   0.533
 4731TIP3    H114078   8.216   4.780   0.605
 4731TIP3    H214079   8.263   4.812   0.464
 4732TIP3   OH214080   0.069   4.928   3.152
 4732TIP3    H114081   0.044   5.020   3.164
 4732TIP3    H214082  -0.005   4.889   3.106
 4733TIP3   OH214083   0.058   4.908   3.528
 4733TIP3    H114084   0.065   4.873   3.617
 4733TIP3    H214085  -0.006   4.851   3.485
 4734TIP3   OH214086   0.248   5.203   3.208
 4734TIP3    H114087   0.259   5.131   3.271
 4734TIP3    H214088   0.277   5.281   3.255
 4735TIP3   OH214089   9.704   5.559   3.324
 4735TIP3    H114090   9.768   5.613   3.278
 4735TIP3    H214091   9.757   5.502   3.381
 4736TIP3   OH214092   9.589   5.023   3.585
 4736TIP3    H114093   9.643   4.943   3.583
 4736TIP3    H214094   9.621   5.074   3.511
 4737TIP3   OH214095   0.832   4.443   3.565
 4737TIP3    H114096   0.849   4.528   3.606
 4737TIP3    H214097   0.862   4.454   3.474
 4738TIP3   OH214098   0.201   4.610   3.598
 4738TIP3    H114099   0.237   4.523   3.617
 4738TIP3    H214100   0.179   4.606   3.505
 4739TIP3   OH214101   9.391   4.355   3.518
 4739TIP3    H114102   9.328   4.423   3.540
 4739TIP3    H214103   9.354   4.275   3.556
 4740TIP3   OH214104   0.268   4.378   3.181
 4740TIP3    H114105   0.333   4.368   3.251
 4740TIP3    H214106   0.319   4.405   3.105
 4741TIP3   OH214107   9.334   4.730   3.547
 4741TIP3    H114108   9.340   4.806   3.489
 4741TIP3    H214109   9.277   4.669   3.500
 4742TIP3   OH214110   0.892   4.662   3.730
 4742TIP3    H114111   0.805   4.701   3.723
 4742TIP3    H214112   0.927   4.696   3.812
 4743TIP3   OH214113   9.693   5.101   2.973
 4743TIP3    H114114   9.663   5.072   2.887
 4743TIP3    H214115   9.729   5.189   2.958
 4744TIP3   OH214116   0.427   4.389   3.401
 4744TIP3    H114117   0.381   4.367   3.482
 4744TIP3    H214118   0.482   4.464   3.424
 4745TIP3   OH214119   0.309   5.436   3.359
 4745TIP3    H114120   0.224   5.434   3.403
 4745TIP3    H214121   0.315   5.524   3.323
 4746TIP3   OH214122   0.632   4.331   3.729
 4746TIP3    H114123   0.547   4.356   3.692
 4746TIP3    H214124   0.696   4.359   3.663
 4747TIP3   OH214125   9.741   3.949   3.728
 4747TIP3    H114126   9.713   3.862   3.757
 4747TIP3    H214127   9.660   3.999   3.720
 4748TIP3   OH214128   0.054   5.468   2.998
 4748TIP3    H114129   0.093   5.382   2.983
 4748TIP3    H214130   0.112   5.529   2.951
 4749TIP3   OH214131   0.173   5.236   2.945
 4749TIP3    H114132   0.184   5.158   2.891
 4749TIP3    H214133   0.208   5.211   3.030
 4750TIP3   OH214134   0.562   5.328   3.703
 4750TIP3    H114135   0.543   5.263   3.635
 4750TIP3    H214136   0.540   5.412   3.663
 4751TIP3   OH214137   9.702   4.790   2.983
 4751TIP3    H114138   9.617   4.831   2.971
 4751TIP3    H214139   9.734   4.774   2.895
 4752TIP3   OH214140   9.646   4.529   2.694
 4752TIP3    H114141   9.713   4.584   2.734
 4752TIP3    H214142   9.695   4.472   2.635
 4753TIP3   OH214143   0.715   5.003   3.565
 4753TIP3    H114144   0.630   5.047   3.564
 4753TIP3    H214145   0.751   5.019   3.478
 4754TIP3   OH214146   0.214   4.841   2.937
 4754TIP3    H114147   0.168   4.872   3.015
 4754TIP3    H214148   0.297   4.805   2.971
 4755TIP3   OH214149   0.446   4.873   3.886
 4755TIP3    H114150   0.437   4.953   3.938
 4755TIP3    H214151   0.364   4.868   3.835
 4756TIP3   OH214152   9.420   4.879   3.765
 4756TIP3    H114153   9.344   4.853   3.713
 4756TIP3    H214154   9.463   4.947   3.713
 4757TIP3   OH214155   0.077   5.433   3.502
 4757TIP3    H114156   0.055   5.506   3.560
 4757TIP3    H214157   0.077   5.356   3.560
 4758TIP3   OH214158   0.053   4.699   2.768
 4758TIP3    H114159   0.115   4.754   2.817
 4758TIP3    H214160   0.072   4.717   2.676
 4759TIP3   OH214161   9.594   5.381   3.071
 4759TIP3    H114162   9.684   5.415   3.073
 4759TIP3    H214163   9.552   5.420   3.147
 4760TIP3   OH214164   0.351   5.299   2.378
 4760TIP3    H114165   0.350   5.391   2.351
 4760TIP3    H214166   0.441   5.271   2.361
 4761TIP3   OH214167   0.781   5.729   3.765
 4761TIP3    H114168   0.790   5.634   3.771
 4761TIP3    H214169   0.698   5.748   3.810
 4762TIP3   OH214170   9.618   5.427   3.843
 4762TIP3    H114171   9.579   5.484   3.910
 4762TIP3    H214172   9.605   5.474   3.761
 4763TIP3   OH214173   9.490   5.652   2.866
 4763TIP3    H114174   9.479   5.600   2.787
 4763TIP3    H214175   9.401   5.676   2.892
 4764TIP3   OH214176   9.698   5.541   2.485
 4764TIP3    H114177   9.767   5.485   2.451
 4764TIP3    H214178   9.725   5.560   2.575
 4765TIP3   OH214179   9.745   5.619   2.755
 4765TIP3    H114180   9.670   5.633   2.813
 4765TIP3    H214181   9.821   5.638   2.810
 4766TIP3   OH214182   0.664   4.825   4.055
 4766TIP3    H114183   0.586   4.833   4.001
 4766TIP3    H214184   0.685   4.731   4.054
 4767TIP3   OH214185   9.433   4.052   3.855
 4767TIP3    H114186   9.384   4.059   3.773
 4767TIP3    H214187   9.513   4.102   3.840
 4768TIP3   OH214188   0.198   4.183   4.074
 4768TIP3    H114189   0.275   4.158   4.124
 4768TIP3    H214190   0.124   4.146   4.123
 4769TIP3   OH214191   0.425   4.602   3.965
 4769TIP3    H114192   0.384   4.592   4.050
 4769TIP3    H214193   0.407   4.692   3.939
 4770TIP3   OH214194   0.110   4.733   2.510
 4770TIP3    H114195   0.062   4.711   2.430
 4770TIP3    H214196   0.194   4.768   2.479
 4771TIP3   OH214197   9.643   4.134   2.759
 4771TIP3    H114198   9.623   4.115   2.851
 4771TIP3    H214199   9.567   4.101   2.711
 4772TIP3   OH214200   9.263   4.656   3.911
 4772TIP3    H114201   9.324   4.616   3.973
 4772TIP3    H214202   9.312   4.726   3.870
 4773TIP3   OH214203   9.201   4.547   3.384
 4773TIP3    H114204   9.124   4.596   3.412
 4773TIP3    H214205   9.194   4.543   3.289
 4774TIP3   OH214206   9.784   4.561   3.102
 4774TIP3    H114207   9.759   4.647   3.067
 4774TIP3    H214208   9.844   4.525   3.035
 4775TIP3   OH214209   0.220   4.830   4.203
 4775TIP3    H114210   0.184   4.742   4.215
 4775TIP3    H214211   0.312   4.822   4.229
 4776TIP3   OH214212   0.130   4.563   3.338
 4776TIP3    H114213   0.066   4.591   3.272
 4776TIP3    H214214   0.177   4.490   3.296
 4777TIP3   OH214215   9.378   4.030   2.790
 4777TIP3    H114216   9.433   3.992   2.858
 4777TIP3    H214217   9.339   4.107   2.831
 4778TIP3   OH214218   0.207   4.818   3.770
 4778TIP3    H114219   0.213   4.752   3.701
 4778TIP3    H214220   0.165   4.773   3.843
 4779TIP3   OH214221   9.618   4.274   3.373
 4779TIP3    H114222   9.527   4.288   3.401
 4779TIP3    H214223   9.668   4.338   3.421
 4780TIP3   OH214224   9.237   4.468   3.130
 4780TIP3    H114225   9.271   4.384   3.161
 4780TIP3    H214226   9.179   4.445   3.058
 4781TIP3   OH214227   0.282   4.347   3.633
 4781TIP3    H114228   0.278   4.357   3.728
 4781TIP3    H214229   0.212   4.285   3.612
 4782TIP3   OH214230   9.070   4.429   2.913
 4782TIP3    H114231   9.019   4.362   2.959
 4782TIP3    H214232   9.078   4.396   2.824
 4783TIP3   OH214233   0.505   6.048   3.865
 4783TIP3    H114234   0.497   6.075   3.773
 4783TIP3    H214235   0.581   6.097   3.898
 4784TIP3   OH214236   9.725   4.477   3.520
 4784TIP3    H114237   9.798   4.517   3.473
 4784TIP3    H214238   9.760   4.462   3.608
 4785TIP3   OH214239   9.214   4.004   3.388
 4785TIP3    H114240   9.142   3.942   3.401
 4785TIP3    H214241   9.237   3.994   3.295
 4786TIP3   OH214242   9.735   4.454   3.794
 4786TIP3    H114243   9.649   4.494   3.782
 4786TIP3    H214244   9.759   4.476   3.884
 4787TIP3   OH214245   9.444   4.871   2.952
 4787TIP3    H114246   9.432   4.781   2.981
 4787TIP3    H214247   9.369   4.918   2.989
 4788TIP3   OH214248   0.488   5.146   3.517
 4788TIP3    H114249   0.522   5.198   3.444
 4788TIP3    H214250   0.411   5.101   3.480
 4789TIP3   OH214251   0.092   4.204   2.835
 4789TIP3    H114252   0.004   4.191   2.801
 4789TIP3    H214253   0.103   4.299   2.840
 4790TIP3   OH214254   0.033   5.270   3.977
 4790TIP3    H114255   0.032   5.175   3.975
 4790TIP3    H214256  -0.047   5.296   3.930
 4791TIP3   OH214257   0.142   4.469   2.891
 4791TIP3    H114258   0.237   4.469   2.901
 4791TIP3    H214259   0.124   4.544   2.834
 4792TIP3   OH214260   9.551   5.019   2.749
 4792TIP3    H114261   9.492   5.094   2.742
 4792TIP3    H214262   9.506   4.959   2.808
 4793TIP3   OH214263  -0.009   4.965   4.263
 4793TIP3    H114264  -0.062   4.898   4.219
 4793TIP3    H214265   0.081   4.944   4.238
 4794TIP3   OH214266   0.200   5.447   3.846
 4794TIP3    H114267   0.141   5.388   3.892
 4794TIP3    H214268   0.242   5.499   3.915
 4795TIP3   OH214269   0.528   4.554   2.712
 4795TIP3    H114270   0.469   4.508   2.652
 4795TIP3    H214271   0.534   4.643   2.676
 4796TIP3   OH214272   0.797   5.455   3.786
 4796TIP3    H114273   0.707   5.427   3.801
 4796TIP3    H214274   0.822   5.413   3.703
 4797TIP3   OH214275   0.254   5.368   2.637
 4797TIP3    H114276   0.228   5.298   2.698
 4797TIP3    H214277   0.276   5.323   2.556
 4798TIP3   OH214278   0.281   5.004   3.402
 4798TIP3    H114279   0.201   4.979   3.448
 4798TIP3    H214280   0.311   4.924   3.360
 4799TIP3   OH214281   9.265   5.024   3.121
 4799TIP3    H114282   9.350   5.039   3.162
 4799TIP3    H214283   9.239   4.937   3.151
 4800TIP3   OH214284   0.079   5.204   3.653
 4800TIP3    H114285   0.013   5.155   3.703
 4800TIP3    H214286   0.162   5.160   3.674
 4801TIP3   OH214287   0.059   5.112   2.524
 4801TIP3    H114288   0.098   5.084   2.608
 4801TIP3    H214289  -0.025   5.067   2.521
 4802TIP3   OH214290   0.299   5.733   3.675
 4802TIP3    H114291   0.213   5.696   3.652
 4802TIP3    H214292   0.313   5.803   3.611
 4803TIP3   OH214293   0.367   5.566   2.315
 4803TIP3    H114294   0.406   5.626   2.252
 4803TIP3    H214295   0.293   5.614   2.352
 4804TIP3   OH214296   0.208   5.039   2.749
 4804TIP3    H114297   0.198   4.965   2.809
 4804TIP3    H214298   0.302   5.039   2.727
 4805TIP3   OH214299   9.229   5.070   2.510
 4805TIP3    H114300   9.286   5.005   2.469
 4805TIP3    H214301   9.208   5.033   2.596
 4806TIP3   OH214302   0.261   4.387   3.899
 4806TIP3    H114303   0.332   4.437   3.938
 4806TIP3    H214304   0.238   4.321   3.965
 4807TIP3   OH214305   0.124   4.155   3.102
 4807TIP3    H114306   0.109   4.168   3.009
 4807TIP3    H214307   0.167   4.235   3.132
 4808TIP3   OH214308   9.363   5.215   2.761
 4808TIP3    H114309   9.349   5.243   2.851
 4808TIP3    H214310   9.318   5.281   2.708
 4809TIP3   OH214311   9.608   4.353   3.108
 4809TIP3    H114312   9.677   4.419   3.102
 4809TIP3    H214313   9.602   4.331   3.200
 4810TIP3   OH214314   0.121   4.632   3.951
 4810TIP3    H114315   0.063   4.586   4.012
 4810TIP3    H214316   0.176   4.564   3.913
 4811TIP3   OH214317   9.728   4.044   3.256
 4811TIP3    H114318   9.690   4.119   3.303
 4811TIP3    H214319   9.801   4.081   3.208
 4812TIP3   OH214320   9.306   3.952   3.137
 4812TIP3    H114321   9.237   3.970   3.073
 4812TIP3    H214322   9.368   3.895   3.090
 4813TIP3   OH214323   0.690   4.553   3.952
 4813TIP3    H114324   0.595   4.561   3.960
 4813TIP3    H214325   0.702   4.506   3.869
 4814TIP3   OH214326   0.355   4.742   3.325
 4814TIP3    H114327   0.274   4.692   3.337
 4814TIP3    H214328   0.417   4.701   3.386
 4815TIP3   OH214329   0.350   5.700   3.295
 4815TIP3    H114330   0.286   5.724   3.227
 4815TIP3    H214331   0.434   5.730   3.260
 4816TIP3   OH214332   9.323   5.320   2.498
 4816TIP3    H114333   9.278   5.237   2.509
 4816TIP3    H214334   9.414   5.301   2.517
 4817TIP3   OH214335   0.280   5.597   4.059
 4817TIP3    H114336   0.276   5.549   4.142
 4817TIP3    H214337   0.337   5.671   4.077
 4818TIP3   OH214338   0.038   5.339   2.369
 4818TIP3    H114339   0.058   5.268   2.430
 4818TIP3    H214340   0.089   5.319   2.290
 4819TIP3   OH214341   9.528   5.385   4.143
 4819TIP3    H114342   9.434   5.405   4.137
 4819TIP3    H214343   9.530   5.291   4.163
 4820TIP3   OH214344   9.613   4.987   2.486
 4820TIP3    H114345   9.596   5.006   2.578
 4820TIP3    H214346   9.541   4.930   2.460
 4821TIP3   OH214347   0.336   5.214   3.814
 4821TIP3    H114348   0.418   5.243   3.776
 4821TIP3    H214349   0.280   5.292   3.813
 4822TIP3   OH214350   9.216   4.662   2.877
 4822TIP3    H114351   9.167   4.584   2.904
 4822TIP3    H214352   9.299   4.627   2.844
 4823TIP3   OH214353   9.453   4.861   4.037
 4823TIP3    H114354   9.419   4.944   4.070
 4823TIP3    H214355   9.445   4.869   3.942
 4824TIP3   OH214356   9.387   4.459   2.760
 4824TIP3    H114357   9.358   4.490   2.674
 4824TIP3    H214358   9.482   4.473   2.759
 4825TIP3   OH214359   0.263   5.145   4.245
 4825TIP3    H114360   0.315   5.108   4.173
 4825TIP3    H214361   0.267   5.078   4.313
 4826TIP3   OH214362   0.335   4.824   2.380
 4826TIP3    H114363   0.319   4.775   2.299
 4826TIP3    H214364   0.309   4.913   2.359
 4827TIP3   OH214365   9.564   4.529   4.330
 4827TIP3    H114366   9.492   4.476   4.364
 4827TIP3    H214367   9.525   4.579   4.258
 4828TIP3   OH214368   9.651   4.223   3.949
 4828TIP3    H114369   9.699   4.281   3.890
 4828TIP3    H214370   9.564   4.263   3.957
 4829TIP3   OH214371   9.766   4.998   3.947
 4829TIP3    H114372   9.772   4.923   3.887
 4829TIP3    H214373   9.694   5.051   3.912
 4830TIP3   OH214374   0.473   4.816   4.311
 4830TIP3    H114375   0.512   4.729   4.318
 4830TIP3    H214376   0.545   4.871   4.277
 4831TIP3   OH214377   0.451   5.108   4.035
 4831TIP3    H114378   0.393   5.148   3.971
 4831TIP3    H214379   0.539   5.126   4.003
 4832TIP3   OH214380   9.747   4.042   4.121
 4832TIP3    H114381   9.725   4.106   4.053
 4832TIP3    H214382   9.690   3.967   4.102
 4833TIP3   OH214383   0.072   4.599   4.299
 4833TIP3    H114384   0.033   4.642   4.375
 4833TIP3    H214385   0.003   4.603   4.232
 4834TIP3   OH214386   0.324   4.536   4.205
 4834TIP3    H114387   0.243   4.541   4.255
 4834TIP3    H214388   0.392   4.523   4.270
 4835TIP3   OH214389   0.551   4.519   4.366
 4835TIP3    H114390   0.560   4.424   4.369
 4835TIP3    H214391   0.544   4.546   4.458
 4836TIP3   OH214392   0.018   4.065   4.388
 4836TIP3    H114393   0.088   4.000   4.376
 4836TIP3    H214394  -0.020   4.075   4.301
 4837TIP3   OH214395   0.128   4.287   4.510
 4837TIP3    H114396   0.096   4.212   4.461
 4837TIP3    H214397   0.049   4.339   4.528
 4838TIP3   OH214398   0.604   5.788   3.263
 4838TIP3    H114399   0.613   5.813   3.355
 4838TIP3    H214400   0.649   5.856   3.215
 4839TIP3   OH214401   0.604   5.806   3.544
 4839TIP3    H114402   0.563   5.720   3.542
 4839TIP3    H214403   0.676   5.796   3.606
 4840TIP3   OH214404   0.667   5.505   4.092
 4840TIP3    H114405   0.596   5.509   4.156
 4840TIP3    H214406   0.715   5.587   4.103
 4841TIP3   OH214407   0.481   5.024   2.726
 4841TIP3    H114408   0.540   5.093   2.694
 4841TIP3    H214409   0.528   4.984   2.799
 4842TIP3   OH214410   0.612   4.882   2.924
 4842TIP3    H114411   0.551   4.835   2.980
 4842TIP3    H214412   0.679   4.916   2.984
 4843TIP3   OH214413   0.664   5.289   3.359
 4843TIP3    H114414   0.715   5.222   3.314
 4843TIP3    H214415   0.665   5.364   3.300
 4844TIP3   OH214416   0.478   5.552   3.562
 4844TIP3    H114417   0.407   5.600   3.605
 4844TIP3    H214418   0.436   5.511   3.486
 4845TIP3   OH214419   0.522   4.795   2.577
 4845TIP3    H114420   0.458   4.796   2.506
 4845TIP3    H214421   0.504   4.874   2.628
 4846TIP3   OH214422   0.363   4.450   2.525
 4846TIP3    H114423   0.325   4.488   2.446
 4846TIP3    H214424   0.357   4.356   2.512
 4847TIP3   OH214425   0.431   4.725   3.061
 4847TIP3    H114426   0.433   4.631   3.046
 4847TIP3    H214427   0.410   4.734   3.154
 4848TIP3   OH214428   0.693   5.158   3.916
 4848TIP3    H114429   0.759   5.092   3.895
 4848TIP3    H214430   0.679   5.205   3.833
 4849TIP3   OH214431   0.867   4.942   3.913
 4849TIP3    H114432   0.795   4.906   3.965
 4849TIP3    H214433   0.942   4.886   3.934
 4850TIP3   OH214434   0.332   4.180   2.471
 4850TIP3    H114435   0.404   4.164   2.532
 4850TIP3    H214436   0.257   4.135   2.510
 4851TIP3   OH214437   0.418   4.458   2.952
 4851TIP3    H114438   0.462   4.373   2.964
 4851TIP3    H214439   0.458   4.494   2.873
 4852TIP3   OH214440   0.556   4.623   3.481
 4852TIP3    H114441   0.635   4.641   3.431
 4852TIP3    H214442   0.571   4.664   3.566
 4853TIP3   OH214443   0.638   4.775   3.702
 4853TIP3    H114444   0.572   4.806   3.764
 4853TIP3    H214445   0.666   4.855   3.656
 4854TIP3   OH214446   1.092   4.371   4.241
 4854TIP3    H114447   1.158   4.317   4.198
 4854TIP3    H214448   1.053   4.422   4.171
 4855TIP3   OH214449   0.531   4.211   3.006
 4855TIP3    H114450   0.570   4.196   3.093
 4855TIP3    H214451   0.470   4.138   2.995
 4856TIP3   OH214452   0.943   4.483   4.043
 4856TIP3    H114453   0.858   4.525   4.057
 4856TIP3    H214454   0.923   4.406   3.989
 4857TIP3   OH214455   0.554   4.144   2.624
 4857TIP3    H114456   0.597   4.064   2.594
 4857TIP3    H214457   0.625   4.205   2.640
 4858TIP3   OH214458   0.190   5.674   2.877
 4858TIP3    H114459   0.244   5.656   2.801
 4858TIP3    H214460   0.210   5.765   2.900
 4859TIP3   OH214461   9.571   5.673   3.960
 4859TIP3    H114462   9.540   5.721   4.037
 4859TIP3    H214463   9.579   5.740   3.892
 4860TIP3   OH214464   0.104   5.937   3.771
 4860TIP3    H114465   0.135   5.851   3.743
 4860TIP3    H214466   0.156   5.958   3.849
 4861TIP3   OH214467   0.852   4.238   3.937
 4861TIP3    H114468   0.765   4.232   3.897
 4861TIP3    H214469   0.888   4.150   3.929
 4862TIP3   OH214470   9.571   5.811   3.491
 4862TIP3    H114471   9.484   5.818   3.451
 4862TIP3    H214472   9.560   5.847   3.579
 4863TIP3   OH214473   0.061   5.744   3.528
 4863TIP3    H114474  -0.026   5.766   3.494
 4863TIP3    H214475   0.120   5.807   3.486
 4864TIP3   OH214476   0.285   5.906   3.463
 4864TIP3    H114477   0.297   5.993   3.424
 4864TIP3    H214478   0.314   5.845   3.395
 4865TIP3   OH214479   0.071   4.163   3.590
 4865TIP3    H114480   0.047   4.084   3.639
 4865TIP3    H214481   0.130   4.132   3.522
 4866TIP3   OH214482   0.545   4.065   3.448
 4866TIP3    H114483   0.587   4.118   3.380
 4866TIP3    H214484   0.454   4.094   3.448
 4867TIP3   OH214485   0.685   4.159   3.232
 4867TIP3    H114486   0.757   4.102   3.204
 4867TIP3    H214487   0.718   4.248   3.221
 4868TIP3   OH214488   9.745   3.845   3.465
 4868TIP3    H114489   9.724   3.927   3.420
 4868TIP3    H214490   9.763   3.870   3.555
 4869TIP3   OH214491   0.260   4.053   3.426
 4869TIP3    H114492   0.257   4.022   3.336
 4869TIP3    H214493   0.267   3.974   3.479
 4870TIP3   OH214494   0.353   4.006   3.041
 4870TIP3    H114495   0.267   4.046   3.054
 4870TIP3    H214496   0.339   3.913   3.059
 4871TIP3   OH214497   9.575   4.094   3.020
 4871TIP3    H114498   9.621   4.056   3.095
 4871TIP3    H214499   9.574   4.188   3.039
 4872TIP3   OH214500   9.415   5.539   2.638
 4872TIP3    H114501   9.459   5.566   2.558
 4872TIP3    H214502   9.356   5.469   2.611
 4873TIP3   OH214503   0.319   5.631   2.642
 4873TIP3    H114504   0.301   5.537   2.638
 4873TIP3    H214505   0.281   5.666   2.561
 4874TIP3   OH214506   9.610   4.167   4.543
 4874TIP3    H114507   9.691   4.145   4.497
 4874TIP3    H214508   9.554   4.090   4.529
 4875TIP3   OH214509   0.602   4.248   4.367
 4875TIP3    H114510   0.619   4.217   4.456
 4875TIP3    H214511   0.687   4.242   4.323
 4876TIP3   OH214512   0.524   5.774   3.857
 4876TIP3    H114513   0.446   5.743   3.810
 4876TIP3    H214514   0.513   5.868   3.863
 4877TIP3   OH214515   1.784   5.170   2.612
 4877TIP3    H114516   1.747   5.256   2.592
 4877TIP3    H214517   1.718   5.107   2.583
 4878TIP3   OH214518   1.796   5.157   3.029
 4878TIP3    H114519   1.848   5.130   3.104
 4878TIP3    H214520   1.748   5.079   3.002
 4879TIP3   OH214521   1.084   5.016   3.377
 4879TIP3    H114522   1.121   4.965   3.448
 4879TIP3    H214523   1.159   5.040   3.322
 4880TIP3   OH214524   2.043   5.459   2.703
 4880TIP3    H114525   2.041   5.389   2.768
 4880TIP3    H214526   2.066   5.538   2.753
 4881TIP3   OH214527   1.083   5.450   3.066
 4881TIP3    H114528   1.064   5.357   3.072
 4881TIP3    H214529   1.178   5.454   3.055
 4882TIP3   OH214530   0.759   4.649   2.853
 4882TIP3    H114531   0.720   4.735   2.871
 4882TIP3    H214532   0.692   4.601   2.805
 4883TIP3   OH214533   0.838   4.958   3.069
 4883TIP3    H114534   0.888   4.881   3.095
 4883TIP3    H214535   0.905   5.020   3.037
 4884TIP3   OH214536   1.677   5.872   2.698
 4884TIP3    H114537   1.729   5.822   2.635
 4884TIP3    H214538   1.593   5.826   2.702
 4885TIP3   OH214539   1.598   5.382   3.027
 4885TIP3    H114540   1.628   5.305   2.979
 4885TIP3    H214541   1.672   5.406   3.083
 4886TIP3   OH214542   2.626   4.698   3.051
 4886TIP3    H114543   2.642   4.783   3.090
 4886TIP3    H214544   2.650   4.709   2.959
 4887TIP3   OH214545   1.998   4.869   3.072
 4887TIP3    H114546   2.031   4.784   3.099
 4887TIP3    H214547   1.962   4.854   2.984
 4888TIP3   OH214548   1.359   4.532   3.029
 4888TIP3    H114549   1.338   4.606   2.972
 4888TIP3    H214550   1.307   4.459   2.995
 4889TIP3   OH214551   2.051   4.630   2.667
 4889TIP3    H114552   2.115   4.624   2.738
 4889TIP3    H214553   2.102   4.661   2.592
 4890TIP3   OH214554   0.979   4.738   3.162
 4890TIP3    H114555   1.062   4.721   3.205
 4890TIP3    H214556   0.983   4.689   3.080
 4891TIP3   OH214557   1.398   4.942   2.980
 4891TIP3    H114558   1.492   4.927   2.983
 4891TIP3    H214559   1.362   4.861   2.944
 4892TIP3   OH214560   2.683   4.921   3.214
 4892TIP3    H114561   2.593   4.954   3.210
 4892TIP3    H214562   2.716   4.952   3.298
 4893TIP3   OH214563   1.335   4.529   3.482
 4893TIP3    H114564   1.285   4.564   3.408
 4893TIP3    H214565   1.280   4.545   3.558
 4894TIP3   OH214566   1.642   5.381   2.507
 4894TIP3    H114567   1.620   5.361   2.416
 4894TIP3    H214568   1.599   5.465   2.525
 4895TIP3   OH214569   1.433   5.306   3.240
 4895TIP3    H114570   1.380   5.376   3.278
 4895TIP3    H214571   1.475   5.346   3.164
 4896TIP3   OH214572   2.205   4.656   2.890
 4896TIP3    H114573   2.166   4.631   2.974
 4896TIP3    H214574   2.263   4.729   2.912
 4897TIP3   OH214575   1.227   4.638   3.251
 4897TIP3    H114576   1.283   4.712   3.275
 4897TIP3    H214577   1.273   4.596   3.178
 4898TIP3   OH214578   1.288   5.510   3.356
 4898TIP3    H114579   1.264   5.597   3.324
 4898TIP3    H214580   1.216   5.484   3.413
 4899TIP3   OH214581   0.652   5.211   2.611
 4899TIP3    H114582   0.622   5.227   2.522
 4899TIP3    H214583   0.675   5.298   2.645
 4900TIP3   OH214584   2.069   5.706   2.845
 4900TIP3    H114585   1.985   5.712   2.890
 4900TIP3    H214586   2.076   5.786   2.794
 4901TIP3   OH214587   2.424   4.596   3.221
 4901TIP3    H114588   2.339   4.610   3.178
 4901TIP3    H214589   2.489   4.619   3.155
 4902TIP3   OH214590   1.679   4.223   3.216
 4902TIP3    H114591   1.671   4.130   3.240
 4902TIP3    H214592   1.601   4.264   3.253
 4903TIP3   OH214593   1.800   5.740   2.489
 4903TIP3    H114594   1.850   5.659   2.478
 4903TIP3    H214595   1.862   5.809   2.466
 4904TIP3   OH214596   1.951   5.520   2.450
 4904TIP3    H114597   1.960   5.447   2.389
 4904TIP3    H214598   1.984   5.488   2.533
 4905TIP3   OH214599   2.290   5.625   3.194
 4905TIP3    H114600   2.284   5.551   3.134
 4905TIP3    H214601   2.279   5.702   3.138
 4906TIP3   OH214602   1.613   5.007   2.463
 4906TIP3    H114603   1.530   5.052   2.443
 4906TIP3    H214604   1.659   5.004   2.380
 4907TIP3   OH214605   1.584   4.819   2.152
 4907TIP3    H114606   1.650   4.868   2.202
 4907TIP3    H214607   1.635   4.755   2.102
 4908TIP3   OH214608   2.499   5.269   3.062
 4908TIP3    H114609   2.417   5.317   3.062
 4908TIP3    H214610   2.532   5.278   2.972
 4909TIP3   OH214611   1.971   5.105   2.421
 4909TIP3    H114612   1.916   5.130   2.496
 4909TIP3    H214613   2.052   5.073   2.460
 4910TIP3   OH214614   2.206   5.110   3.363
 4910TIP3    H114615   2.211   5.192   3.412
 4910TIP3    H214616   2.124   5.115   3.315
 4911TIP3   OH214617   1.195   5.070   2.828
 4911TIP3    H114618   1.157   5.011   2.763
 4911TIP3    H214619   1.268   5.022   2.865
 4912TIP3   OH214620   1.344   5.501   2.962
 4912TIP3    H114621   1.312   5.485   2.873
 4912TIP3    H214622   1.430   5.460   2.964
 4913TIP3   OH214623   1.298   5.068   3.204
 4913TIP3    H114624   1.335   5.030   3.124
 4913TIP3    H214625   1.347   5.149   3.217
 4914TIP3   OH214626   1.809   5.671   3.046
 4914TIP3    H114627   1.767   5.655   2.961
 4914TIP3    H214628   1.826   5.584   3.082
 4915TIP3   OH214629   1.510   5.623   3.485
 4915TIP3    H114630   1.455   5.678   3.542
 4915TIP3    H214631   1.448   5.569   3.437
 4916TIP3   OH214632   1.803   4.959   2.258
 4916TIP3    H114633   1.862   5.016   2.306
 4916TIP3    H214634   1.830   4.967   2.167
 4917TIP3   OH214635   1.225   5.150   3.672
 4917TIP3    H114636   1.229   5.244   3.690
 4917TIP3    H214637   1.131   5.131   3.663
 4918TIP3   OH214638   1.544   5.648   2.535
 4918TIP3    H114639   1.632   5.676   2.511
 4918TIP3    H214640   1.488   5.688   2.469
 4919TIP3   OH214641   1.282   5.749   3.598
 4919TIP3    H114642   1.248   5.760   3.509
 4919TIP3    H214643   1.205   5.731   3.652
 4920TIP3   OH214644   2.314   4.179   2.315
 4920TIP3    H114645   2.235   4.198   2.367
 4920TIP3    H214646   2.324   4.256   2.258
 4921TIP3   OH214647   1.072   4.913   2.628
 4921TIP3    H114648   0.994   4.960   2.596
 4921TIP3    H214649   1.044   4.821   2.633
 4922TIP3   OH214650   2.140   5.562   1.866
 4922TIP3    H114651   2.132   5.653   1.839
 4922TIP3    H214652   2.229   5.537   1.842
 4923TIP3   OH214653   0.863   5.322   3.556
 4923TIP3    H114654   0.793   5.306   3.493
 4923TIP3    H214655   0.894   5.235   3.580
 4924TIP3   OH214656   0.702   5.529   3.214
 4924TIP3    H114657   0.793   5.551   3.237
 4924TIP3    H214658   0.652   5.607   3.237
 4925TIP3   OH214659   2.555   5.956   3.255
 4925TIP3    H114660   2.555   5.861   3.270
 4925TIP3    H214661   2.477   5.988   3.300
 4926TIP3   OH214662   1.673   5.797   3.332
 4926TIP3    H114663   1.670   5.875   3.388
 4926TIP3    H214664   1.630   5.729   3.383
 4927TIP3   OH214665   1.445   5.852   2.337
 4927TIP3    H114666   1.401   5.827   2.256
 4927TIP3    H214667   1.404   5.935   2.362
 4928TIP3   OH214668   0.877   5.700   2.709
 4928TIP3    H114669   0.919   5.692   2.795
 4928TIP3    H214670   0.827   5.619   2.700
 4929TIP3   OH214671   1.642   5.780   1.964
 4929TIP3    H114672   1.692   5.706   1.929
 4929TIP3    H214673   1.680   5.796   2.050
 4930TIP3   OH214674   1.698   5.832   2.233
 4930TIP3    H114675   1.611   5.835   2.272
 4930TIP3    H214676   1.753   5.790   2.300
 4931TIP3   OH214677   2.455   5.072   3.521
 4931TIP3    H114678   2.371   5.080   3.475
 4931TIP3    H214679   2.472   4.978   3.522
 4932TIP3   OH214680   1.069   5.503   3.524
 4932TIP3    H114681   1.113   5.493   3.608
 4932TIP3    H214682   0.994   5.443   3.529
 4933TIP3   OH214683   1.437   4.311   3.339
 4933TIP3    H114684   1.354   4.277   3.305
 4933TIP3    H214685   1.413   4.391   3.385
 4934TIP3   OH214686   1.976   4.440   3.540
 4934TIP3    H114687   2.045   4.414   3.601
 4934TIP3    H214688   1.895   4.423   3.588
 4935TIP3   OH214689   2.201   4.850   3.461
 4935TIP3    H114690   2.163   4.852   3.548
 4935TIP3    H214691   2.190   4.940   3.428
 4936TIP3   OH214692   1.882   4.970   2.000
 4936TIP3    H114693   1.834   4.953   1.919
 4936TIP3    H214694   1.967   5.003   1.971
 4937TIP3   OH214695   1.592   4.358   2.311
 4937TIP3    H114696   1.552   4.367   2.398
 4937TIP3    H214697   1.557   4.276   2.276
 4938TIP3   OH214698   1.379   4.847   3.353
 4938TIP3    H114699   1.332   4.853   3.436
 4938TIP3    H214700   1.358   4.929   3.308
 4939TIP3   OH214701   1.258   4.731   2.869
 4939TIP3    H114702   1.169   4.705   2.894
 4939TIP3    H214703   1.268   4.699   2.780
 4940TIP3   OH214704   1.737   4.802   2.598
 4940TIP3    H114705   1.689   4.874   2.557
 4940TIP3    H214706   1.794   4.768   2.529
 4941TIP3   OH214707   1.913   5.066   3.669
 4941TIP3    H114708   1.891   4.997   3.731
 4941TIP3    H214709   2.005   5.087   3.688
 4942TIP3   OH214710   1.908   4.817   2.817
 4942TIP3    H114711   1.839   4.836   2.754
 4942TIP3    H214712   1.956   4.743   2.780
 4943TIP3   OH214713   1.216   4.862   3.573
 4943TIP3    H114714   1.223   4.926   3.644
 4943TIP3    H214715   1.198   4.779   3.618
 4944TIP3   OH214716   1.256   4.343   2.290
 4944TIP3    H114717   1.242   4.345   2.385
 4944TIP3    H214718   1.178   4.385   2.254
 4945TIP3   OH214719   0.805   4.389   3.166
 4945TIP3    H114720   0.876   4.426   3.220
 4945TIP3    H214721   0.833   4.406   3.076
 4946TIP3   OH214722   0.728   4.361   2.674
 4946TIP3    H114723   0.773   4.397   2.597
 4946TIP3    H214724   0.655   4.422   2.689
 4947TIP3   OH214725   1.948   5.070   3.245
 4947TIP3    H114726   1.975   5.003   3.183
 4947TIP3    H214727   1.908   5.021   3.317
 4948TIP3   OH214728   1.629   4.520   2.923
 4948TIP3    H114729   1.551   4.518   2.978
 4948TIP3    H214730   1.702   4.506   2.983
 4949TIP3   OH214731   1.020   4.602   2.929
 4949TIP3    H114732   0.933   4.607   2.889
 4949TIP3    H214733   1.053   4.516   2.904
 4950TIP3   OH214734   1.270   4.609   2.624
 4950TIP3    H114735   1.365   4.615   2.613
 4950TIP3    H214736   1.235   4.625   2.536
 4951TIP3   OH214737   2.066   4.607   3.132
 4951TIP3    H114738   2.044   4.624   3.223
 4951TIP3    H214739   2.001   4.542   3.103
 4952TIP3   OH214740   1.157   4.634   2.376
 4952TIP3    H114741   1.096   4.583   2.323
 4952TIP3    H214742   1.214   4.677   2.312
 4953TIP3   OH214743   2.269   6.314   3.344
 4953TIP3    H114744   2.267   6.332   3.250
 4953TIP3    H214745   2.349   6.357   3.375
 4954TIP3   OH214746   1.214   5.415   3.763
 4954TIP3    H114747   1.294   5.438   3.810
 4954TIP3    H214748   1.144   5.427   3.827
 4955TIP3   OH214749   1.672   4.892   3.023
 4955TIP3    H114750   1.733   4.838   2.972
 4955TIP3    H214751   1.668   4.849   3.109
 4956TIP3   OH214752   1.173   4.364   2.900
 4956TIP3    H114753   1.145   4.289   2.954
 4956TIP3    H214754   1.193   4.326   2.815
 4957TIP3   OH214755   1.642   4.793   3.286
 4957TIP3    H114756   1.555   4.821   3.314
 4957TIP3    H214757   1.702   4.841   3.342
 4958TIP3   OH214758   1.373   5.143   2.406
 4958TIP3    H114759   1.299   5.087   2.382
 4958TIP3    H214760   1.348   5.182   2.490
 4959TIP3   OH214761   2.265   5.414   3.014
 4959TIP3    H114762   2.306   5.456   2.938
 4959TIP3    H214763   2.191   5.365   2.977
 4960TIP3   OH214764   1.846   4.455   2.320
 4960TIP3    H114765   1.754   4.432   2.310
 4960TIP3    H214766   1.847   4.551   2.325
 4961TIP3   OH214767   1.841   5.504   3.452
 4961TIP3    H114768   1.890   5.469   3.527
 4961TIP3    H214769   1.763   5.544   3.492
 4962TIP3   OH214770   1.899   4.725   2.382
 4962TIP3    H114771   1.995   4.727   2.388
 4962TIP3    H214772   1.877   4.801   2.327
 4963TIP3   OH214773   1.072   5.165   3.056
 4963TIP3    H114774   1.107   5.142   2.970
 4963TIP3    H214775   1.136   5.130   3.118
 4964TIP3   OH214776   1.530   5.306   2.253
 4964TIP3    H114777   1.483   5.389   2.252
 4964TIP3    H214778   1.473   5.247   2.303
 4965TIP3   OH214779   0.952   5.085   3.687
 4965TIP3    H114780   0.953   5.056   3.778
 4965TIP3    H214781   0.879   5.039   3.647
 4966TIP3   OH214782   1.689   5.229   3.707
 4966TIP3    H114783   1.618   5.168   3.685
 4966TIP3    H214784   1.769   5.183   3.681
 4967TIP3   OH214785   2.315   4.814   2.196
 4967TIP3    H114786   2.258   4.769   2.133
 4967TIP3    H214787   2.321   4.904   2.163
 4968TIP3   OH214788   2.551   5.669   3.282
 4968TIP3    H114789   2.456   5.663   3.274
 4968TIP3    H214790   2.584   5.646   3.195
 4969TIP3   OH214791   2.060   5.623   2.127
 4969TIP3    H114792   2.027   5.548   2.177
 4969TIP3    H214793   2.081   5.588   2.041
 4970TIP3   OH214794   2.046   5.260   2.905
 4970TIP3    H114795   1.956   5.236   2.929
 4970TIP3    H214796   2.083   5.180   2.868
 4971TIP3   OH214797   1.191   5.498   2.727
 4971TIP3    H114798   1.190   5.572   2.668
 4971TIP3    H214799   1.100   5.486   2.754
 4972TIP3   OH214800   0.760   4.781   2.438
 4972TIP3    H114801   0.800   4.866   2.458
 4972TIP3    H214802   0.679   4.781   2.488
 4973TIP3   OH214803   1.277   5.253   2.633
 4973TIP3    H114804   1.257   5.341   2.663
 4973TIP3    H214805   1.248   5.196   2.705
 4974TIP3   OH214806   1.452   5.847   3.167
 4974TIP3    H114807   1.480   5.924   3.118
 4974TIP3    H214808   1.518   5.836   3.235
 4975TIP3   OH214809   1.116   5.719   2.573
 4975TIP3    H114810   1.027   5.726   2.610
 4975TIP3    H214811   1.149   5.809   2.577
 4976TIP3   OH214812   1.829   5.435   3.180
 4976TIP3    H114813   1.834   5.446   3.275
 4976TIP3    H214814   1.884   5.359   3.161
 4977TIP3   OH214815   1.833   5.366   2.024
 4977TIP3    H114816   1.872   5.348   2.110
 4977TIP3    H214817   1.750   5.319   2.025
 4978TIP3   OH214818   2.127   5.833   1.815
 4978TIP3    H114819   2.124   5.884   1.734
 4978TIP3    H214820   2.061   5.874   1.871
 4979TIP3   OH214821   1.165   4.606   3.689
 4979TIP3    H114822   1.070   4.615   3.692
 4979TIP3    H214823   1.187   4.547   3.761
 4980TIP3   OH214824   1.997   5.322   2.252
 4980TIP3    H114825   1.978   5.245   2.306
 4980TIP3    H214826   2.090   5.313   2.230
 4981TIP3   OH214827   0.911   5.713   3.333
 4981TIP3    H114828   0.968   5.656   3.384
 4981TIP3    H214829   0.917   5.798   3.377
 4982TIP3   OH214830   1.175   5.326   2.035
 4982TIP3    H114831   1.184   5.236   2.005
 4982TIP3    H214832   1.158   5.320   2.128
 4983TIP3   OH214833   1.117   5.344   2.305
 4983TIP3    H114834   1.183   5.318   2.370
 4983TIP3    H214835   1.116   5.440   2.310
 4984TIP3   OH214836   0.849   5.035   2.517
 4984TIP3    H114837   0.784   5.084   2.568
 4984TIP3    H214838   0.869   5.093   2.443
 4985TIP3   OH214839   2.002   4.672   3.393
 4985TIP3    H114840   2.083   4.713   3.423
 4985TIP3    H214841   1.994   4.593   3.447
 4986TIP3   OH214842   1.902   4.409   2.586
 4986TIP3    H114843   1.881   4.425   2.494
 4986TIP3    H214844   1.946   4.489   2.614
 4987TIP3   OH214845   1.394   5.541   2.260
 4987TIP3    H114846   1.306   5.561   2.290
 4987TIP3    H214847   1.413   5.607   2.194
 4988TIP3   OH214848   1.551   4.612   2.672
 4988TIP3    H114849   1.613   4.679   2.644
 4988TIP3    H214850   1.577   4.590   2.762
 4989TIP3   OH214851   1.846   4.906   3.440
 4989TIP3    H114852   1.869   4.946   3.524
 4989TIP3    H214853   1.895   4.824   3.438
 4990TIP3   OH214854   1.712   4.305   2.757
 4990TIP3    H114855   1.690   4.384   2.807
 4990TIP3    H214856   1.782   4.333   2.698
 4991TIP3   OH214857   1.137   5.617   2.320
 4991TIP3    H114858   1.117   5.688   2.260
 4991TIP3    H214859   1.126   5.656   2.407
 4992TIP3   OH214860   1.224   4.333   2.573
 4992TIP3    H114861   1.215   4.426   2.596
 4992TIP3    H214862   1.319   4.318   2.573
 4993TIP3   OH214863   2.465   4.792   3.433
 4993TIP3    H114864   2.371   4.804   3.448
 4993TIP3    H214865   2.471   4.731   3.360
 4994TIP3   OH214866   2.133   5.004   2.818
 4994TIP3    H114867   2.057   4.946   2.826
 4994TIP3    H214868   2.200   4.963   2.872
 4995TIP3   OH214869   0.875   5.211   2.300
 4995TIP3    H114870   0.947   5.273   2.307
 4995TIP3    H214871   0.904   5.147   2.234
 4996TIP3   OH214872   0.795   4.506   2.453
 4996TIP3    H114873   0.794   4.601   2.447
 4996TIP3    H214874   0.774   4.476   2.365
 4997TIP3   OH214875   2.108   5.975   2.772
 4997TIP3    H114876   2.065   6.028   2.705
 4997TIP3    H214877   2.202   5.987   2.756
 4998TIP3   OH214878   1.172   4.229   3.295
 4998TIP3    H114879   1.142   4.199   3.209
 4998TIP3    H214880   1.161   4.152   3.352
 4999TIP3   OH214881   0.703   5.478   2.694
 4999TIP3    H114882   0.661   5.516   2.772
 4999TIP3    H214883   0.660   5.522   2.621
 5000TIP3   OH214884   0.904   6.003   3.756
 5000TIP3    H114885   0.986   6.001   3.805
 5000TIP3    H214886   0.874   5.912   3.754
 5001TIP3   OH214887   1.359   5.929   3.795
 5001TIP3    H114888   1.448   5.903   3.816
 5001TIP3    H214889   1.334   5.872   3.722
 5002TIP3   OH214890   1.330   5.529   1.931
 5002TIP3    H114891   1.280   5.457   1.971
 5002TIP3    H214892   1.403   5.485   1.887
 5003TIP3   OH214893   1.770   5.568   1.847
 5003TIP3    H114894   1.808   5.504   1.907
 5003TIP3    H214895   1.825   5.564   1.769
 5004TIP3   OH214896   1.012   5.419   3.954
 5004TIP3    H114897   1.022   5.324   3.966
 5004TIP3    H214898   0.929   5.428   3.907
 5005TIP3   OH214899   0.993   5.021   2.145
 5005TIP3    H114900   1.044   4.996   2.221
 5005TIP3    H214901   1.058   5.034   2.076
 5006TIP3   OH214902   1.619   5.501   3.717
 5006TIP3    H114903   1.580   5.521   3.631
 5006TIP3    H214904   1.650   5.411   3.708
 5007TIP3   OH214905   1.585   5.243   1.991
 5007TIP3    H114906   1.557   5.254   2.082
 5007TIP3    H214907   1.563   5.152   1.969
 5008TIP3   OH214908   2.108   5.481   3.348
 5008TIP3    H114909   2.162   5.545   3.302
 5008TIP3    H214910   2.027   5.528   3.368
 5009TIP3   OH214911   1.121   5.157   3.962
 5009TIP3    H114912   1.195   5.147   3.903
 5009TIP3    H214913   1.159   5.182   4.046
 5010TIP3   OH214914   1.166   4.965   2.359
 5010TIP3    H114915   1.146   4.931   2.446
 5010TIP3    H214916   1.216   4.894   2.317
 5011TIP3   OH214917   1.484   5.052   3.624
 5011TIP3    H114918   1.396   5.088   3.634
 5011TIP3    H214919   1.510   5.075   3.535
 5012TIP3   OH214920   1.312   4.785   2.206
 5012TIP3    H114921   1.280   4.787   2.116
 5012TIP3    H214922   1.407   4.791   2.198
 5013TIP3   OH214923   1.985   5.436   3.688
 5013TIP3    H114924   2.079   5.423   3.672
 5013TIP3    H214925   1.966   5.382   3.764
 5014TIP3   OH214926   2.108   5.070   1.874
 5014TIP3    H114927   2.092   5.027   1.790
 5014TIP3    H214928   2.084   5.161   1.859
 5015TIP3   OH214929   1.585   4.815   3.723
 5015TIP3    H114930   1.586   4.746   3.656
 5015TIP3    H214931   1.551   4.892   3.677
 5016TIP3   OH214932   1.592   4.619   3.517
 5016TIP3    H114933   1.620   4.651   3.432
 5016TIP3    H214934   1.502   4.589   3.504
 5017TIP3   OH214935   1.585   5.130   3.385
 5017TIP3    H114936   1.675   5.133   3.351
 5017TIP3    H214937   1.538   5.195   3.334
 5018TIP3   OH214938   2.180   5.103   3.764
 5018TIP3    H114939   2.203   5.010   3.769
 5018TIP3    H214940   2.263   5.146   3.744
 5019TIP3   OH214941   2.262   5.339   3.513
 5019TIP3    H114942   2.202   5.390   3.459
 5019TIP3    H214943   2.349   5.362   3.481
 5020TIP3   OH214944   1.471   4.896   3.967
 5020TIP3    H114945   1.401   4.834   3.987
 5020TIP3    H214946   1.499   4.873   3.878
 5021TIP3   OH214947   1.713   4.390   3.625
 5021TIP3    H114948   1.673   4.469   3.590
 5021TIP3    H214949   1.648   4.321   3.610
 5022TIP3   OH214950   1.840   4.853   3.826
 5022TIP3    H114951   1.830   4.840   3.920
 5022TIP3    H214952   1.754   4.831   3.790
 5023TIP3   OH214953   2.093   4.825   3.707
 5023TIP3    H114954   2.013   4.816   3.757
 5023TIP3    H214955   2.161   4.788   3.763
 5024TIP3   OH214956   2.326   4.771   3.850
 5024TIP3    H114957   2.339   4.676   3.857
 5024TIP3    H214958   2.322   4.801   3.940
 5025TIP3   OH214959   1.303   4.678   4.030
 5025TIP3    H114960   1.309   4.591   3.992
 5025TIP3    H214961   1.342   4.669   4.117
 5026TIP3   OH214962   1.779   4.361   3.889
 5026TIP3    H114963   1.847   4.294   3.882
 5026TIP3    H214964   1.750   4.375   3.799
 5027TIP3   OH214965   1.877   4.573   4.035
 5027TIP3    H114966   1.847   4.501   3.980
 5027TIP3    H214967   1.805   4.636   4.036
 5028TIP3   OH214968   1.133   5.829   2.141
 5028TIP3    H114969   1.222   5.810   2.110
 5028TIP3    H214970   1.091   5.872   2.066
 5029TIP3   OH214971   0.604   5.208   2.328
 5029TIP3    H114972   0.699   5.220   2.319
 5029TIP3    H214973   0.587   5.123   2.286
 5030TIP3   OH214974   0.519   5.781   2.757
 5030TIP3    H114975   0.461   5.725   2.704
 5030TIP3    H214976   0.558   5.721   2.821
 5031TIP3   OH214977   0.650   5.624   2.944
 5031TIP3    H114978   0.644   5.558   3.013
 5031TIP3    H214979   0.700   5.696   2.983
 5032TIP3   OH214980   2.381   6.025   2.758
 5032TIP3    H114981   2.402   6.058   2.846
 5032TIP3    H214982   2.432   6.080   2.699
 5033TIP3   OH214983   2.398   6.071   3.038
 5033TIP3    H114984   2.354   5.986   3.037
 5033TIP3    H214985   2.469   6.061   3.101
 5034TIP3   OH214986   2.443   5.757   3.609
 5034TIP3    H114987   2.368   5.769   3.666
 5034TIP3    H214988   2.485   5.843   3.608
 5035TIP3   OH214989   2.270   5.283   2.216
 5035TIP3    H114990   2.330   5.350   2.184
 5035TIP3    H214991   2.317   5.241   2.288
 5036TIP3   OH214992   2.399   5.136   2.415
 5036TIP3    H114993   2.331   5.095   2.468
 5036TIP3    H214994   2.463   5.168   2.478
 5037TIP3   OH214995   2.445   5.539   2.845
 5037TIP3    H114996   2.499   5.469   2.807
 5037TIP3    H214997   2.453   5.611   2.782
 5038TIP3   OH214998   2.244   5.838   3.019
 5038TIP3    H114999   2.175   5.904   3.016
 5038TIP3    H215000   2.223   5.778   2.948
 5039TIP3   OH215001   2.309   5.055   2.062
 5039TIP3    H115002   2.240   5.052   1.995
 5039TIP3    H215003   2.288   5.134   2.113
 5040TIP3   OH215004   2.161   4.708   1.998
 5040TIP3    H115005   2.114   4.737   1.920
 5040TIP3    H215006   2.154   4.612   1.996
 5041TIP3   OH215007   2.196   4.994   2.546
 5041TIP3    H115008   2.200   4.900   2.529
 5041TIP3    H215009   2.179   5.001   2.640
 5042TIP3   OH215010   0.822   5.060   3.322
 5042TIP3    H115011   0.812   5.027   3.232
 5042TIP3    H215012   0.916   5.055   3.339
 5043TIP3   OH215013   2.506   5.419   3.418
 5043TIP3    H115014   2.571   5.352   3.398
 5043TIP3    H215015   2.530   5.493   3.362
 5044TIP3   OH215016   2.668   5.198   3.402
 5044TIP3    H115017   2.591   5.157   3.443
 5044TIP3    H215018   2.740   5.139   3.423
 5045TIP3   OH215019   2.127   4.438   1.984
 5045TIP3    H115020   2.193   4.405   2.045
 5045TIP3    H215021   2.047   4.393   2.008
 5046TIP3   OH215022   2.194   4.720   2.436
 5046TIP3    H115023   2.239   4.636   2.450
 5046TIP3    H215024   2.234   4.756   2.357
 5047TIP3   OH215025   2.347   4.886   2.960
 5047TIP3    H115026   2.428   4.901   2.912
 5047TIP3    H215027   2.363   4.924   3.046
 5048TIP3   OH215028   2.424   5.033   3.187
 5048TIP3    H115029   2.350   5.057   3.243
 5048TIP3    H215030   2.451   5.115   3.148
 5049TIP3   OH215031   1.039   4.733   3.967
 5049TIP3    H115032   1.133   4.732   3.985
 5049TIP3    H215033   1.006   4.652   4.005
 5050TIP3   OH215034   2.882   4.630   3.727
 5050TIP3    H115035   2.948   4.575   3.686
 5050TIP3    H215036   2.843   4.679   3.655
 5051TIP3   OH215037   2.308   4.470   2.493
 5051TIP3    H115038   2.351   4.453   2.576
 5051TIP3    H215039   2.246   4.398   2.483
 5052TIP3   OH215040   1.018   4.458   3.329
 5052TIP3    H115041   1.069   4.377   3.329
 5052TIP3    H215042   1.081   4.526   3.306
 5053TIP3   OH215043   0.793   4.717   3.375
 5053TIP3    H115044   0.847   4.706   3.296
 5053TIP3    H215045   0.815   4.804   3.408
 5054TIP3   OH215046   2.730   4.743   3.529
 5054TIP3    H115047   2.648   4.782   3.556
 5054TIP3    H215048   2.705   4.669   3.475
 5055TIP3   OH215049   2.357   4.381   2.134
 5055TIP3    H115050   2.404   4.323   2.074
 5055TIP3    H215051   2.410   4.461   2.136
 5056TIP3   OH215052   0.794   4.211   2.891
 5056TIP3    H115053   0.706   4.204   2.929
 5056TIP3    H215054   0.783   4.271   2.817
 5057TIP3   OH215055   1.953   5.943   2.404
 5057TIP3    H115056   2.001   5.928   2.323
 5057TIP3    H215057   1.992   6.023   2.441
 5058TIP3   OH215058   1.017   4.301   3.714
 5058TIP3    H115059   0.961   4.282   3.790
 5058TIP3    H215060   0.958   4.340   3.650
 5059TIP3   OH215061   1.064   5.722   3.772
 5059TIP3    H115062   0.969   5.716   3.760
 5059TIP3    H215063   1.076   5.725   3.867
 5060TIP3   OH215064   1.235   5.780   3.321
 5060TIP3    H115065   1.177   5.852   3.299
 5060TIP3    H215066   1.314   5.796   3.269
 5061TIP3   OH215067   1.666   6.030   3.472
 5061TIP3    H115068   1.705   6.007   3.556
 5061TIP3    H215069   1.725   6.097   3.435
 5062TIP3   OH215070   1.838   6.203   3.340
 5062TIP3    H115071   1.895   6.189   3.264
 5062TIP3    H215072   1.892   6.250   3.402
 5063TIP3   OH215073   2.644   4.492   3.426
 5063TIP3    H115074   2.556   4.480   3.391
 5063TIP3    H215075   2.684   4.405   3.420
 5064TIP3   OH215076   0.908   6.022   3.377
 5064TIP3    H115077   0.817   6.039   3.354
 5064TIP3    H215078   0.929   6.089   3.442
 5065TIP3   OH215079   1.134   6.018   3.223
 5065TIP3    H115080   1.052   6.023   3.271
 5065TIP3    H215081   1.111   6.044   3.133
 5066TIP3   OH215082   1.545   6.054   3.014
 5066TIP3    H115083   1.475   6.064   2.950
 5066TIP3    H215084   1.553   6.140   3.055
 5067TIP3   OH215085   1.801   5.978   3.083
 5067TIP3    H115086   1.720   6.013   3.046
 5067TIP3    H215087   1.870   6.035   3.048
 5068TIP3   OH215088   1.999   6.134   2.972
 5068TIP3    H115089   2.008   6.224   2.940
 5068TIP3    H215090   2.033   6.080   2.900
 5069TIP3   OH215091   0.828   5.809   3.080
 5069TIP3    H115092   0.848   5.782   3.170
 5069TIP3    H215093   0.898   5.771   3.027
 5070TIP3   OH215094   1.023   5.684   2.941
 5070TIP3    H115095   1.036   5.602   2.989
 5070TIP3    H215096   1.109   5.725   2.941
 5071TIP3   OH215097   1.287   5.776   2.957
 5071TIP3    H115098   1.309   5.683   2.946
 5071TIP3    H215099   1.334   5.802   3.036
 5072TIP3   OH215100   1.852   4.421   3.064
 5072TIP3    H115101   1.811   4.349   3.112
 5072TIP3    H215102   1.920   4.379   3.011
 5073TIP3   OH215103   2.350   4.353   2.964
 5073TIP3    H115104   2.384   4.397   2.886
 5073TIP3    H215105   2.255   4.358   2.956
 5074TIP3   OH215106   2.462   4.414   2.719
 5074TIP3    H115107   2.531   4.354   2.689
 5074TIP3    H215108   2.499   4.501   2.705
 5075TIP3   OH215109   1.082   4.143   3.044
 5075TIP3    H115110   1.001   4.125   2.996
 5075TIP3    H215111   1.130   4.061   3.044
 5076TIP3   OH215112   0.913   4.017   2.727
 5076TIP3    H115113   0.939   4.058   2.644
 5076TIP3    H215114   0.871   4.087   2.777
 5077TIP3   OH215115   1.567   4.166   2.956
 5077TIP3    H115116   1.616   4.208   2.885
 5077TIP3    H215117   1.614   4.192   3.036
 5078TIP3   OH215118   2.068   4.304   2.933
 5078TIP3    H115119   2.076   4.268   2.845
 5078TIP3    H215120   2.073   4.227   2.990
 5079TIP3   OH215121   2.124   4.260   2.500
 5079TIP3    H115122   2.043   4.306   2.523
 5079TIP3    H215123   2.114   4.173   2.538
 5080TIP3   OH215124   0.594   5.601   2.476
 5080TIP3    H115125   0.515   5.563   2.436
 5080TIP3    H215126   0.596   5.691   2.444
 5081TIP3   OH215127   1.014   4.160   2.494
 5081TIP3    H115128   1.052   4.103   2.427
 5081TIP3    H215129   1.086   4.215   2.523
 5082TIP3   OH215130   1.498   4.361   2.573
 5082TIP3    H115131   1.557   4.305   2.623
 5082TIP3    H215132   1.518   4.450   2.603
 5083TIP3   OH215133   1.390   5.753   2.072
 5083TIP3    H115134   1.471   5.782   2.031
 5083TIP3    H215135   1.359   5.682   2.017
 5084TIP3   OH215136   2.091   5.892   2.170
 5084TIP3    H115137   2.085   5.797   2.160
 5084TIP3    H215138   2.046   5.927   2.093
 5085TIP3   OH215139   1.320   4.409   3.940
 5085TIP3    H115140   1.285   4.342   3.999
 5085TIP3    H215141   1.412   4.418   3.965
 5086TIP3   OH215142   1.566   4.415   4.065
 5086TIP3    H115143   1.642   4.393   4.011
 5086TIP3    H215144   1.561   4.345   4.129
 5087TIP3   OH215145   0.697   5.587   2.131
 5087TIP3    H115146   0.704   5.602   2.225
 5087TIP3    H215147   0.778   5.542   2.108
 5088TIP3   OH215148   2.387   4.499   3.849
 5088TIP3    H115149   2.404   4.470   3.939
 5088TIP3    H215150   2.472   4.496   3.806
 5089TIP3   OH215151   2.320   6.042   3.365
 5089TIP3    H115152   2.295   6.019   3.455
 5089TIP3    H215153   2.296   6.134   3.356
 5090TIP3   OH215154   3.591   5.437   2.090
 5090TIP3    H115155   3.556   5.520   2.057
 5090TIP3    H215156   3.523   5.373   2.071
 5091TIP3   OH215157   3.587   5.414   2.521
 5091TIP3    H115158   3.638   5.394   2.599
 5091TIP3    H215159   3.539   5.333   2.502
 5092TIP3   OH215160   2.875   5.273   2.866
 5092TIP3    H115161   2.915   5.222   2.936
 5092TIP3    H215162   2.948   5.297   2.809
 5093TIP3   OH215163   3.840   5.720   2.208
 5093TIP3    H115164   3.809   5.634   2.237
 5093TIP3    H215165   3.893   5.752   2.282
 5094TIP3   OH215166   2.872   5.709   2.550
 5094TIP3    H115167   2.854   5.615   2.556
 5094TIP3    H215168   2.968   5.714   2.544
 5095TIP3   OH215169   2.553   4.912   2.333
 5095TIP3    H115170   2.511   4.994   2.355
 5095TIP3    H215171   2.484   4.860   2.291
 5096TIP3   OH215172   2.626   5.214   2.564
 5096TIP3    H115173   2.677   5.136   2.588
 5096TIP3    H215174   2.691   5.274   2.527
 5097TIP3   OH215175   3.466   6.196   2.186
 5097TIP3    H115176   3.493   6.115   2.143
 5097TIP3    H215177   3.449   6.171   2.277
 5098TIP3   OH215178   3.387   5.638   2.521
 5098TIP3    H115179   3.431   5.558   2.492
 5098TIP3    H215180   3.458   5.692   2.557
 5099TIP3   OH215181   4.420   4.955   2.539
 5099TIP3    H115182   4.436   5.040   2.581
 5099TIP3    H215183   4.442   4.969   2.447
 5100TIP3   OH215184   3.795   5.125   2.557
 5100TIP3    H115185   3.826   5.039   2.587
 5100TIP3    H215186   3.758   5.109   2.471
 5101TIP3   OH215187   3.151   4.781   2.514
 5101TIP3    H115188   3.128   4.853   2.456
 5101TIP3    H215189   3.096   4.708   2.485
 5102TIP3   OH215190   3.848   4.884   2.153
 5102TIP3    H115191   3.911   4.878   2.225
 5102TIP3    H215192   3.900   4.917   2.079
 5103TIP3   OH215193   2.774   4.995   2.647
 5103TIP3    H115194   2.858   4.975   2.690
 5103TIP3    H215195   2.776   4.944   2.566
 5104TIP3   OH215196   3.190   5.197   2.466
 5104TIP3    H115197   3.284   5.182   2.471
 5104TIP3    H215198   3.154   5.115   2.432
 5105TIP3   OH215199   4.476   5.179   2.700
 5105TIP3    H115200   4.385   5.209   2.699
 5105TIP3    H215201   4.510   5.209   2.785
 5106TIP3   OH215202   3.130   4.786   2.968
 5106TIP3    H115203   3.080   4.820   2.894
 5106TIP3    H215204   3.075   4.802   3.045
 5107TIP3   OH215205   3.489   5.648   1.946
 5107TIP3    H115206   3.444   5.614   1.869
 5107TIP3    H215207   3.435   5.723   1.975
 5108TIP3   OH215208   3.222   5.562   2.731
 5108TIP3    H115209   3.168   5.633   2.766
 5108TIP3    H215210   3.270   5.602   2.658
 5109TIP3   OH215211   4.001   4.911   2.377
 5109TIP3    H115212   3.960   4.886   2.460
 5109TIP3    H215213   4.058   4.984   2.399
 5110TIP3   OH215214   3.023   4.892   2.736
 5110TIP3    H115215   3.078   4.966   2.759
 5110TIP3    H215216   3.069   4.849   2.664
 5111TIP3   OH215217   3.068   5.766   2.840
 5111TIP3    H115218   3.053   5.856   2.811
 5111TIP3    H215219   2.990   5.744   2.892
 5112TIP3   OH215220   2.443   5.468   2.094
 5112TIP3    H115221   2.409   5.483   2.006
 5112TIP3    H215222   2.465   5.556   2.126
 5113TIP3   OH215223   3.872   5.997   2.298
 5113TIP3    H115224   3.799   5.987   2.358
 5113TIP3    H215225   3.854   5.936   2.227
 5114TIP3   OH215226   4.215   4.852   2.707
 5114TIP3    H115227   4.131   4.869   2.664
 5114TIP3    H215228   4.281   4.876   2.641
 5115TIP3   OH215229   3.475   4.479   2.703
 5115TIP3    H115230   3.468   4.386   2.728
 5115TIP3    H215231   3.397   4.519   2.741
 5116TIP3   OH215232   3.607   6.022   1.987
 5116TIP3    H115233   3.643   5.934   1.982
 5116TIP3    H215234   3.684   6.079   1.987
 5117TIP3   OH215235   3.731   5.785   1.962
 5117TIP3    H115236   3.662   5.721   1.945
 5117TIP3    H215237   3.777   5.751   2.039
 5118TIP3   OH215238   4.111   5.874   2.662
 5118TIP3    H115239   4.095   5.795   2.612
 5118TIP3    H215240   4.096   5.946   2.601
 5119TIP3   OH215241   3.415   5.269   1.952
 5119TIP3    H115242   3.330   5.308   1.933
 5119TIP3    H215243   3.457   5.261   1.866
 5120TIP3   OH215244   3.379   5.071   1.635
 5120TIP3    H115245   3.445   5.118   1.685
 5120TIP3    H215246   3.427   5.002   1.589
 5121TIP3   OH215247   4.302   5.521   2.547
 5121TIP3    H115248   4.217   5.565   2.547
 5121TIP3    H215249   4.334   5.532   2.457
 5122TIP3   OH215250   3.772   5.360   1.900
 5122TIP3    H115251   3.718   5.387   1.974
 5122TIP3    H215252   3.853   5.328   1.940
 5123TIP3   OH215253   4.000   5.380   2.856
 5123TIP3    H115254   3.997   5.464   2.902
 5123TIP3    H215255   3.918   5.376   2.807
 5124TIP3   OH215256   2.993   5.329   2.311
 5124TIP3    H115257   2.955   5.268   2.247
 5124TIP3    H215258   3.064   5.280   2.352
 5125TIP3   OH215259   3.135   5.759   2.452
 5125TIP3    H115260   3.108   5.741   2.362
 5125TIP3    H215261   3.221   5.717   2.460
 5126TIP3   OH215262   3.088   5.325   2.690
 5126TIP3    H115263   3.127   5.287   2.611
 5126TIP3    H215264   3.138   5.406   2.705
 5127TIP3   OH215265   3.673   5.960   2.476
 5127TIP3    H115266   3.648   6.041   2.519
 5127TIP3    H215267   3.648   5.891   2.537
 5128TIP3   OH215268   3.268   5.862   3.008
 5128TIP3    H115269   3.207   5.918   3.056
 5128TIP3    H215270   3.212   5.810   2.950
 5129TIP3   OH215271   3.599   5.213   1.742
 5129TIP3    H115272   3.659   5.271   1.788
 5129TIP3    H215273   3.626   5.219   1.650
 5130TIP3   OH215274   3.020   5.410   3.156
 5130TIP3    H115275   3.024   5.504   3.174
 5130TIP3    H215276   2.927   5.391   3.147
 5131TIP3   OH215277   3.360   5.888   1.996
 5131TIP3    H115278   3.434   5.950   1.994
 5131TIP3    H215279   3.293   5.930   1.942
 5132TIP3   OH215280   3.056   6.017   3.096
 5132TIP3    H115281   3.030   6.029   3.005
 5132TIP3    H215282   2.974   6.004   3.143
 5133TIP3   OH215283   4.110   4.438   1.799
 5133TIP3    H115284   4.033   4.457   1.853
 5133TIP3    H215285   4.117   4.514   1.741
 5134TIP3   OH215286   2.867   5.170   2.112
 5134TIP3    H115287   2.788   5.216   2.083
 5134TIP3    H215288   2.839   5.080   2.124
 5135TIP3   OH215289   3.938   5.816   1.356
 5135TIP3    H115290   3.927   5.907   1.328
 5135TIP3    H215291   4.026   5.793   1.330
 5136TIP3   OH215292   2.646   5.579   3.043
 5136TIP3    H115293   2.579   5.559   2.977
 5136TIP3    H215294   2.683   5.495   3.067
 5137TIP3   OH215295   2.498   5.772   2.696
 5137TIP3    H115296   2.592   5.790   2.706
 5137TIP3    H215297   2.455   5.851   2.728
 5138TIP3   OH215298   4.348   6.210   2.752
 5138TIP3    H115299   4.352   6.116   2.768
 5138TIP3    H215300   4.270   6.240   2.798
 5139TIP3   OH215301   3.453   6.012   2.870
 5139TIP3    H115302   3.445   6.101   2.903
 5139TIP3    H215303   3.388   5.962   2.919
 5140TIP3   OH215304   3.244   6.115   1.816
 5140TIP3    H115305   3.191   6.088   1.741
 5140TIP3    H215306   3.200   6.194   1.849
 5141TIP3   OH215307   2.669   5.960   2.201
 5141TIP3    H115308   2.710   5.951   2.287
 5141TIP3    H215309   2.617   5.880   2.191
 5142TIP3   OH215310   3.443   6.042   1.454
 5142TIP3    H115311   3.490   5.967   1.417
 5142TIP3    H215312   3.478   6.050   1.543
 5143TIP3   OH215313   3.500   6.083   1.728
 5143TIP3    H115314   3.410   6.091   1.758
 5143TIP3    H215315   3.546   6.040   1.800
 5144TIP3   OH215316   4.246   5.330   3.008
 5144TIP3    H115317   4.161   5.340   2.965
 5144TIP3    H215318   4.262   5.235   3.007
 5145TIP3   OH215319   2.849   5.765   3.011
 5145TIP3    H115320   2.900   5.751   3.091
 5145TIP3    H215321   2.776   5.704   3.019
 5146TIP3   OH215322   3.235   4.569   2.826
 5146TIP3    H115323   3.152   4.534   2.795
 5146TIP3    H215324   3.211   4.649   2.873
 5147TIP3   OH215325   3.774   4.696   3.028
 5147TIP3    H115326   3.843   4.670   3.089
 5147TIP3    H215327   3.693   4.679   3.076
 5148TIP3   OH215328   3.997   5.115   2.948
 5148TIP3    H115329   3.958   5.111   3.035
 5148TIP3    H215330   3.982   5.205   2.920
 5149TIP3   OH215331   3.679   5.211   1.483
 5149TIP3    H115332   3.630   5.203   1.401
 5149TIP3    H215333   3.762   5.251   1.456
 5150TIP3   OH215334   3.388   4.610   1.796
 5150TIP3    H115335   3.349   4.619   1.883
 5150TIP3    H215336   3.351   4.529   1.761
 5151TIP3   OH215337   3.172   5.103   2.837
 5151TIP3    H115338   3.127   5.108   2.921
 5151TIP3    H215339   3.150   5.185   2.792
 5152TIP3   OH215340   3.051   4.983   2.357
 5152TIP3    H115341   2.962   4.957   2.382
 5152TIP3    H215342   3.061   4.951   2.268
 5153TIP3   OH215343   3.533   5.060   2.087
 5153TIP3    H115344   3.486   5.133   2.046
 5153TIP3    H215345   3.589   5.025   2.017
 5154TIP3   OH215346   3.716   5.322   3.158
 5154TIP3    H115347   3.689   5.254   3.219
 5154TIP3    H215348   3.808   5.339   3.178
 5155TIP3   OH215349   3.704   5.070   2.305
 5155TIP3    H115350   3.634   5.088   2.242
 5155TIP3    H215351   3.751   4.996   2.267
 5156TIP3   OH215352   3.011   5.118   3.058
 5156TIP3    H115353   3.025   5.181   3.130
 5156TIP3    H215354   2.993   5.035   3.102
 5157TIP3   OH215355   3.055   4.595   1.774
 5157TIP3    H115356   3.043   4.596   1.869
 5157TIP3    H215357   2.976   4.636   1.739
 5158TIP3   OH215358   2.594   4.636   2.640
 5158TIP3    H115359   2.672   4.670   2.685
 5158TIP3    H215360   2.626   4.612   2.553
 5159TIP3   OH215361   2.505   4.617   2.142
 5159TIP3    H115362   2.549   4.649   2.064
 5159TIP3    H215363   2.439   4.684   2.162
 5160TIP3   OH215364   3.749   5.326   2.733
 5160TIP3    H115365   3.774   5.259   2.669
 5160TIP3    H215366   3.705   5.278   2.803
 5161TIP3   OH215367   3.421   4.775   2.409
 5161TIP3    H115368   3.342   4.771   2.463
 5161TIP3    H215369   3.493   4.762   2.471
 5162TIP3   OH215370   2.812   4.856   2.414
 5162TIP3    H115371   2.724   4.862   2.377
 5162TIP3    H215372   2.839   4.766   2.399
 5163TIP3   OH215373   3.067   4.863   2.111
 5163TIP3    H115374   3.162   4.870   2.100
 5163TIP3    H215375   3.031   4.879   2.024
 5164TIP3   OH215376   3.862   4.862   2.617
 5164TIP3    H115377   3.843   4.879   2.709
 5164TIP3    H215378   3.795   4.799   2.590
 5165TIP3   OH215379   2.954   4.887   1.863
 5165TIP3    H115380   2.892   4.835   1.813
 5165TIP3    H215381   3.008   4.930   1.797
 5166TIP3   OH215382   4.068   6.566   2.840
 5166TIP3    H115383   4.069   6.582   2.745
 5166TIP3    H215384   4.147   6.609   2.872
 5167TIP3   OH215385   3.003   5.678   3.244
 5167TIP3    H115386   3.083   5.698   3.293
 5167TIP3    H215387   2.932   5.688   3.308
 5168TIP3   OH215388   3.465   5.149   2.514
 5168TIP3    H115389   3.526   5.094   2.465
 5168TIP3    H215390   3.461   5.110   2.601
 5169TIP3   OH215391   2.956   4.607   2.402
 5169TIP3    H115392   2.927   4.533   2.455
 5169TIP3    H215393   2.974   4.569   2.316
 5170TIP3   OH215394   3.439   5.052   2.776
 5170TIP3    H115395   3.351   5.081   2.802
 5170TIP3    H215396   3.498   5.102   2.831
 5171TIP3   OH215397   3.172   5.395   1.894
 5171TIP3    H115398   3.099   5.340   1.869
 5171TIP3    H215399   3.145   5.437   1.975
 5172TIP3   OH215400   4.063   5.654   2.499
 5172TIP3    H115401   4.100   5.697   2.422
 5172TIP3    H215402   3.988   5.605   2.465
 5173TIP3   OH215403   3.639   4.715   1.802
 5173TIP3    H115404   3.547   4.690   1.797
 5173TIP3    H215405   3.638   4.809   1.813
 5174TIP3   OH215406   3.591   5.744   2.918
 5174TIP3    H115407   3.640   5.726   2.999
 5174TIP3    H215408   3.546   5.827   2.935
 5175TIP3   OH215409   3.694   4.982   1.870
 5175TIP3    H115410   3.789   4.983   1.878
 5175TIP3    H215411   3.673   5.058   1.816
 5176TIP3   OH215412   2.867   5.425   2.538
 5176TIP3    H115413   2.903   5.401   2.453
 5176TIP3    H215414   2.929   5.389   2.602
 5177TIP3   OH215415   3.322   5.562   1.738
 5177TIP3    H115416   3.275   5.645   1.737
 5177TIP3    H215417   3.266   5.503   1.789
 5178TIP3   OH215418   2.744   5.348   3.175
 5178TIP3    H115419   2.751   5.317   3.265
 5178TIP3    H215420   2.668   5.302   3.140
 5179TIP3   OH215421   3.486   5.481   3.196
 5179TIP3    H115422   3.416   5.420   3.172
 5179TIP3    H215423   3.567   5.437   3.169
 5180TIP3   OH215424   3.723   6.034   2.793
 5180TIP3    H115425   3.630   6.017   2.800
 5180TIP3    H215426   3.748   6.066   2.880
 5181TIP3   OH215427   4.110   5.066   1.680
 5181TIP3    H115428   4.054   5.020   1.618
 5181TIP3    H215429   4.114   5.156   1.647
 5182TIP3   OH215430   4.358   5.925   2.769
 5182TIP3    H115431   4.263   5.919   2.756
 5182TIP3    H215432   4.395   5.903   2.684
 5183TIP3   OH215433   3.869   5.864   1.625
 5183TIP3    H115434   3.832   5.791   1.674
 5183TIP3    H215435   3.882   5.829   1.537
 5184TIP3   OH215436   3.838   5.506   2.397
 5184TIP3    H115437   3.750   5.484   2.428
 5184TIP3    H215438   3.871   5.424   2.361
 5185TIP3   OH215439   2.984   5.755   2.213
 5185TIP3    H115440   2.978   5.830   2.155
 5185TIP3    H215441   2.895   5.741   2.245
 5186TIP3   OH215442   2.548   5.036   1.927
 5186TIP3    H115443   2.590   5.119   1.948
 5186TIP3    H215444   2.466   5.038   1.976
 5187TIP3   OH215445   3.074   5.512   2.116
 5187TIP3    H115446   3.053   5.600   2.148
 5187TIP3    H215447   3.047   5.454   2.187
 5188TIP3   OH215448   3.271   6.081   2.664
 5188TIP3    H115449   3.311   6.153   2.614
 5188TIP3    H215450   3.343   6.047   2.718
 5189TIP3   OH215451   2.906   5.977   2.061
 5189TIP3    H115452   2.818   5.983   2.098
 5189TIP3    H215453   2.941   6.066   2.067
 5190TIP3   OH215454   3.619   5.739   2.643
 5190TIP3    H115455   3.608   5.740   2.738
 5190TIP3    H215456   3.689   5.676   2.628
 5191TIP3   OH215457   3.623   5.623   1.500
 5191TIP3    H115458   3.671   5.599   1.579
 5191TIP3    H215459   3.541   5.574   1.506
 5192TIP3   OH215460   3.876   6.235   2.672
 5192TIP3    H115461   3.816   6.166   2.701
 5192TIP3    H215462   3.828   6.282   2.604
 5193TIP3   OH215463   3.918   6.087   1.300
 5193TIP3    H115464   3.916   6.138   1.219
 5193TIP3    H215465   3.854   6.129   1.357
 5194TIP3   OH215466   2.957   4.864   3.173
 5194TIP3    H115467   2.862   4.873   3.177
 5194TIP3    H215468   2.979   4.809   3.248
 5195TIP3   OH215469   3.796   5.560   1.705
 5195TIP3    H115470   3.775   5.498   1.774
 5195TIP3    H215471   3.891   5.555   1.697
 5196TIP3   OH215472   2.701   5.976   2.828
 5196TIP3    H115473   2.751   5.915   2.882
 5196TIP3    H215474   2.715   6.062   2.868
 5197TIP3   OH215475   2.972   5.582   1.522
 5197TIP3    H115476   2.979   5.491   1.494
 5197TIP3    H215477   2.954   5.576   1.616
 5198TIP3   OH215478   2.910   5.603   1.792
 5198TIP3    H115479   2.967   5.576   1.864
 5198TIP3    H215480   2.909   5.699   1.797
 5199TIP3   OH215481   2.641   5.291   2.004
 5199TIP3    H115482   2.575   5.338   2.055
 5199TIP3    H215483   2.660   5.348   1.930
 5200TIP3   OH215484   3.805   4.926   2.879
 5200TIP3    H115485   3.883   4.970   2.913
 5200TIP3    H215486   3.795   4.849   2.935
 5201TIP3   OH215487   3.698   4.665   2.069
 5201TIP3    H115488   3.677   4.682   1.978
 5201TIP3    H215489   3.742   4.744   2.099
 5202TIP3   OH215490   3.188   5.799   1.740
 5202TIP3    H115491   3.100   5.817   1.772
 5202TIP3    H215492   3.203   5.866   1.673
 5203TIP3   OH215493   3.348   4.867   2.158
 5203TIP3    H115494   3.410   4.935   2.132
 5203TIP3    H215495   3.371   4.846   2.248
 5204TIP3   OH215496   3.646   5.162   2.928
 5204TIP3    H115497   3.670   5.202   3.012
 5204TIP3    H215498   3.695   5.079   2.927
 5205TIP3   OH215499   3.509   4.562   2.245
 5205TIP3    H115500   3.487   4.640   2.295
 5205TIP3    H215501   3.579   4.591   2.186
 5206TIP3   OH215502   2.934   5.877   1.808
 5206TIP3    H115503   2.913   5.949   1.748
 5206TIP3    H215504   2.920   5.913   1.895
 5207TIP3   OH215505   3.023   4.588   2.053
 5207TIP3    H115506   3.010   4.679   2.081
 5207TIP3    H215507   3.117   4.574   2.058
 5208TIP3   OH215508   4.258   5.049   2.915
 5208TIP3    H115509   4.165   5.064   2.930
 5208TIP3    H215510   4.260   4.983   2.845
 5209TIP3   OH215511   3.927   5.255   2.302
 5209TIP3    H115512   3.851   5.197   2.312
 5209TIP3    H215513   3.994   5.216   2.357
 5210TIP3   OH215514   2.667   5.466   1.787
 5210TIP3    H115515   2.738   5.530   1.793
 5210TIP3    H215516   2.696   5.403   1.721
 5211TIP3   OH215517   2.568   4.756   1.916
 5211TIP3    H115518   2.574   4.852   1.919
 5211TIP3    H215519   2.503   4.738   1.849
 5212TIP3   OH215520   2.974   4.482   2.789
 5212TIP3    H115521   2.943   4.449   2.704
 5212TIP3    H215522   2.964   4.407   2.848
 5213TIP3   OH215523   2.489   5.743   2.168
 5213TIP3    H115524   2.439   5.776   2.243
 5213TIP3    H215525   2.447   5.783   2.092
 5214TIP3   OH215526   2.702   6.277   3.251
 5214TIP3    H115527   2.784   6.285   3.301
 5214TIP3    H215528   2.691   6.182   3.240
 5215TIP3   OH215529   3.164   6.183   3.289
 5215TIP3    H115530   3.254   6.154   3.301
 5215TIP3    H215531   3.130   6.129   3.218
 5216TIP3   OH215532   3.123   5.783   1.411
 5216TIP3    H115533   3.074   5.713   1.454
 5216TIP3    H215534   3.196   5.738   1.368
 5217TIP3   OH215535   3.786   6.126   3.042
 5217TIP3    H115536   3.797   6.056   3.106
 5217TIP3    H215537   3.859   6.186   3.058
 5218TIP3   OH215538   3.566   5.830   1.332
 5218TIP3    H115539   3.599   5.763   1.392
 5218TIP3    H215540   3.619   5.821   1.253
 5219TIP3   OH215541   2.791   5.680   3.428
 5219TIP3    H115542   2.815   5.589   3.442
 5219TIP3    H215543   2.703   5.677   3.391
 5220TIP3   OH215544   2.791   5.279   1.632
 5220TIP3    H115545   2.841   5.253   1.709
 5220TIP3    H215546   2.856   5.291   1.563
 5221TIP3   OH215547   3.420   5.757   3.214
 5221TIP3    H115548   3.375   5.778   3.132
 5221TIP3    H215549   3.454   5.669   3.201
 5222TIP3   OH215550   3.376   5.498   1.476
 5222TIP3    H115551   3.348   5.510   1.567
 5222TIP3    H215552   3.354   5.408   1.455
 5223TIP3   OH215553   3.899   5.810   2.830
 5223TIP3    H115554   3.974   5.840   2.779
 5223TIP3    H215555   3.831   5.874   2.814
 5224TIP3   OH215556   2.911   5.430   3.443
 5224TIP3    H115557   2.987   5.407   3.389
 5224TIP3    H215558   2.948   5.445   3.530
 5225TIP3   OH215559   2.963   5.220   1.845
 5225TIP3    H115560   2.940   5.188   1.932
 5225TIP3    H215561   3.010   5.147   1.805
 5226TIP3   OH215562   3.279   5.306   3.106
 5226TIP3    H115563   3.193   5.346   3.116
 5226TIP3    H215564   3.307   5.331   3.018
 5227TIP3   OH215565   3.106   5.039   1.690
 5227TIP3    H115566   3.075   5.041   1.600
 5227TIP3    H215567   3.201   5.045   1.683
 5228TIP3   OH215568   3.772   5.679   3.175
 5228TIP3    H115569   3.845   5.642   3.124
 5228TIP3    H215570   3.769   5.626   3.254
 5229TIP3   OH215571   3.901   5.327   1.359
 5229TIP3    H115572   3.885   5.284   1.275
 5229TIP3    H215573   3.877   5.418   1.345
 5230TIP3   OH215574   3.380   5.071   3.209
 5230TIP3    H115575   3.382   5.002   3.144
 5230TIP3    H215576   3.346   5.147   3.162
 5231TIP3   OH215577   3.388   4.876   3.004
 5231TIP3    H115578   3.416   4.910   2.919
 5231TIP3    H215579   3.298   4.846   2.991
 5232TIP3   OH215580   3.386   5.394   2.873
 5232TIP3    H115581   3.476   5.424   2.861
 5232TIP3    H215582   3.333   5.456   2.823
 5233TIP3   OH215583   3.983   5.361   3.256
 5233TIP3    H115584   4.024   5.274   3.264
 5233TIP3    H215585   4.057   5.421   3.251
 5234TIP3   OH215586   4.021   5.628   2.991
 5234TIP3    H115587   3.968   5.691   2.942
 5234TIP3    H215588   4.111   5.642   2.960
 5235TIP3   OH215589   3.267   5.153   3.454
 5235TIP3    H115590   3.197   5.090   3.475
 5235TIP3    H215591   3.295   5.129   3.365
 5236TIP3   OH215592   3.510   4.645   3.110
 5236TIP3    H115593   3.469   4.725   3.076
 5236TIP3    H215594   3.445   4.577   3.097
 5237TIP3   OH215595   3.635   5.111   3.313
 5237TIP3    H115596   3.625   5.097   3.407
 5237TIP3    H215597   3.549   5.089   3.276
 5238TIP3   OH215598   3.885   5.071   3.189
 5238TIP3    H115599   3.805   5.068   3.242
 5238TIP3    H215600   3.954   5.043   3.248
 5239TIP3   OH215601   4.122   5.032   3.333
 5239TIP3    H115602   4.135   4.937   3.340
 5239TIP3    H215603   4.117   5.062   3.424
 5240TIP3   OH215604   3.100   4.934   3.518
 5240TIP3    H115605   3.106   4.846   3.480
 5240TIP3    H215606   3.139   4.926   3.604
 5241TIP3   OH215607   3.576   4.618   3.375
 5241TIP3    H115608   3.644   4.551   3.369
 5241TIP3    H215609   3.546   4.631   3.285
 5242TIP3   OH215610   3.674   4.832   3.520
 5242TIP3    H115611   3.643   4.760   3.465
 5242TIP3    H215612   3.601   4.894   3.521
 5243TIP3   OH215613   2.938   6.093   1.631
 5243TIP3    H115614   3.023   6.066   1.596
 5243TIP3    H215615   2.893   6.133   1.557
 5244TIP3   OH215616   2.394   5.469   1.806
 5244TIP3    H115617   2.489   5.479   1.801
 5244TIP3    H215618   2.376   5.384   1.766
 5245TIP3   OH215619   2.295   6.049   2.263
 5245TIP3    H115620   2.231   5.995   2.217
 5245TIP3    H215621   2.340   5.989   2.322
 5246TIP3   OH215622   2.438   5.883   2.431
 5246TIP3    H115623   2.430   5.812   2.494
 5246TIP3    H215624   2.491   5.949   2.475
 5247TIP3   OH215625   4.196   6.323   2.537
 5247TIP3    H115626   4.152   6.243   2.509
 5247TIP3    H215627   4.260   6.294   2.601
 5248TIP3   OH215628   4.249   6.021   3.090
 5248TIP3    H115629   4.176   6.028   3.152
 5248TIP3    H215630   4.295   6.104   3.098
 5249TIP3   OH215631   4.073   5.535   1.701
 5249TIP3    H115632   4.133   5.603   1.670
 5249TIP3    H215633   4.117   5.495   1.775
 5250TIP3   OH215634   4.199   5.393   1.903
 5250TIP3    H115635   4.132   5.351   1.957
 5250TIP3    H215636   4.264   5.425   1.966
 5251TIP3   OH215637   4.235   5.795   2.329
 5251TIP3    H115638   4.294   5.726   2.298
 5251TIP3    H215639   4.254   5.870   2.274
 5252TIP3   OH215640   4.044   6.089   2.500
 5252TIP3    H115641   3.981   6.132   2.558
 5252TIP3    H215642   3.991   6.060   2.425
 5253TIP3   OH215643   4.101   5.308   1.547
 5253TIP3    H115644   4.032   5.307   1.481
 5253TIP3    H215645   4.084   5.386   1.600
 5254TIP3   OH215646   3.960   4.955   1.481
 5254TIP3    H115647   3.917   4.990   1.403
 5254TIP3    H215648   3.952   4.860   1.472
 5255TIP3   OH215649   3.994   5.250   2.032
 5255TIP3    H115650   3.998   5.156   2.015
 5255TIP3    H215651   3.975   5.256   2.126
 5256TIP3   OH215652   2.612   5.319   2.816
 5256TIP3    H115653   2.601   5.282   2.729
 5256TIP3    H215654   2.706   5.312   2.834
 5257TIP3   OH215655   4.282   5.673   2.901
 5257TIP3    H115656   4.347   5.605   2.886
 5257TIP3    H215657   4.311   5.747   2.847
 5258TIP3   OH215658   4.457   5.459   2.892
 5258TIP3    H115659   4.382   5.416   2.933
 5258TIP3    H215660   4.531   5.401   2.912
 5259TIP3   OH215661   3.920   4.682   1.448
 5259TIP3    H115662   3.986   4.658   1.513
 5259TIP3    H215663   3.838   4.646   1.481
 5260TIP3   OH215664   3.989   4.976   1.922
 5260TIP3    H115665   4.033   4.892   1.936
 5260TIP3    H215666   4.030   5.011   1.843
 5261TIP3   OH215667   4.141   5.142   2.447
 5261TIP3    H115668   4.223   5.158   2.400
 5261TIP3    H215669   4.155   5.181   2.533
 5262TIP3   OH215670   4.215   5.290   2.674
 5262TIP3    H115671   4.144   5.317   2.733
 5262TIP3    H215672   4.247   5.371   2.635
 5263TIP3   OH215673   2.836   4.988   3.453
 5263TIP3    H115674   2.930   4.985   3.473
 5263TIP3    H215675   2.801   4.906   3.490
 5264TIP3   OH215676   4.678   4.890   3.213
 5264TIP3    H115677   4.743   4.832   3.174
 5264TIP3    H215678   4.641   4.938   3.140
 5265TIP3   OH215679   4.103   4.726   1.977
 5265TIP3    H115680   4.147   4.712   2.060
 5265TIP3    H215681   4.041   4.654   1.969
 5266TIP3   OH215682   2.812   4.708   2.801
 5266TIP3    H115683   2.864   4.627   2.808
 5266TIP3    H215684   2.876   4.776   2.781
 5267TIP3   OH215685   2.592   4.970   2.864
 5267TIP3    H115686   2.641   4.958   2.782
 5267TIP3    H215687   2.632   5.047   2.905
 5268TIP3   OH215688   4.527   5.005   3.017
 5268TIP3    H115689   4.449   5.043   3.056
 5268TIP3    H215690   4.494   4.934   2.962
 5269TIP3   OH215691   4.144   4.638   1.611
 5269TIP3    H115692   4.191   4.577   1.553
 5269TIP3    H215693   4.202   4.714   1.617
 5270TIP3   OH215694   2.579   4.499   2.377
 5270TIP3    H115695   2.493   4.477   2.412
 5270TIP3    H215696   2.561   4.547   2.296
 5271TIP3   OH215697   3.827   6.197   1.912
 5271TIP3    H115698   3.836   6.167   1.822
 5271TIP3    H215699   3.747   6.250   1.911
 5272TIP3   OH215700   2.806   4.545   3.197
 5272TIP3    H115701   2.752   4.532   3.275
 5272TIP3    H215702   2.749   4.590   3.135
 5273TIP3   OH215703   2.829   5.997   3.261
 5273TIP3    H115704   2.737   5.972   3.252
 5273TIP3    H215705   2.848   5.986   3.354
 5274TIP3   OH215706   3.042   6.042   2.813
 5274TIP3    H115707   2.991   6.117   2.782
 5274TIP3    H215708   3.127   6.051   2.769
 5275TIP3   OH215709   3.442   6.277   2.952
 5275TIP3    H115710   3.478   6.266   3.040
 5275TIP3    H215711   3.508   6.330   2.906
 5276TIP3   OH215712   3.641   6.426   2.828
 5276TIP3    H115713   3.707   6.366   2.792
 5276TIP3    H215714   3.691   6.487   2.881
 5277TIP3   OH215715   4.440   4.747   2.915
 5277TIP3    H115716   4.350   4.731   2.885
 5277TIP3    H215717   4.483   4.662   2.909
 5278TIP3   OH215718   2.707   6.281   2.863
 5278TIP3    H115719   2.616   6.297   2.839
 5278TIP3    H215720   2.727   6.347   2.929
 5279TIP3   OH215721   2.936   6.276   2.711
 5279TIP3    H115722   2.854   6.279   2.761
 5279TIP3    H215723   2.910   6.300   2.622
 5280TIP3   OH215724   3.350   6.291   2.494
 5280TIP3    H115725   3.266   6.303   2.449
 5280TIP3    H215726   3.362   6.372   2.543
 5281TIP3   OH215727   3.617   6.230   2.534
 5281TIP3    H115728   3.524   6.249   2.522
 5281TIP3    H215729   3.661   6.305   2.493
 5282TIP3   OH215730   3.807   6.416   2.435
 5282TIP3    H115731   3.802   6.510   2.415
 5282TIP3    H215732   3.843   6.377   2.356
 5283TIP3   OH215733   2.611   6.058   2.578
 5283TIP3    H115734   2.638   6.036   2.667
 5283TIP3    H215735   2.683   6.026   2.523
 5284TIP3   OH215736   2.816   5.949   2.436
 5284TIP3    H115737   2.828   5.864   2.480
 5284TIP3    H215738   2.903   5.990   2.439
 5285TIP3   OH215739   3.087   6.034   2.460
 5285TIP3    H115740   3.104   5.942   2.444
 5285TIP3    H215741   3.139   6.055   2.537
 5286TIP3   OH215742   3.647   4.677   2.550
 5286TIP3    H115743   3.607   4.606   2.600
 5286TIP3    H215744   3.715   4.634   2.498
 5287TIP3   OH215745   4.148   4.601   2.441
 5287TIP3    H115746   4.181   4.650   2.365
 5287TIP3    H215747   4.054   4.614   2.438
 5288TIP3   OH215748   4.260   4.677   2.200
 5288TIP3    H115749   4.328   4.615   2.174
 5288TIP3    H215750   4.298   4.763   2.186
 5289TIP3   OH215751   2.883   4.382   2.548
 5289TIP3    H115752   2.793   4.348   2.556
 5289TIP3    H215753   2.937   4.303   2.538
 5290TIP3   OH215754   2.713   4.301   2.211
 5290TIP3    H115755   2.734   4.345   2.129
 5290TIP3    H215756   2.674   4.369   2.266
 5291TIP3   OH215757   3.366   4.420   2.443
 5291TIP3    H115758   3.414   4.465   2.374
 5291TIP3    H215759   3.409   4.447   2.524
 5292TIP3   OH215760   3.863   4.560   2.419
 5292TIP3    H115761   3.873   4.523   2.331
 5292TIP3    H215762   3.869   4.485   2.477
 5293TIP3   OH215763   3.919   4.515   1.984
 5293TIP3    H115764   3.839   4.561   2.009
 5293TIP3    H215765   3.909   4.427   2.022
 5294TIP3   OH215766   2.373   5.861   1.947
 5294TIP3    H115767   2.289   5.835   1.910
 5294TIP3    H215768   2.382   5.954   1.924
 5295TIP3   OH215769   2.815   4.418   1.966
 5295TIP3    H115770   2.861   4.353   1.911
 5295TIP3    H215771   2.885   4.473   2.000
 5296TIP3   OH215772   3.298   4.616   2.058
 5296TIP3    H115773   3.354   4.560   2.111
 5296TIP3    H215774   3.316   4.705   2.089
 5297TIP3   OH215775   3.186   6.007   1.550
 5297TIP3    H115776   3.269   6.035   1.511
 5297TIP3    H215777   3.155   5.936   1.494
 5298TIP3   OH215778   3.889   6.134   1.653
 5298TIP3    H115779   3.881   6.039   1.643
 5298TIP3    H215780   3.843   6.170   1.577
 5299TIP3   OH215781   3.116   4.666   3.429
 5299TIP3    H115782   3.081   4.599   3.488
 5299TIP3    H215783   3.208   4.673   3.454
 5300TIP3   OH215784   3.363   4.671   3.552
 5300TIP3    H115785   3.439   4.649   3.499
 5300TIP3    H215786   3.357   4.601   3.617
 5301TIP3   OH215787   2.491   5.847   1.609
 5301TIP3    H115788   2.487   5.852   1.705
 5301TIP3    H215789   2.573   5.800   1.591
 5302TIP3   OH215790   4.183   4.760   3.338
 5302TIP3    H115791   4.200   4.730   3.428
 5302TIP3    H215792   4.269   4.755   3.295
 5303TIP3   OH215793   4.099   6.290   2.842
 5303TIP3    H115794   4.026   6.262   2.786
 5303TIP3    H215795   4.087   6.385   2.851
 5304TIP3   OH215796   5.379   5.686   1.583
 5304TIP3    H115797   5.347   5.771   1.553
 5304TIP3    H215798   5.308   5.625   1.565
 5305TIP3   OH215799   5.377   5.674   2.009
 5305TIP3    H115800   5.432   5.654   2.085
 5305TIP3    H215801   5.332   5.592   1.990
 5306TIP3   OH215802   4.670   5.531   2.352
 5306TIP3    H115803   4.708   5.480   2.423
 5306TIP3    H215804   4.744   5.555   2.296
 5307TIP3   OH215805   5.644   5.979   1.678
 5307TIP3    H115806   5.632   5.910   1.744
 5307TIP3    H215807   5.665   6.057   1.730
 5308TIP3   OH215808   4.656   5.952   2.034
 5308TIP3    H115809   4.644   5.857   2.037
 5308TIP3    H215810   4.751   5.964   2.034
 5309TIP3   OH215811   4.349   5.168   1.816
 5309TIP3    H115812   4.308   5.250   1.841
 5309TIP3    H215813   4.278   5.116   1.778
 5310TIP3   OH215814   4.428   5.474   2.049
 5310TIP3    H115815   4.476   5.395   2.075
 5310TIP3    H215816   4.496   5.535   2.021
 5311TIP3   OH215817   5.299   6.401   1.704
 5311TIP3    H115818   5.333   6.337   1.642
 5311TIP3    H215819   5.309   6.359   1.789
 5312TIP3   OH215820   5.182   5.896   2.010
 5312TIP3    H115821   5.227   5.816   1.984
 5312TIP3    H215822   5.252   5.953   2.042
 5313TIP3   OH215823   6.221   5.210   2.026
 5313TIP3    H115824   6.236   5.296   2.066
 5313TIP3    H215825   6.247   5.222   1.935
 5314TIP3   OH215826   5.591   5.380   2.046
 5314TIP3    H115827   5.623   5.294   2.075
 5314TIP3    H215828   5.554   5.364   1.959
 5315TIP3   OH215829   4.947   5.038   2.003
 5315TIP3    H115830   4.924   5.111   1.945
 5315TIP3    H215831   4.892   4.966   1.974
 5316TIP3   OH215832   5.642   5.138   1.644
 5316TIP3    H115833   5.705   5.133   1.716
 5316TIP3    H215834   5.693   5.172   1.570
 5317TIP3   OH215835   4.570   5.253   2.135
 5317TIP3    H115836   4.653   5.233   2.178
 5317TIP3    H215837   4.571   5.201   2.054
 5318TIP3   OH215838   4.986   5.456   1.952
 5318TIP3    H115839   5.080   5.440   1.958
 5318TIP3    H215840   4.951   5.373   1.919
 5319TIP3   OH215841   6.275   5.432   2.193
 5319TIP3    H115842   6.186   5.467   2.188
 5319TIP3    H215843   6.308   5.460   2.278
 5320TIP3   OH215844   4.926   5.043   2.456
 5320TIP3    H115845   4.875   5.077   2.383
 5320TIP3    H215846   4.870   5.057   2.533
 5321TIP3   OH215847   5.277   5.901   1.438
 5321TIP3    H115848   5.235   5.869   1.358
 5321TIP3    H215849   5.222   5.974   1.466
 5322TIP3   OH215850   5.017   5.819   2.219
 5322TIP3    H115851   4.964   5.891   2.254
 5322TIP3    H215852   5.066   5.858   2.148
 5323TIP3   OH215853   5.798   5.168   1.866
 5323TIP3    H115854   5.758   5.143   1.949
 5323TIP3    H215855   5.855   5.242   1.888
 5324TIP3   OH215856   4.819   5.150   2.224
 5324TIP3    H115857   4.874   5.224   2.248
 5324TIP3    H215858   4.866   5.107   2.153
 5325TIP3   OH215859   4.862   6.023   2.325
 5325TIP3    H115860   4.849   6.114   2.299
 5325TIP3    H215861   4.784   6.003   2.378
 5326TIP3   OH215862   4.244   5.720   1.573
 5326TIP3    H115863   4.208   5.729   1.485
 5326TIP3    H215864   4.279   5.806   1.594
 5327TIP3   OH215865   5.680   6.220   1.825
 5327TIP3    H115866   5.592   6.215   1.862
 5327TIP3    H215867   5.682   6.304   1.780
 5328TIP3   OH215868   6.025   5.103   2.201
 5328TIP3    H115869   5.939   5.121   2.165
 5328TIP3    H215870   6.086   5.128   2.132
 5329TIP3   OH215871   5.268   4.734   2.189
 5329TIP3    H115872   5.262   4.642   2.214
 5329TIP3    H215873   5.191   4.775   2.228
 5330TIP3   OH215874   5.396   6.252   1.492
 5330TIP3    H115875   5.449   6.174   1.477
 5330TIP3    H215876   5.455   6.325   1.473
 5331TIP3   OH215877   5.531   6.021   1.431
 5331TIP3    H115878   5.455   5.962   1.431
 5331TIP3    H215879   5.580   5.997   1.510
 5332TIP3   OH215880   5.928   6.106   2.164
 5332TIP3    H115881   5.901   6.034   2.107
 5332TIP3    H215882   5.912   6.185   2.111
 5333TIP3   OH215883   5.196   5.520   1.454
 5333TIP3    H115884   5.115   5.563   1.425
 5333TIP3    H215885   5.247   5.510   1.374
 5334TIP3   OH215886   5.175   5.315   1.133
 5334TIP3    H115887   5.239   5.362   1.186
 5334TIP3    H215888   5.228   5.253   1.082
 5335TIP3   OH215889   6.095   5.780   2.033
 5335TIP3    H115890   6.009   5.820   2.029
 5335TIP3    H215891   6.131   5.788   1.945
 5336TIP3   OH215892   5.569   5.607   1.404
 5336TIP3    H115893   5.516   5.637   1.478
 5336TIP3    H215894   5.651   5.577   1.445
 5337TIP3   OH215895   5.795   5.635   2.343
 5337TIP3    H115896   5.788   5.717   2.391
 5337TIP3    H215897   5.714   5.630   2.293
 5338TIP3   OH215898   4.795   5.589   1.793
 5338TIP3    H115899   4.758   5.526   1.731
 5338TIP3    H215900   4.866   5.542   1.836
 5339TIP3   OH215901   4.925   6.011   1.944
 5339TIP3    H115902   4.903   5.996   1.852
 5339TIP3    H215903   5.013   5.973   1.955
 5340TIP3   OH215904   4.882   5.583   2.175
 5340TIP3    H115905   4.923   5.545   2.097
 5340TIP3    H215906   4.932   5.663   2.191
 5341TIP3   OH215907   5.437   6.224   1.949
 5341TIP3    H115908   5.427   6.304   2.001
 5341TIP3    H215909   5.423   6.153   2.011
 5342TIP3   OH215910   5.062   6.118   2.495
 5342TIP3    H115911   5.001   6.174   2.543
 5342TIP3    H215912   5.006   6.066   2.437
 5343TIP3   OH215913   5.381   5.469   1.258
 5343TIP3    H115914   5.448   5.525   1.298
 5343TIP3    H215915   5.400   5.473   1.164
 5344TIP3   OH215916   4.817   5.669   2.638
 5344TIP3    H115917   4.821   5.762   2.658
 5344TIP3    H215918   4.724   5.649   2.633
 5345TIP3   OH215919   5.140   6.136   1.489
 5345TIP3    H115920   5.219   6.187   1.506
 5345TIP3    H215921   5.078   6.199   1.451
 5346TIP3   OH215922   4.850   6.273   2.584
 5346TIP3    H115923   4.823   6.285   2.493
 5346TIP3    H215924   4.767   6.261   2.632
 5347TIP3   OH215925   5.900   4.691   1.284
 5347TIP3    H115926   5.824   4.713   1.337
 5347TIP3    H215927   5.912   4.765   1.224
 5348TIP3   OH215928   4.671   5.424   1.598
 5348TIP3    H115929   4.589   5.466   1.569
 5348TIP3    H215930   4.647   5.333   1.613
 5349TIP3   OH215931   5.795   6.103   0.979
 5349TIP3    H115932   5.761   6.186   0.947
 5349TIP3    H215933   5.742   6.036   0.935
 5350TIP3   OH215934   4.448   5.833   2.528
 5350TIP3    H115935   4.376   5.809   2.469
 5350TIP3    H215936   4.483   5.749   2.557
 5351TIP3   OH215937   4.339   6.016   2.174
 5351TIP3    H115938   4.415   5.984   2.125
 5351TIP3    H215939   4.374   6.082   2.233
 5352TIP3   OH215940   6.141   6.490   2.233
 5352TIP3    H115941   6.152   6.395   2.237
 5352TIP3    H215942   6.060   6.507   2.281
 5353TIP3   OH215943   5.250   6.265   2.357
 5353TIP3    H115944   5.241   6.356   2.387
 5353TIP3    H215945   5.183   6.217   2.406
 5354TIP3   OH215946   5.009   6.350   1.329
 5354TIP3    H115947   4.960   6.333   1.249
 5354TIP3    H215948   4.981   6.438   1.356
 5355TIP3   OH215949   4.447   6.216   1.700
 5355TIP3    H115950   4.496   6.205   1.781
 5355TIP3    H215951   4.399   6.134   1.690
 5356TIP3   OH215952   5.200   6.312   0.989
 5356TIP3    H115953   5.236   6.226   0.969
 5356TIP3    H215954   5.233   6.332   1.077
 5357TIP3   OH215955   5.269   6.329   1.255
 5357TIP3    H115956   5.180   6.331   1.288
 5357TIP3    H215957   5.320   6.284   1.322
 5358TIP3   OH215958   6.041   5.592   2.501
 5358TIP3    H115959   5.957   5.601   2.456
 5358TIP3    H215960   6.061   5.498   2.497
 5359TIP3   OH215961   4.642   6.025   2.495
 5359TIP3    H115962   4.694   6.015   2.575
 5359TIP3    H215963   4.572   5.960   2.503
 5360TIP3   OH215964   5.031   4.826   2.313
 5360TIP3    H115965   4.947   4.790   2.283
 5360TIP3    H215966   5.007   4.906   2.361
 5361TIP3   OH215967   5.568   4.954   2.515
 5361TIP3    H115968   5.636   4.926   2.575
 5361TIP3    H215969   5.486   4.936   2.561
 5362TIP3   OH215970   5.799   5.370   2.436
 5362TIP3    H115971   5.758   5.366   2.522
 5362TIP3    H215972   5.782   5.459   2.405
 5363TIP3   OH215973   5.430   5.450   0.996
 5363TIP3    H115974   5.392   5.431   0.911
 5363TIP3    H215975   5.515   5.489   0.976
 5364TIP3   OH215976   5.182   4.870   1.280
 5364TIP3    H115977   5.146   4.879   1.368
 5364TIP3    H215978   5.146   4.787   1.247
 5365TIP3   OH215979   4.967   5.362   2.323
 5365TIP3    H115980   4.922   5.367   2.407
 5365TIP3    H215981   4.945   5.443   2.279
 5366TIP3   OH215982   4.847   5.240   1.845
 5366TIP3    H115983   4.758   5.214   1.870
 5366TIP3    H215984   4.857   5.207   1.755
 5367TIP3   OH215985   5.328   5.312   1.577
 5367TIP3    H115986   5.279   5.385   1.539
 5367TIP3    H215987   5.384   5.281   1.506
 5368TIP3   OH215988   5.512   5.579   2.644
 5368TIP3    H115989   5.486   5.510   2.705
 5368TIP3    H215990   5.604   5.595   2.664
 5369TIP3   OH215991   5.500   5.328   1.794
 5369TIP3    H115992   5.430   5.345   1.731
 5369TIP3    H215993   5.548   5.253   1.757
 5370TIP3   OH215994   4.805   5.375   2.545
 5370TIP3    H115995   4.819   5.437   2.616
 5370TIP3    H215996   4.787   5.292   2.588
 5371TIP3   OH215997   4.848   4.851   1.260
 5371TIP3    H115998   4.838   4.852   1.355
 5371TIP3    H215999   4.768   4.894   1.227
 5372TIP3   OH216000   4.394   4.896   2.120
 5372TIP3    H116001   4.470   4.928   2.169
 5372TIP3    H216002   4.430   4.869   2.036
 5373TIP3   OH216003   4.301   4.869   1.628
 5373TIP3    H116004   4.345   4.902   1.550
 5373TIP3    H216005   4.236   4.937   1.649
 5374TIP3   OH216006   5.545   5.583   2.219
 5374TIP3    H116007   5.569   5.515   2.155
 5374TIP3    H216008   5.501   5.535   2.289
 5375TIP3   OH216009   5.217   5.029   1.896
 5375TIP3    H116010   5.139   5.026   1.951
 5375TIP3    H216011   5.290   5.017   1.958
 5376TIP3   OH216012   4.608   5.114   1.901
 5376TIP3    H116013   4.520   5.118   1.863
 5376TIP3    H216014   4.635   5.023   1.888
 5377TIP3   OH216015   4.861   5.120   1.598
 5377TIP3    H116016   4.956   5.127   1.588
 5377TIP3    H216017   4.827   5.135   1.510
 5378TIP3   OH216018   5.658   5.117   2.106
 5378TIP3    H116019   5.639   5.135   2.198
 5378TIP3    H216020   5.592   5.054   2.079
 5379TIP3   OH216021   4.749   5.144   1.349
 5379TIP3    H116022   4.686   5.093   1.299
 5379TIP3    H216023   4.803   5.187   1.283
 5380TIP3   OH216024   5.862   6.826   2.322
 5380TIP3    H116025   5.857   6.842   2.228
 5380TIP3    H216026   5.940   6.872   2.351
 5381TIP3   OH216027   4.801   5.937   2.728
 5381TIP3    H116028   4.881   5.955   2.777
 5381TIP3    H216029   4.731   5.945   2.793
 5382TIP3   OH216030   5.261   5.406   2.001
 5382TIP3    H116031   5.324   5.353   1.953
 5382TIP3    H216032   5.257   5.366   2.088
 5383TIP3   OH216033   4.752   4.864   1.891
 5383TIP3    H116034   4.724   4.790   1.945
 5383TIP3    H216035   4.774   4.826   1.806
 5384TIP3   OH216036   5.234   5.309   2.263
 5384TIP3    H116037   5.147   5.338   2.290
 5384TIP3    H216038   5.294   5.359   2.318
 5385TIP3   OH216039   4.971   5.658   1.366
 5385TIP3    H116040   4.898   5.601   1.344
 5385TIP3    H216041   4.944   5.700   1.448
 5386TIP3   OH216042   5.855   5.908   1.987
 5386TIP3    H116043   5.891   5.956   1.913
 5386TIP3    H216044   5.776   5.866   1.952
 5387TIP3   OH216045   5.437   4.969   1.284
 5387TIP3    H116046   5.344   4.946   1.280
 5387TIP3    H216047   5.438   5.064   1.297
 5388TIP3   OH216048   5.384   5.999   2.398
 5388TIP3    H116049   5.432   5.983   2.479
 5388TIP3    H216050   5.341   6.083   2.412
 5389TIP3   OH216051   5.492   5.233   1.361
 5389TIP3    H116052   5.587   5.235   1.368
 5389TIP3    H216053   5.470   5.311   1.310
 5390TIP3   OH216054   4.657   5.668   2.021
 5390TIP3    H116055   4.697   5.649   1.936
 5390TIP3    H216056   4.720   5.637   2.086
 5391TIP3   OH216057   5.131   5.814   1.207
 5391TIP3    H116058   5.081   5.895   1.210
 5391TIP3    H216059   5.078   5.751   1.257
 5392TIP3   OH216060   4.543   5.605   2.664
 5392TIP3    H116061   4.548   5.580   2.756
 5392TIP3    H216062   4.468   5.556   2.630
 5393TIP3   OH216063   5.283   5.737   2.682
 5393TIP3    H116064   5.212   5.677   2.658
 5393TIP3    H216065   5.363   5.693   2.654
 5394TIP3   OH216066   5.523   6.286   2.283
 5394TIP3    H116067   5.428   6.270   2.286
 5394TIP3    H216068   5.544   6.319   2.370
 5395TIP3   OH216069   5.917   5.318   1.186
 5395TIP3    H116070   5.850   5.276   1.133
 5395TIP3    H216071   5.919   5.409   1.154
 5396TIP3   OH216072   6.170   6.218   2.245
 5396TIP3    H116073   6.080   6.187   2.254
 5396TIP3    H216074   6.200   6.179   2.163
 5397TIP3   OH216075   5.585   6.132   1.180
 5397TIP3    H116076   5.566   6.082   1.259
 5397TIP3    H216077   5.650   6.080   1.134
 5398TIP3   OH216078   5.629   5.774   1.878
 5398TIP3    H116079   5.540   5.753   1.905
 5398TIP3    H216080   5.664   5.693   1.843
 5399TIP3   OH216081   4.787   6.010   1.700
 5399TIP3    H116082   4.779   6.088   1.644
 5399TIP3    H216083   4.700   5.997   1.735
 5400TIP3   OH216084   4.341   5.287   1.413
 5400TIP3    H116085   4.387   5.368   1.436
 5400TIP3    H216086   4.260   5.290   1.463
 5401TIP3   OH216087   4.866   5.769   1.590
 5401TIP3    H116088   4.854   5.857   1.625
 5401TIP3    H216089   4.845   5.711   1.662
 5402TIP3   OH216090   5.067   6.337   2.150
 5402TIP3    H116091   5.103   6.410   2.101
 5402TIP3    H216092   5.140   6.303   2.202
 5403TIP3   OH216093   4.690   6.233   1.560
 5403TIP3    H116094   4.602   6.242   1.596
 5403TIP3    H216095   4.727   6.322   1.564
 5404TIP3   OH216096   5.415   6.003   2.123
 5404TIP3    H116097   5.405   6.001   2.218
 5404TIP3    H216098   5.487   5.942   2.105
 5405TIP3   OH216099   5.363   5.843   1.050
 5405TIP3    H116100   5.443   5.825   1.100
 5405TIP3    H216101   5.292   5.820   1.110
 5406TIP3   OH216102   5.678   6.489   2.165
 5406TIP3    H116103   5.609   6.427   2.188
 5406TIP3    H216104   5.640   6.542   2.095
 5407TIP3   OH216105   5.726   6.349   0.870
 5407TIP3    H116106   5.798   6.392   0.824
 5407TIP3    H216107   5.671   6.421   0.902
 5408TIP3   OH216108   4.752   5.122   2.660
 5408TIP3    H116109   4.656   5.131   2.665
 5408TIP3    H216110   4.774   5.069   2.736
 5409TIP3   OH216111   5.584   5.787   1.198
 5409TIP3    H116112   5.575   5.728   1.273
 5409TIP3    H216113   5.679   5.799   1.189
 5410TIP3   OH216114   4.481   6.213   2.319
 5410TIP3    H116115   4.539   6.158   2.372
 5410TIP3    H216116   4.479   6.297   2.364
 5411TIP3   OH216117   4.754   5.839   1.019
 5411TIP3    H116118   4.774   5.751   0.989
 5411TIP3    H216119   4.744   5.831   1.113
 5412TIP3   OH216120   4.707   5.850   1.292
 5412TIP3    H116121   4.770   5.820   1.358
 5412TIP3    H216122   4.708   5.946   1.299
 5413TIP3   OH216123   4.441   5.538   1.490
 5413TIP3    H116124   4.374   5.585   1.541
 5413TIP3    H216125   4.461   5.596   1.417
 5414TIP3   OH216126   5.602   5.184   2.367
 5414TIP3    H116127   5.681   5.225   2.401
 5414TIP3    H216128   5.591   5.106   2.422
 5415TIP3   OH216129   5.492   4.922   1.554
 5415TIP3    H116130   5.473   4.940   1.462
 5415TIP3    H216131   5.536   5.001   1.585
 5416TIP3   OH216132   4.978   6.036   1.224
 5416TIP3    H116133   4.896   6.055   1.270
 5416TIP3    H216134   4.995   6.115   1.172
 5417TIP3   OH216135   5.141   5.122   1.647
 5417TIP3    H116136   5.204   5.190   1.621
 5417TIP3    H216137   5.165   5.100   1.736
 5418TIP3   OH216138   5.443   5.418   2.414
 5418TIP3    H116139   5.466   5.458   2.498
 5418TIP3    H216140   5.491   5.336   2.413
 5419TIP3   OH216141   5.306   4.818   1.730
 5419TIP3    H116142   5.284   4.895   1.782
 5419TIP3    H216143   5.376   4.847   1.671
 5420TIP3   OH216144   4.729   6.121   1.314
 5420TIP3    H116145   4.698   6.187   1.252
 5420TIP3    H216146   4.717   6.160   1.400
 5421TIP3   OH216147   4.820   4.844   1.538
 5421TIP3    H116148   4.807   4.934   1.569
 5421TIP3    H216149   4.914   4.830   1.544
 5422TIP3   OH216150   6.064   5.316   2.414
 5422TIP3    H116151   5.969   5.324   2.427
 5422TIP3    H216152   6.073   5.256   2.340
 5423TIP3   OH216153   5.721   5.517   1.795
 5423TIP3    H116154   5.645   5.460   1.805
 5423TIP3    H216155   5.788   5.478   1.851
 5424TIP3   OH216156   4.463   5.722   1.278
 5424TIP3    H116157   4.536   5.782   1.288
 5424TIP3    H216158   4.492   5.658   1.212
 5425TIP3   OH216159   4.363   5.008   1.402
 5425TIP3    H116160   4.367   5.104   1.405
 5425TIP3    H216161   4.295   4.990   1.337
 5426TIP3   OH216162   5.701   6.483   1.742
 5426TIP3    H116163   5.650   6.543   1.687
 5426TIP3    H216164   5.792   6.507   1.724
 5427TIP3   OH216165   4.770   4.738   2.276
 5427TIP3    H116166   4.740   4.704   2.192
 5427TIP3    H216167   4.761   4.663   2.336
 5428TIP3   OH216168   4.258   6.011   1.653
 5428TIP3    H116169   4.178   5.969   1.685
 5428TIP3    H216170   4.236   6.041   1.565
 5429TIP3   OH216171   4.498   6.535   2.735
 5429TIP3    H116172   4.579   6.540   2.785
 5429TIP3    H216173   4.483   6.441   2.724
 5430TIP3   OH216174   4.960   6.438   2.776
 5430TIP3    H116175   5.051   6.409   2.787
 5430TIP3    H216176   4.925   6.384   2.705
 5431TIP3   OH216177   4.923   6.030   0.917
 5431TIP3    H116178   4.868   5.967   0.963
 5431TIP3    H216179   5.000   5.980   0.889
 5432TIP3   OH216180   5.581   6.379   2.534
 5432TIP3    H116181   5.595   6.309   2.598
 5432TIP3    H216182   5.652   6.441   2.549
 5433TIP3   OH216183   5.303   6.075   0.921
 5433TIP3    H116184   5.323   6.001   0.978
 5433TIP3    H216185   5.385   6.093   0.875
 5434TIP3   OH216186   4.595   5.935   2.917
 5434TIP3    H116187   4.618   5.843   2.931
 5434TIP3    H216188   4.506   5.931   2.882
 5435TIP3   OH216189   4.585   5.533   1.124
 5435TIP3    H116190   4.634   5.506   1.202
 5435TIP3    H216191   4.652   5.548   1.057
 5436TIP3   OH216192   5.218   6.014   2.699
 5436TIP3    H116193   5.172   6.034   2.617
 5436TIP3    H216194   5.252   5.925   2.686
 5437TIP3   OH216195   5.077   5.757   0.933
 5437TIP3    H116196   5.094   5.770   1.026
 5437TIP3    H216197   5.080   5.662   0.921
 5438TIP3   OH216198   5.698   6.064   2.320
 5438TIP3    H116199   5.775   6.091   2.269
 5438TIP3    H216200   5.632   6.130   2.301
 5439TIP3   OH216201   4.712   5.683   2.930
 5439TIP3    H116202   4.790   5.657   2.880
 5439TIP3    H216203   4.745   5.698   3.018
 5440TIP3   OH216204   4.763   5.478   1.333
 5440TIP3    H116205   4.743   5.447   1.421
 5440TIP3    H216206   4.809   5.405   1.292
 5441TIP3   OH216207   5.075   5.562   2.591
 5441TIP3    H116208   4.989   5.603   2.601
 5441TIP3    H216209   5.104   5.588   2.504
 5442TIP3   OH216210   4.901   5.294   1.176
 5442TIP3    H116211   4.874   5.300   1.085
 5442TIP3    H216212   4.997   5.295   1.173
 5443TIP3   OH216213   5.572   5.934   2.664
 5443TIP3    H116214   5.642   5.895   2.611
 5443TIP3    H216215   5.568   5.880   2.743
 5444TIP3   OH216216   5.659   5.574   0.919
 5444TIP3    H116217   5.644   5.550   0.827
 5444TIP3    H216218   5.657   5.669   0.919
 5445TIP3   OH216219   5.177   5.329   2.696
 5445TIP3    H116220   5.179   5.259   2.631
 5445TIP3    H216221   5.142   5.405   2.649
 5446TIP3   OH216222   5.184   5.132   2.491
 5446TIP3    H116223   5.211   5.167   2.406
 5446TIP3    H216224   5.094   5.103   2.478
 5447TIP3   OH216225   5.183   5.650   2.359
 5447TIP3    H116226   5.273   5.681   2.347
 5447TIP3    H216227   5.130   5.713   2.310
 5448TIP3   OH216228   5.780   5.616   2.742
 5448TIP3    H116229   5.816   5.527   2.751
 5448TIP3    H216230   5.857   5.672   2.735
 5449TIP3   OH216231   5.812   5.880   2.485
 5449TIP3    H116232   5.761   5.944   2.435
 5449TIP3    H216233   5.902   5.892   2.454
 5450TIP3   OH216234   5.063   5.411   2.940
 5450TIP3    H116235   4.993   5.349   2.962
 5450TIP3    H216236   5.091   5.385   2.852
 5451TIP3   OH216237   5.305   4.901   2.596
 5451TIP3    H116238   5.263   4.981   2.563
 5451TIP3    H216239   5.240   4.833   2.584
 5452TIP3   OH216240   5.433   5.367   2.799
 5452TIP3    H116241   5.423   5.353   2.893
 5452TIP3    H216242   5.347   5.345   2.762
 5453TIP3   OH216243   5.684   5.329   2.676
 5453TIP3    H116244   5.604   5.324   2.728
 5453TIP3    H216245   5.753   5.298   2.735
 5454TIP3   OH216246   5.924   5.287   2.820
 5454TIP3    H116247   5.932   5.192   2.829
 5454TIP3    H216248   5.915   5.319   2.910
 5455TIP3   OH216249   4.895   5.191   3.003
 5455TIP3    H116250   4.901   5.103   2.968
 5455TIP3    H216251   4.934   5.185   3.090
 5456TIP3   OH216252   5.371   4.876   2.862
 5456TIP3    H116253   5.438   4.807   2.856
 5456TIP3    H216254   5.341   4.888   2.772
 5457TIP3   OH216255   5.470   5.090   3.005
 5457TIP3    H116256   5.439   5.017   2.951
 5457TIP3    H216257   5.397   5.152   3.007
 5458TIP3   OH216258   4.684   6.323   1.134
 5458TIP3    H116259   4.777   6.315   1.109
 5458TIP3    H216260   4.641   6.353   1.055
 5459TIP3   OH216261   4.190   5.724   1.291
 5459TIP3    H116262   4.286   5.733   1.285
 5459TIP3    H216263   4.172   5.639   1.250
 5460TIP3   OH216264   4.102   6.283   1.740
 5460TIP3    H116265   4.033   6.233   1.696
 5460TIP3    H216266   4.173   6.220   1.751
 5461TIP3   OH216267   4.142   6.212   2.051
 5461TIP3    H116268   4.166   6.128   2.090
 5461TIP3    H216269   4.225   6.262   2.048
 5462TIP3   OH216270   5.963   6.565   1.729
 5462TIP3    H116271   5.988   6.582   1.820
 5462TIP3    H216272   6.039   6.593   1.678
 5463TIP3   OH216273   5.990   6.571   2.006
 5463TIP3    H116274   5.939   6.490   1.998
 5463TIP3    H216275   6.055   6.552   2.074
 5464TIP3   OH216276   6.047   6.280   2.571
 5464TIP3    H116277   5.975   6.285   2.634
 5464TIP3    H216278   6.094   6.363   2.581
 5465TIP3   OH216279   5.863   5.792   1.195
 5465TIP3    H116280   5.918   5.868   1.176
 5465TIP3    H216281   5.903   5.751   1.271
 5466TIP3   OH216282   5.988   5.645   1.391
 5466TIP3    H116283   5.924   5.602   1.447
 5466TIP3    H216284   6.055   5.678   1.452
 5467TIP3   OH216285   6.041   6.042   1.829
 5467TIP3    H116286   6.093   5.972   1.791
 5467TIP3    H216287   6.043   6.112   1.764
 5468TIP3   OH216288   5.852   6.330   2.017
 5468TIP3    H116289   5.785   6.375   2.069
 5468TIP3    H216290   5.802   6.288   1.946
 5469TIP3   OH216291   5.897   5.560   1.058
 5469TIP3    H116292   5.816   5.548   1.008
 5469TIP3    H216293   5.881   5.639   1.110
 5470TIP3   OH216294   5.730   5.232   1.012
 5470TIP3    H116295   5.735   5.274   0.925
 5470TIP3    H216296   5.717   5.139   0.993
 5471TIP3   OH216297   5.795   5.501   1.529
 5471TIP3    H116298   5.797   5.406   1.514
 5471TIP3    H216299   5.776   5.510   1.622
 5472TIP3   OH216300   4.409   5.584   2.299
 5472TIP3    H116301   4.398   5.544   2.213
 5472TIP3    H216302   4.502   5.574   2.320
 5473TIP3   OH216303   6.067   5.921   2.380
 5473TIP3    H116304   6.137   5.856   2.366
 5473TIP3    H216305   6.056   5.962   2.294
 5474TIP3   OH216306   6.254   5.713   2.377
 5474TIP3    H116307   6.179   5.674   2.422
 5474TIP3    H216308   6.327   5.655   2.397
 5475TIP3   OH216309   5.730   4.962   0.951
 5475TIP3    H116310   5.791   4.923   1.013
 5475TIP3    H216311   5.646   4.919   0.969
 5476TIP3   OH216312   5.787   5.228   1.419
 5476TIP3    H116313   5.830   5.143   1.432
 5476TIP3    H216314   5.831   5.266   1.343
 5477TIP3   OH216315   5.937   5.399   1.937
 5477TIP3    H116316   6.018   5.416   1.889
 5477TIP3    H216317   5.953   5.438   2.023
 5478TIP3   OH216318   6.015   5.547   2.165
 5478TIP3    H116319   5.943   5.574   2.221
 5478TIP3    H216320   6.045   5.628   2.123
 5479TIP3   OH216321   4.631   5.249   2.939
 5479TIP3    H116322   4.725   5.246   2.959
 5479TIP3    H216323   4.596   5.168   2.976
 5480TIP3   OH216324   5.899   4.979   1.469
 5480TIP3    H116325   5.942   4.963   1.553
 5480TIP3    H216326   5.837   4.907   1.460
 5481TIP3   OH216327   4.609   4.964   2.285
 5481TIP3    H116328   4.661   4.884   2.294
 5481TIP3    H216329   4.674   5.032   2.267
 5482TIP3   OH216330   4.389   5.223   2.353
 5482TIP3    H116331   4.438   5.217   2.271
 5482TIP3    H216332   4.437   5.289   2.404
 5483TIP3   OH216333   6.329   5.252   2.510
 5483TIP3    H116334   6.249   5.294   2.540
 5483TIP3    H216335   6.300   5.177   2.458
 5484TIP3   OH216336   5.948   4.888   1.099
 5484TIP3    H116337   5.990   4.827   1.040
 5484TIP3    H216338   6.011   4.961   1.107
 5485TIP3   OH216339   4.376   4.748   1.861
 5485TIP3    H116340   4.290   4.729   1.899
 5485TIP3    H216341   4.356   4.797   1.781
 5486TIP3   OH216342   5.534   6.474   1.410
 5486TIP3    H116343   5.573   6.443   1.328
 5486TIP3    H216344   5.579   6.555   1.429
 5487TIP3   OH216345   4.599   4.800   2.684
 5487TIP3    H116346   4.546   4.788   2.763
 5487TIP3    H216347   4.541   4.845   2.623
 5488TIP3   OH216348   4.623   6.251   2.750
 5488TIP3    H116349   4.530   6.228   2.743
 5488TIP3    H216350   4.643   6.241   2.843
 5489TIP3   OH216351   4.838   6.298   2.299
 5489TIP3    H116352   4.787   6.374   2.271
 5489TIP3    H216353   4.923   6.309   2.256
 5490TIP3   OH216354   5.235   6.531   2.437
 5490TIP3    H116355   5.272   6.522   2.525
 5490TIP3    H216356   5.298   6.586   2.391
 5491TIP3   OH216357   5.427   6.688   2.314
 5491TIP3    H116358   5.489   6.633   2.265
 5491TIP3    H216359   5.483   6.745   2.368
 5492TIP3   OH216360   6.227   5.016   2.392
 5492TIP3    H116361   6.146   5.021   2.342
 5492TIP3    H216362   6.256   4.925   2.383
 5493TIP3   OH216363   4.495   6.542   2.341
 5493TIP3    H116364   4.403   6.560   2.320
 5493TIP3    H216365   4.517   6.606   2.410
 5494TIP3   OH216366   4.730   6.532   2.199
 5494TIP3    H116367   4.647   6.535   2.246
 5494TIP3    H216368   4.708   6.556   2.109
 5495TIP3   OH216369   5.144   6.549   1.989
 5495TIP3    H116370   5.071   6.560   1.929
 5495TIP3    H216371   5.153   6.635   2.031
 5496TIP3   OH216372   5.407   6.485   2.039
 5496TIP3    H116373   5.316   6.506   2.019
 5496TIP3    H216374   5.458   6.553   1.994
 5497TIP3   OH216375   5.611   6.652   1.943
 5497TIP3    H116376   5.606   6.738   1.900
 5497TIP3    H216377   5.640   6.593   1.874
 5498TIP3   OH216378   4.399   6.321   2.062
 5498TIP3    H116379   4.421   6.304   2.154
 5498TIP3    H216380   4.471   6.280   2.013
 5499TIP3   OH216381   4.606   6.199   1.926
 5499TIP3    H116382   4.620   6.114   1.969
 5499TIP3    H216383   4.692   6.242   1.931
 5500TIP3   OH216384   4.876   6.287   1.951
 5500TIP3    H116385   4.896   6.195   1.936
 5500TIP3    H216386   4.931   6.312   2.025
 5501TIP3   OH216387   5.443   4.933   2.036
 5501TIP3    H116388   5.403   4.862   2.086
 5501TIP3    H216389   5.511   4.891   1.983
 5502TIP3   OH216390   5.941   4.860   1.931
 5502TIP3    H116391   5.976   4.907   1.855
 5502TIP3    H216392   5.846   4.872   1.925
 5503TIP3   OH216393   6.056   4.930   1.691
 5503TIP3    H116394   6.125   4.869   1.663
 5503TIP3    H216395   6.094   5.016   1.677
 5504TIP3   OH216396   4.679   4.637   2.035
 5504TIP3    H116397   4.590   4.603   2.045
 5504TIP3    H216398   4.734   4.559   2.026
 5505TIP3   OH216399   4.498   4.550   1.689
 5505TIP3    H116400   4.526   4.598   1.611
 5505TIP3    H216401   4.465   4.618   1.748
 5506TIP3   OH216402   5.160   4.677   1.929
 5506TIP3    H116403   5.210   4.722   1.861
 5506TIP3    H216404   5.203   4.704   2.011
 5507TIP3   OH216405   5.658   4.815   1.904
 5507TIP3    H116406   5.671   4.779   1.816
 5507TIP3    H216407   5.664   4.740   1.962
 5508TIP3   OH216408   5.713   4.771   1.471
 5508TIP3    H116409   5.633   4.817   1.495
 5508TIP3    H216410   5.704   4.684   1.508
 5509TIP3   OH216411   4.173   6.105   1.411
 5509TIP3    H116412   4.087   6.082   1.377
 5509TIP3    H216413   4.178   6.200   1.399
 5510TIP3   OH216414   4.612   4.674   1.452
 5510TIP3    H116415   4.657   4.610   1.397
 5510TIP3    H216416   4.681   4.729   1.487
 5511TIP3   OH216417   5.095   4.873   1.544
 5511TIP3    H116418   5.152   4.817   1.596
 5511TIP3    H216419   5.112   4.961   1.576
 5512TIP3   OH216420   4.941   6.265   1.058
 5512TIP3    H116421   5.024   6.302   1.029
 5512TIP3    H216422   4.928   6.189   1.002
 5513TIP3   OH216423   5.651   6.394   1.175
 5513TIP3    H116424   5.633   6.301   1.175
 5513TIP3    H216425   5.612   6.427   1.094
 5514TIP3   OH216426   4.911   4.921   2.918
 5514TIP3    H116427   4.876   4.854   2.976
 5514TIP3    H216428   5.003   4.929   2.943
 5515TIP3   OH216429   5.158   4.927   3.041
 5515TIP3    H116430   5.235   4.904   2.989
 5515TIP3    H216431   5.152   4.857   3.106
 5516TIP3   OH216432   4.282   6.097   1.109
 5516TIP3    H116433   4.278   6.093   1.205
 5516TIP3    H216434   4.364   6.053   1.087
 5517TIP3   OH216435   5.975   5.013   2.824
 5517TIP3    H116436   5.992   4.987   2.914
 5517TIP3    H216437   6.060   5.008   2.781
 5518TIP3   OH216438   5.893   6.552   2.330
 5518TIP3    H116439   5.819   6.520   2.279
 5518TIP3    H216440   5.878   6.646   2.338
 5519TIP3   OH216441   7.150   5.881   1.212
 5519TIP3    H116442   7.141   5.925   1.296
 5519TIP3    H216443   7.078   5.914   1.159
 5520TIP3   OH216444   7.142   5.914   1.505
 5520TIP3    H116445   7.194   5.908   1.586
 5520TIP3    H216446   7.099   5.829   1.497
 5521TIP3   OH216447   6.468   5.784   1.845
 5521TIP3    H116448   6.504   5.732   1.917
 5521TIP3    H216449   6.543   5.808   1.791
 5522TIP3   OH216450   7.455   6.076   1.199
 5522TIP3    H116451   7.441   6.053   1.291
 5522TIP3    H216452   7.422   6.165   1.190
 5523TIP3   OH216453   6.473   6.227   1.563
 5523TIP3    H116454   6.450   6.134   1.560
 5523TIP3    H216455   6.565   6.230   1.536
 5524TIP3   OH216456   6.147   5.420   1.322
 5524TIP3    H116457   6.105   5.503   1.342
 5524TIP3    H216458   6.078   5.366   1.283
 5525TIP3   OH216459   6.216   5.722   1.533
 5525TIP3    H116460   6.267   5.646   1.561
 5525TIP3    H216461   6.281   5.780   1.492
 5526TIP3   OH216462   6.991   6.520   1.239
 5526TIP3    H116463   7.047   6.483   1.170
 5526TIP3    H216464   7.031   6.490   1.321
 5527TIP3   OH216465   6.976   6.146   1.516
 5527TIP3    H116466   7.016   6.062   1.493
 5527TIP3    H216467   7.050   6.202   1.538
 5528TIP3   OH216468   7.955   5.473   1.557
 5528TIP3    H116469   7.990   5.553   1.598
 5528TIP3    H216470   8.008   5.462   1.478
 5529TIP3   OH216471   7.403   5.634   1.562
 5529TIP3    H116472   7.449   5.557   1.594
 5529TIP3    H216473   7.344   5.601   1.494
 5530TIP3   OH216474   6.733   5.284   1.505
 5530TIP3    H116475   6.713   5.358   1.447
 5530TIP3    H216476   6.679   5.213   1.471
 5531TIP3   OH216477   7.397   5.383   1.195
 5531TIP3    H116478   7.470   5.365   1.255
 5531TIP3    H216479   7.439   5.399   1.110
 5532TIP3   OH216480   6.364   5.509   1.626
 5532TIP3    H116481   6.447   5.491   1.670
 5532TIP3    H216482   6.367   5.456   1.547
 5533TIP3   OH216483   6.788   5.704   1.459
 5533TIP3    H116484   6.881   5.688   1.472
 5533TIP3    H216485   6.754   5.622   1.425
 5534TIP3   OH216486   8.053   5.690   1.700
 5534TIP3    H116487   7.962   5.720   1.704
 5534TIP3    H216488   8.094   5.728   1.778
 5535TIP3   OH216489   6.720   5.296   1.947
 5535TIP3    H116490   6.670   5.332   1.873
 5535TIP3    H216491   6.666   5.313   2.024
 5536TIP3   OH216492   6.927   6.153   1.196
 5536TIP3    H116493   6.898   6.070   1.160
 5536TIP3    H216494   7.013   6.168   1.156
 5537TIP3   OH216495   6.811   6.078   1.722
 5537TIP3    H116496   6.758   6.151   1.755
 5537TIP3    H216497   6.860   6.115   1.649
 5538TIP3   OH216498   7.605   5.388   1.377
 5538TIP3    H116499   7.558   5.364   1.457
 5538TIP3    H216500   7.660   5.461   1.403
 5539TIP3   OH216501   6.609   5.406   1.719
 5539TIP3    H116502   6.666   5.480   1.740
 5539TIP3    H216503   6.655   5.360   1.649
 5540TIP3   OH216504   6.660   6.286   1.826
 5540TIP3    H116505   6.642   6.372   1.787
 5540TIP3    H216506   6.580   6.264   1.873
 5541TIP3   OH216507   6.015   6.005   1.116
 5541TIP3    H116508   5.943   6.039   1.063
 5541TIP3    H216509   6.043   6.079   1.170
 5542TIP3   OH216510   7.421   6.502   1.432
 5542TIP3    H116511   7.326   6.500   1.443
 5542TIP3    H216512   7.437   6.584   1.385
 5543TIP3   OH216513   7.766   5.349   1.706
 5543TIP3    H116514   7.681   5.362   1.664
 5543TIP3    H216515   7.830   5.385   1.645
 5544TIP3   OH216516   7.066   4.990   1.681
 5544TIP3    H116517   7.061   4.898   1.707
 5544TIP3    H216518   6.988   5.030   1.721
 5545TIP3   OH216519   7.154   6.503   0.999
 5545TIP3    H116520   7.223   6.452   0.958
 5545TIP3    H216521   7.143   6.579   0.942
 5546TIP3   OH216522   7.354   6.350   0.901
 5546TIP3    H116523   7.348   6.268   0.853
 5546TIP3    H216524   7.447   6.366   0.912
 5547TIP3   OH216525   7.727   6.357   1.689
 5547TIP3    H116526   7.702   6.287   1.628
 5547TIP3    H216527   7.719   6.437   1.637
 5548TIP3   OH216528   6.956   5.911   1.021
 5548TIP3    H116529   6.860   5.910   1.018
 5548TIP3    H216530   6.982   5.828   0.980
 5549TIP3   OH216531   7.005   5.583   0.647
 5549TIP3    H116532   7.101   5.586   0.645
 5549TIP3    H216533   6.984   5.503   0.599
 5550TIP3   OH216534   7.868   6.035   1.627
 5550TIP3    H116535   7.785   6.075   1.601
 5550TIP3    H216536   7.917   6.026   1.545
 5551TIP3   OH216537   7.403   5.750   0.813
 5551TIP3    H116538   7.388   5.825   0.871
 5551TIP3    H216539   7.493   5.724   0.829
 5552TIP3   OH216540   7.568   5.889   1.841
 5552TIP3    H116541   7.573   5.971   1.889
 5552TIP3    H216542   7.486   5.895   1.792
 5553TIP3   OH216543   6.557   5.805   1.339
 5553TIP3    H116544   6.522   5.744   1.274
 5553TIP3    H216545   6.634   5.760   1.374
 5554TIP3   OH216546   6.726   6.258   1.439
 5554TIP3    H116547   6.696   6.241   1.350
 5554TIP3    H216548   6.815   6.222   1.442
 5555TIP3   OH216549   6.681   5.842   1.676
 5555TIP3    H116550   6.721   5.805   1.596
 5555TIP3    H216551   6.730   5.923   1.691
 5556TIP3   OH216552   7.146   6.465   1.457
 5556TIP3    H116553   7.157   6.542   1.513
 5556TIP3    H216554   7.166   6.391   1.514
 5557TIP3   OH216555   6.862   6.379   1.985
 5557TIP3    H116556   6.807   6.416   2.054
 5557TIP3    H216557   6.801   6.334   1.927
 5558TIP3   OH216558   7.278   5.593   0.628
 5558TIP3    H116559   7.332   5.652   0.681
 5558TIP3    H216560   7.304   5.610   0.538
 5559TIP3   OH216561   6.613   5.929   2.126
 5559TIP3    H116562   6.615   6.022   2.148
 5559TIP3    H216563   6.520   5.907   2.121
 5560TIP3   OH216564   6.934   6.353   0.968
 5560TIP3    H116565   7.018   6.397   0.978
 5560TIP3    H216566   6.870   6.416   1.001
 5561TIP3   OH216567   6.593   6.601   2.068
 5561TIP3    H116568   6.610   6.588   1.975
 5561TIP3    H216569   6.532   6.531   2.091
 5562TIP3   OH216570   7.644   4.898   0.690
 5562TIP3    H116571   7.595   4.874   0.769
 5562TIP3    H216572   7.634   4.993   0.685
 5563TIP3   OH216573   6.448   5.662   1.128
 5563TIP3    H116574   6.380   5.727   1.112
 5563TIP3    H216575   6.407   5.578   1.112
 5564TIP3   OH216576   6.250   6.097   2.013
 5564TIP3    H116577   6.178   6.074   1.955
 5564TIP3    H216578   6.283   6.012   2.044
 5565TIP3   OH216579   6.102   6.270   1.679
 5565TIP3    H116580   6.197   6.267   1.668
 5565TIP3    H216581   6.088   6.340   1.743
 5566TIP3   OH216582   7.942   6.740   1.745
 5566TIP3    H116583   7.946   6.645   1.744
 5566TIP3    H216584   7.861   6.760   1.792
 5567TIP3   OH216585   7.049   6.518   1.843
 5567TIP3    H116586   7.041   6.608   1.874
 5567TIP3    H216587   6.984   6.469   1.894
 5568TIP3   OH216588   6.690   6.740   0.785
 5568TIP3    H116589   6.741   6.771   0.710
 5568TIP3    H216590   6.751   6.744   0.859
 5569TIP3   OH216591   6.265   6.427   1.235
 5569TIP3    H116592   6.315   6.429   1.317
 5569TIP3    H216593   6.217   6.345   1.238
 5570TIP3   OH216594   6.921   6.532   0.735
 5570TIP3    H116595   6.971   6.596   0.785
 5570TIP3    H216596   6.983   6.460   0.721
 5571TIP3   OH216597   7.818   5.842   2.006
 5571TIP3    H116598   7.742   5.840   1.949
 5571TIP3    H216599   7.843   5.750   2.015
 5572TIP3   OH216600   6.443   6.292   2.003
 5572TIP3    H116601   6.498   6.266   2.077
 5572TIP3    H216602   6.374   6.226   2.001
 5573TIP3   OH216603   6.826   5.081   1.802
 5573TIP3    H116604   6.744   5.048   1.766
 5573TIP3    H216605   6.802   5.162   1.848
 5574TIP3   OH216606   7.365   5.207   2.003
 5574TIP3    H116607   7.436   5.181   2.061
 5574TIP3    H216608   7.285   5.187   2.052
 5575TIP3   OH216609   7.586   5.627   1.925
 5575TIP3    H116610   7.548   5.619   2.012
 5575TIP3    H216611   7.564   5.716   1.898
 5576TIP3   OH216612   7.019   4.999   0.836
 5576TIP3    H116613   6.988   5.026   0.923
 5576TIP3    H216614   6.953   4.939   0.804
 5577TIP3   OH216615   6.761   5.617   1.816
 5577TIP3    H116616   6.714   5.622   1.899
 5577TIP3    H216617   6.740   5.699   1.771
 5578TIP3   OH216618   6.645   5.496   1.352
 5578TIP3    H116619   6.554   5.474   1.375
 5578TIP3    H216620   6.659   5.452   1.268
 5579TIP3   OH216621   7.076   5.612   1.188
 5579TIP3    H116622   7.083   5.705   1.208
 5579TIP3    H216623   7.128   5.601   1.108
 5580TIP3   OH216624   7.316   5.835   2.132
 5580TIP3    H116625   7.289   5.767   2.194
 5580TIP3    H216626   7.408   5.850   2.152
 5581TIP3   OH216627   7.238   5.509   1.380
 5581TIP3    H116628   7.177   5.539   1.313
 5581TIP3    H216629   7.299   5.452   1.333
 5582TIP3   OH216630   6.601   5.629   2.038
 5582TIP3    H116631   6.627   5.687   2.109
 5582TIP3    H216632   6.583   5.545   2.080
 5583TIP3   OH216633   6.483   5.147   0.815
 5583TIP3    H116634   6.451   5.110   0.897
 5583TIP3    H216635   6.577   5.134   0.817
 5584TIP3   OH216636   6.189   5.151   1.613
 5584TIP3    H116637   6.263   5.185   1.663
 5584TIP3    H216638   6.228   5.124   1.529
 5585TIP3   OH216639   6.104   5.117   1.129
 5585TIP3    H116640   6.159   5.149   1.058
 5585TIP3    H216641   6.041   5.187   1.145
 5586TIP3   OH216642   7.315   5.842   1.712
 5586TIP3    H116643   7.353   5.776   1.654
 5586TIP3    H216644   7.277   5.793   1.785
 5587TIP3   OH216645   6.999   5.273   1.396
 5587TIP3    H116646   6.924   5.271   1.455
 5587TIP3    H216647   7.075   5.276   1.453
 5588TIP3   OH216648   6.406   5.368   1.397
 5588TIP3    H116649   6.318   5.373   1.360
 5588TIP3    H216650   6.434   5.278   1.381
 5589TIP3   OH216651   6.659   5.341   1.128
 5589TIP3    H116652   6.746   5.369   1.098
 5589TIP3    H216653   6.599   5.374   1.061
 5590TIP3   OH216654   7.461   5.357   1.609
 5590TIP3    H116655   7.434   5.380   1.698
 5590TIP3    H216656   7.390   5.302   1.576
 5591TIP3   OH216657   6.461   5.409   0.962
 5591TIP3    H116658   6.402   5.334   0.949
 5591TIP3    H216659   6.425   5.477   0.905
 5592TIP3   OH216660   7.657   7.086   1.866
 5592TIP3    H116661   7.652   7.093   1.771
 5592TIP3    H216662   7.738   7.131   1.889
 5593TIP3   OH216663   6.600   6.201   2.221
 5593TIP3    H116664   6.681   6.209   2.271
 5593TIP3    H216665   6.531   6.201   2.288
 5594TIP3   OH216666   7.052   5.653   1.521
 5594TIP3    H116667   7.116   5.597   1.478
 5594TIP3    H216668   7.043   5.616   1.609
 5595TIP3   OH216669   6.538   5.119   1.380
 5595TIP3    H116670   6.514   5.040   1.429
 5595TIP3    H216671   6.559   5.087   1.292
 5596TIP3   OH216672   7.026   5.555   1.776
 5596TIP3    H116673   6.939   5.589   1.798
 5596TIP3    H216674   7.086   5.608   1.827
 5597TIP3   OH216675   6.695   5.918   0.925
 5597TIP3    H116676   6.676   5.825   0.942
 5597TIP3    H216677   6.678   5.961   1.009
 5598TIP3   OH216678   7.643   6.156   1.528
 5598TIP3    H116679   7.684   6.183   1.445
 5598TIP3    H216680   7.555   6.128   1.503
 5599TIP3   OH216681   7.244   5.109   0.736
 5599TIP3    H116682   7.177   5.062   0.786
 5599TIP3    H216683   7.256   5.191   0.783
 5600TIP3   OH216684   7.177   6.241   1.881
 5600TIP3    H116685   7.239   6.228   1.953
 5600TIP3    H216686   7.149   6.332   1.890
 5601TIP3   OH216687   7.282   5.374   0.788
 5601TIP3    H116688   7.292   5.408   0.877
 5601TIP3    H216689   7.278   5.452   0.733
 5602TIP3   OH216690   6.452   5.950   1.544
 5602TIP3    H116691   6.479   5.911   1.461
 5602TIP3    H216692   6.514   5.915   1.608
 5603TIP3   OH216693   7.004   6.122   0.850
 5603TIP3    H116694   6.977   6.204   0.890
 5603TIP3    H216695   6.990   6.056   0.917
 5604TIP3   OH216696   6.336   5.867   2.152
 5604TIP3    H116697   6.341   5.837   2.242
 5604TIP3    H216698   6.263   5.817   2.114
 5605TIP3   OH216699   7.083   5.986   2.169
 5605TIP3    H116700   7.016   5.924   2.141
 5605TIP3    H216701   7.166   5.945   2.142
 5606TIP3   OH216702   7.319   6.523   1.787
 5606TIP3    H116703   7.223   6.520   1.780
 5606TIP3    H216704   7.335   6.565   1.871
 5607TIP3   OH216705   7.812   5.561   0.657
 5607TIP3    H116706   7.837   5.498   0.589
 5607TIP3    H216707   7.765   5.630   0.611
 5608TIP3   OH216708   7.972   6.466   1.754
 5608TIP3    H116709   7.884   6.433   1.768
 5608TIP3    H216710   8.001   6.423   1.673
 5609TIP3   OH216711   7.393   6.047   1.468
 5609TIP3    H116712   7.303   6.017   1.479
 5609TIP3    H216713   7.444   5.966   1.457
 5610TIP3   OH216714   6.558   6.244   1.213
 5610TIP3    H116715   6.539   6.333   1.181
 5610TIP3    H216716   6.478   6.194   1.194
 5611TIP3   OH216717   6.160   5.495   1.006
 5611TIP3    H116718   6.201   5.568   0.960
 5611TIP3    H216719   6.082   5.532   1.045
 5612TIP3   OH216720   6.678   5.991   1.181
 5612TIP3    H116721   6.645   6.077   1.207
 5612TIP3    H216722   6.635   5.930   1.241
 5613TIP3   OH216723   6.863   6.590   1.647
 5613TIP3    H116724   6.900   6.666   1.602
 5613TIP3    H216725   6.937   6.553   1.695
 5614TIP3   OH216726   6.475   6.473   1.061
 5614TIP3    H116727   6.395   6.483   1.113
 5614TIP3    H216728   6.537   6.535   1.099
 5615TIP3   OH216729   7.218   6.247   1.607
 5615TIP3    H116730   7.212   6.239   1.702
 5615TIP3    H216731   7.303   6.208   1.585
 5616TIP3   OH216732   7.212   6.097   0.523
 5616TIP3    H116733   7.252   6.140   0.597
 5616TIP3    H216734   7.166   6.167   0.476
 5617TIP3   OH216735   7.481   6.733   1.715
 5617TIP3    H116736   7.417   6.662   1.724
 5617TIP3    H216737   7.453   6.781   1.637
 5618TIP3   OH216738   6.552   5.376   2.154
 5618TIP3    H116739   6.457   5.383   2.160
 5618TIP3    H216740   6.577   5.322   2.230
 5619TIP3   OH216741   7.330   6.115   0.772
 5619TIP3    H116742   7.329   6.046   0.839
 5619TIP3    H216743   7.412   6.102   0.724
 5620TIP3   OH216744   6.284   6.464   1.822
 5620TIP3    H116745   6.340   6.405   1.872
 5620TIP3    H216746   6.302   6.551   1.859
 5621TIP3   OH216747   6.551   6.170   0.534
 5621TIP3    H116748   6.581   6.123   0.456
 5621TIP3    H216749   6.550   6.105   0.603
 5622TIP3   OH216750   6.489   6.068   0.803
 5622TIP3    H116751   6.562   6.025   0.848
 5622TIP3    H216752   6.476   6.150   0.851
 5623TIP3   OH216753   6.246   5.852   1.074
 5623TIP3    H116754   6.173   5.899   1.115
 5623TIP3    H216755   6.208   5.813   0.996
 5624TIP3   OH216756   7.391   5.440   1.861
 5624TIP3    H116757   7.472   5.481   1.892
 5624TIP3    H216758   7.383   5.361   1.915
 5625TIP3   OH216759   7.187   5.236   1.066
 5625TIP3    H116760   7.260   5.193   1.020
 5625TIP3    H216761   7.229   5.302   1.120
 5626TIP3   OH216762   6.665   6.434   0.762
 5626TIP3    H116763   6.656   6.406   0.853
 5626TIP3    H216764   6.745   6.486   0.760
 5627TIP3   OH216765   6.933   5.382   1.148
 5627TIP3    H116766   6.972   5.469   1.158
 5627TIP3    H216767   6.952   5.338   1.231
 5628TIP3   OH216768   7.236   5.672   1.912
 5628TIP3    H116769   7.267   5.712   1.993
 5628TIP3    H216770   7.286   5.591   1.905
 5629TIP3   OH216771   7.086   5.058   1.244
 5629TIP3    H116772   7.065   5.125   1.309
 5629TIP3    H216773   7.135   5.104   1.176
 5630TIP3   OH216774   6.608   5.072   1.106
 5630TIP3    H116775   6.611   5.168   1.116
 5630TIP3    H216776   6.700   5.047   1.094
 5631TIP3   OH216777   7.849   5.560   1.910
 5631TIP3    H116778   7.755   5.576   1.919
 5631TIP3    H216779   7.855   5.497   1.838
 5632TIP3   OH216780   7.531   5.836   1.371
 5632TIP3    H116781   7.473   5.782   1.318
 5632TIP3    H216782   7.592   5.774   1.411
 5633TIP3   OH216783   6.214   6.052   0.766
 5633TIP3    H116784   6.297   6.074   0.808
 5633TIP3    H216785   6.239   6.015   0.682
 5634TIP3   OH216786   6.230   5.247   0.926
 5634TIP3    H116787   6.204   5.334   0.956
 5634TIP3    H216788   6.180   5.233   0.845
 5635TIP3   OH216789   7.529   6.728   1.295
 5635TIP3    H116790   7.489   6.694   1.215
 5635TIP3    H216791   7.620   6.699   1.291
 5636TIP3   OH216792   6.563   4.999   1.757
 5636TIP3    H116793   6.535   4.966   1.671
 5636TIP3    H216794   6.554   4.923   1.815
 5637TIP3   OH216795   6.058   6.240   1.243
 5637TIP3    H116796   6.030   6.285   1.323
 5637TIP3    H216797   6.026   6.296   1.172
 5638TIP3   OH216798   6.262   6.743   2.208
 5638TIP3    H116799   6.341   6.704   2.244
 5638TIP3    H216800   6.197   6.673   2.207
 5639TIP3   OH216801   6.821   6.735   2.255
 5639TIP3    H116802   6.867   6.817   2.278
 5639TIP3    H216803   6.889   6.668   2.257
 5640TIP3   OH216804   7.367   6.647   2.023
 5640TIP3    H116805   7.370   6.572   2.082
 5640TIP3    H216806   7.446   6.697   2.043
 5641TIP3   OH216807   6.394   6.192   2.408
 5641TIP3    H116808   6.413   6.099   2.420
 5641TIP3    H216809   6.307   6.194   2.367
 5642TIP3   OH216810   6.359   5.906   0.587
 5642TIP3    H116811   6.408   5.899   0.670
 5642TIP3    H216812   6.419   5.871   0.521
 5643TIP3   OH216813   7.018   6.259   2.184
 5643TIP3    H116814   6.984   6.279   2.097
 5643TIP3    H216815   7.057   6.172   2.175
 5644TIP3   OH216816   6.909   6.068   0.520
 5644TIP3    H116817   6.866   5.985   0.540
 5644TIP3    H216818   6.943   6.057   0.432
 5645TIP3   OH216819   7.484   6.304   1.812
 5645TIP3    H116820   7.567   6.334   1.772
 5645TIP3    H216821   7.423   6.376   1.795
 5646TIP3   OH216822   6.513   5.941   2.416
 5646TIP3    H116823   6.590   5.908   2.369
 5646TIP3    H216824   6.545   5.955   2.506
 5647TIP3   OH216825   6.692   5.650   0.992
 5647TIP3    H116826   6.615   5.647   1.048
 5647TIP3    H216827   6.669   5.596   0.917
 5648TIP3   OH216828   6.865   5.812   2.075
 5648TIP3    H116829   6.782   5.858   2.086
 5648TIP3    H216830   6.898   5.842   1.990
 5649TIP3   OH216831   6.674   5.511   0.756
 5649TIP3    H116832   6.615   5.450   0.711
 5649TIP3    H216833   6.749   5.457   0.783
 5650TIP3   OH216834   7.371   6.182   2.148
 5650TIP3    H116835   7.447   6.152   2.098
 5650TIP3    H216836   7.372   6.129   2.228
 5651TIP3   OH216837   6.970   5.584   2.188
 5651TIP3    H116838   6.974   5.511   2.126
 5651TIP3    H216839   6.936   5.658   2.137
 5652TIP3   OH216840   6.977   5.382   1.991
 5652TIP3    H116841   7.007   5.419   1.909
 5652TIP3    H216842   6.888   5.353   1.974
 5653TIP3   OH216843   6.986   5.912   1.853
 5653TIP3    H116844   7.074   5.949   1.847
 5653TIP3    H216845   6.930   5.975   1.808
 5654TIP3   OH216846   7.584   5.861   2.230
 5654TIP3    H116847   7.612   5.771   2.245
 5654TIP3    H216848   7.663   5.908   2.204
 5655TIP3   OH216849   7.604   6.132   1.981
 5655TIP3    H116850   7.553   6.192   1.927
 5655TIP3    H216851   7.694   6.144   1.953
 5656TIP3   OH216852   6.859   5.683   2.426
 5656TIP3    H116853   6.789   5.622   2.448
 5656TIP3    H216854   6.889   5.655   2.339
 5657TIP3   OH216855   7.103   5.154   2.088
 5657TIP3    H116856   7.062   5.234   2.055
 5657TIP3    H216857   7.038   5.085   2.071
 5658TIP3   OH216858   7.228   5.627   2.288
 5658TIP3    H116859   7.220   5.613   2.382
 5658TIP3    H216860   7.141   5.604   2.254
 5659TIP3   OH216861   7.474   5.579   2.164
 5659TIP3    H116862   7.396   5.576   2.219
 5659TIP3    H216863   7.545   5.550   2.221
 5660TIP3   OH216864   7.707   5.540   2.309
 5660TIP3    H116865   7.725   5.446   2.316
 5660TIP3    H216866   7.706   5.571   2.400
 5661TIP3   OH216867   6.695   5.466   2.488
 5661TIP3    H116868   6.710   5.383   2.443
 5661TIP3    H216869   6.731   5.453   2.576
 5662TIP3   OH216870   7.165   5.131   2.352
 5662TIP3    H116871   7.236   5.068   2.348
 5662TIP3    H216872   7.137   5.143   2.261
 5663TIP3   OH216873   7.264   5.348   2.492
 5663TIP3    H116874   7.234   5.275   2.438
 5663TIP3    H216875   7.190   5.410   2.492
 5664TIP3   OH216876   5.958   5.962   0.757
 5664TIP3    H116877   6.049   5.980   0.781
 5664TIP3    H216878   5.950   5.867   0.767
 5665TIP3   OH216879   5.853   6.545   1.279
 5665TIP3    H116880   5.793   6.487   1.232
 5665TIP3    H216881   5.897   6.488   1.342
 5666TIP3   OH216882   6.010   6.406   1.455
 5666TIP3    H116883   6.010   6.343   1.528
 5666TIP3    H216884   6.068   6.476   1.484
 5667TIP3   OH216885   7.804   6.686   1.250
 5667TIP3    H116886   7.875   6.685   1.314
 5667TIP3    H216887   7.841   6.731   1.174
 5668TIP3   OH216888   7.766   6.843   1.532
 5668TIP3    H116889   7.734   6.753   1.519
 5668TIP3    H216890   7.851   6.831   1.575
 5669TIP3   OH216891   7.824   6.535   2.074
 5669TIP3    H116892   7.759   6.542   2.145
 5669TIP3    H216893   7.872   6.618   2.078
 5670TIP3   OH216894   7.568   6.064   0.651
 5670TIP3    H116895   7.635   6.108   0.598
 5670TIP3    H216896   7.577   5.971   0.629
 5671TIP3   OH216897   7.822   5.900   0.878
 5671TIP3    H116898   7.777   5.897   0.962
 5671TIP3    H216899   7.895   5.960   0.892
 5672TIP3   OH216900   7.833   6.288   1.367
 5672TIP3    H116901   7.837   6.228   1.293
 5672TIP3    H216902   7.774   6.358   1.339
 5673TIP3   OH216903   7.657   6.586   1.556
 5673TIP3    H116904   7.602   6.630   1.621
 5673TIP3    H216905   7.594   6.541   1.499
 5674TIP3   OH216906   7.641   5.881   1.094
 5674TIP3    H116907   7.647   5.789   1.120
 5674TIP3    H216908   7.579   5.919   1.157
 5675TIP3   OH216909   6.206   5.827   1.787
 5675TIP3    H116910   6.196   5.792   1.698
 5675TIP3    H216911   6.300   5.821   1.804
 5676TIP3   OH216912   7.859   6.177   1.886
 5676TIP3    H116913   7.921   6.105   1.874
 5676TIP3    H216914   7.842   6.210   1.798
 5677TIP3   OH216915   8.034   5.965   1.897
 5677TIP3    H116916   7.960   5.919   1.936
 5677TIP3    H216917   8.110   5.909   1.915
 5678TIP3   OH216918   7.594   5.258   0.458
 5678TIP3    H116919   7.621   5.194   0.524
 5678TIP3    H216920   7.510   5.291   0.489
 5679TIP3   OH216921   7.525   5.406   0.958
 5679TIP3    H116922   7.619   5.414   0.978
 5679TIP3    H216923   7.518   5.434   0.866
 5680TIP3   OH216924   7.714   5.635   1.447
 5680TIP3    H116925   7.793   5.668   1.405
 5680TIP3    H216926   7.723   5.657   1.539
 5681TIP3   OH216927   7.779   5.781   1.681
 5681TIP3    H116928   7.701   5.804   1.731
 5681TIP3    H216929   7.819   5.866   1.658
 5682TIP3   OH216930   6.424   5.500   2.431
 5682TIP3    H116931   6.518   5.503   2.450
 5682TIP3    H216932   6.394   5.419   2.472
 5683TIP3   OH216933   8.260   5.407   2.185
 5683TIP3    H116934   8.324   5.346   2.148
 5683TIP3    H216935   8.224   5.454   2.110
 5684TIP3   OH216936   7.710   5.136   0.987
 5684TIP3    H116937   7.757   5.159   1.067
 5684TIP3    H216938   7.662   5.057   1.008
 5685TIP3   OH216939   6.400   5.222   1.782
 5685TIP3    H116940   6.453   5.142   1.784
 5685TIP3    H216941   6.463   5.292   1.764
 5686TIP3   OH216942   6.182   5.485   1.841
 5686TIP3    H116943   6.231   5.474   1.759
 5686TIP3    H216944   6.220   5.563   1.881
 5687TIP3   OH216945   8.114   5.511   1.978
 5687TIP3    H116946   8.025   5.546   1.988
 5687TIP3    H216947   8.103   5.430   1.928
 5688TIP3   OH216948   7.813   5.078   0.526
 5688TIP3    H116949   7.834   5.061   0.618
 5688TIP3    H216950   7.844   5.168   0.511
 5689TIP3   OH216951   6.167   4.988   1.358
 5689TIP3    H116952   6.080   4.977   1.397
 5689TIP3    H216953   6.152   5.041   1.280
 5690TIP3   OH216954   7.403   6.652   0.810
 5690TIP3    H116955   7.444   6.642   0.724
 5690TIP3    H216956   7.380   6.745   0.815
 5691TIP3   OH216957   6.402   5.059   2.172
 5691TIP3    H116958   6.348   5.049   2.250
 5691TIP3    H216959   6.346   5.103   2.108
 5692TIP3   OH216960   6.420   6.525   2.283
 5692TIP3    H116961   6.333   6.493   2.260
 5692TIP3    H216962   6.434   6.493   2.373
 5693TIP3   OH216963   6.635   6.565   1.796
 5693TIP3    H116964   6.582   6.633   1.755
 5693TIP3    H216965   6.719   6.569   1.750
 5694TIP3   OH216966   7.037   6.782   1.929
 5694TIP3    H116967   7.074   6.772   2.017
 5694TIP3    H216968   7.102   6.833   1.882
 5695TIP3   OH216969   7.232   6.935   1.809
 5695TIP3    H116970   7.299   6.875   1.776
 5695TIP3    H216971   7.281   6.998   1.862
 5696TIP3   OH216972   8.028   5.257   1.885
 5696TIP3    H116973   7.938   5.236   1.857
 5696TIP3    H216974   8.074   5.173   1.880
 5697TIP3   OH216975   6.282   6.764   1.860
 5697TIP3    H116976   6.203   6.810   1.832
 5697TIP3    H216977   6.289   6.781   1.954
 5698TIP3   OH216978   6.507   6.782   1.689
 5698TIP3    H116979   6.425   6.784   1.739
 5698TIP3    H216980   6.483   6.814   1.602
 5699TIP3   OH216981   6.959   6.803   1.506
 5699TIP3    H116982   6.887   6.812   1.444
 5699TIP3    H216983   6.971   6.891   1.542
 5700TIP3   OH216984   7.206   6.709   1.560
 5700TIP3    H116985   7.121   6.746   1.537
 5700TIP3    H216986   7.269   6.775   1.532
 5701TIP3   OH216987   7.416   6.873   1.495
 5701TIP3    H116988   7.398   6.963   1.468
 5701TIP3    H216989   7.454   6.831   1.419
 5702TIP3   OH216990   6.206   6.573   1.583
 5702TIP3    H116991   6.231   6.539   1.669
 5702TIP3    H216992   6.277   6.547   1.525
 5703TIP3   OH216993   6.420   6.470   1.455
 5703TIP3    H116994   6.433   6.384   1.497
 5703TIP3    H216995   6.508   6.505   1.446
 5704TIP3   OH216996   6.687   6.533   1.444
 5704TIP3    H116997   6.706   6.440   1.429
 5704TIP3    H216998   6.747   6.559   1.514
 5705TIP3   OH216999   7.241   5.183   1.520
 5705TIP3    H117000   7.201   5.110   1.568
 5705TIP3    H217001   7.307   5.142   1.465
 5706TIP3   OH217002   7.740   5.102   1.424
 5706TIP3    H117003   7.786   5.152   1.356
 5706TIP3    H217004   7.649   5.130   1.417
 5707TIP3   OH217005   7.880   5.178   1.198
 5707TIP3    H117006   7.937   5.105   1.174
 5707TIP3    H217007   7.932   5.256   1.180
 5708TIP3   OH217008   6.472   4.890   1.520
 5708TIP3    H117009   6.383   4.856   1.531
 5708TIP3    H217010   6.527   4.812   1.516
 5709TIP3   OH217011   6.261   4.781   1.189
 5709TIP3    H117012   6.309   4.830   1.122
 5709TIP3    H217013   6.234   4.847   1.253
 5710TIP3   OH217014   6.934   4.931   1.439
 5710TIP3    H117015   6.992   4.959   1.368
 5710TIP3    H217016   6.982   4.952   1.519
 5711TIP3   OH217017   7.456   5.066   1.387
 5711TIP3    H117018   7.489   5.023   1.308
 5711TIP3    H217019   7.460   4.999   1.455
 5712TIP3   OH217020   7.550   4.912   0.953
 5712TIP3    H117021   7.484   4.980   0.966
 5712TIP3    H217022   7.518   4.838   1.004
 5713TIP3   OH217023   5.991   6.405   1.041
 5713TIP3    H117024   5.991   6.343   0.968
 5713TIP3    H217025   5.944   6.481   1.007
 5714TIP3   OH217026   6.419   4.908   0.991
 5714TIP3    H117027   6.468   4.840   0.944
 5714TIP3    H217028   6.486   4.955   1.041
 5715TIP3   OH217029   6.885   5.102   1.061
 5715TIP3    H117030   6.930   5.052   1.128
 5715TIP3    H217031   6.908   5.193   1.078
 5716TIP3   OH217032   6.701   5.198   2.393
 5716TIP3    H117033   6.642   5.169   2.463
 5716TIP3    H217034   6.789   5.185   2.428
 5717TIP3   OH217035   6.945   5.161   2.524
 5717TIP3    H117036   7.021   5.160   2.466
 5717TIP3    H217037   6.957   5.084   2.580
 5718TIP3   OH217038   6.231   6.373   0.665
 5718TIP3    H117039   6.219   6.468   0.667
 5718TIP3    H217040   6.145   6.338   0.641
 5719TIP3   OH217041   7.774   5.270   2.311
 5719TIP3    H117042   7.791   5.241   2.400
 5719TIP3    H217043   7.858   5.265   2.267
 5720TIP3   OH217044   7.703   6.813   1.856
 5720TIP3    H117045   7.625   6.781   1.811
 5720TIP3    H217046   7.687   6.906   1.870
 5721TIP3   OH217047   8.937   6.169   0.994
 5721TIP3    H117048   9.014   6.216   0.961
 5721TIP3    H217049   8.930   6.092   0.937
 5722TIP3   OH217050   8.240   6.110   1.388
 5722TIP3    H117051   8.295   6.045   1.431
 5722TIP3    H217052   8.295   6.188   1.382
 5723TIP3   OH217053   8.244   6.411   0.973
 5723TIP3    H117054   8.283   6.327   0.999
 5723TIP3    H217055   8.206   6.446   1.054
 5724TIP3   OH217056   7.971   5.671   0.850
 5724TIP3    H117057   7.912   5.744   0.867
 5724TIP3    H217058   7.924   5.617   0.786
 5725TIP3   OH217059   8.076   5.994   0.831
 5725TIP3    H117060   8.088   5.981   0.925
 5725TIP3    H217061   8.113   6.080   0.814
 5726TIP3   OH217062   8.813   6.403   1.041
 5726TIP3    H117063   8.815   6.317   0.998
 5726TIP3    H217064   8.904   6.431   1.043
 5727TIP3   OH217065   9.164   5.968   1.012
 5727TIP3    H117066   9.165   5.895   1.074
 5727TIP3    H217067   9.243   5.955   0.958
 5728TIP3   OH217068   8.555   5.598   0.932
 5728TIP3    H117069   8.535   5.635   1.017
 5728TIP3    H217070   8.505   5.517   0.928
 5729TIP3   OH217071   8.052   5.665   1.119
 5729TIP3    H117072   8.142   5.688   1.140
 5729TIP3    H217073   8.044   5.679   1.025
 5730TIP3   OH217074   8.729   6.077   0.762
 5730TIP3    H117075   8.814   6.040   0.785
 5730TIP3    H217076   8.679   6.002   0.728
 5731TIP3   OH217077   8.498   5.539   1.463
 5731TIP3    H117078   8.447   5.527   1.383
 5731TIP3    H217079   8.436   5.573   1.527
 5732TIP3   OH217080   8.566   6.319   1.249
 5732TIP3    H117081   8.600   6.373   1.320
 5732TIP3    H217082   8.587   6.368   1.170
 5733TIP3   OH217083   8.280   5.673   1.297
 5733TIP3    H117084   8.309   5.764   1.297
 5733TIP3    H217085   8.343   5.627   1.242
 5734TIP3   OH217086   8.468   6.567   1.456
 5734TIP3    H117087   8.455   6.587   1.363
 5734TIP3    H217088   8.381   6.546   1.488
 5735TIP3   OH217089   8.858   5.201   1.176
 5735TIP3    H117090   8.828   5.119   1.216
 5735TIP3    H217091   8.790   5.265   1.200
 5736TIP3   OH217092   8.337   6.098   0.771
 5736TIP3    H117093   8.318   6.141   0.688
 5736TIP3    H217094   8.383   6.018   0.746
 5737TIP3   OH217095   8.557   6.486   1.015
 5737TIP3    H117096   8.522   6.401   0.988
 5737TIP3    H217097   8.652   6.471   1.022
 5738TIP3   OH217098   8.609   6.051   1.226
 5738TIP3    H117099   8.603   6.030   1.133
 5738TIP3    H217100   8.591   6.145   1.231
 5739TIP3   OH217101   8.686   6.710   1.535
 5739TIP3    H117102   8.681   6.750   1.622
 5739TIP3    H217103   8.600   6.671   1.521
 5740TIP3   OH217104   8.401   6.227   1.601
 5740TIP3    H117105   8.396   6.312   1.646
 5740TIP3    H217106   8.314   6.189   1.613
 5741TIP3   OH217107   8.416   6.830   1.620
 5741TIP3    H117108   8.417   6.795   1.531
 5741TIP3    H217109   8.348   6.780   1.665
 5742TIP3   OH217110   8.045   6.320   1.533
 5742TIP3    H117111   7.973   6.306   1.472
 5742TIP3    H217112   8.081   6.233   1.548
 5743TIP3   OH217113   7.861   6.432   1.035
 5743TIP3    H117114   7.939   6.437   1.090
 5743TIP3    H217115   7.817   6.515   1.049
 5744TIP3   OH217116   8.835   6.812   1.340
 5744TIP3    H117117   8.812   6.905   1.340
 5744TIP3    H217118   8.778   6.772   1.406
 5745TIP3   OH217119   8.214   6.531   1.543
 5745TIP3    H117120   8.258   6.519   1.627
 5745TIP3    H217121   8.166   6.449   1.530
 5746TIP3   OH217122   8.567   5.236   1.318
 5746TIP3    H117123   8.472   5.245   1.305
 5746TIP3    H217124   8.604   5.316   1.283
 5747TIP3   OH217125   9.146   5.427   1.555
 5747TIP3    H117126   9.192   5.366   1.612
 5747TIP3    H217127   9.056   5.393   1.551
 5748TIP3   OH217128   8.574   5.879   1.440
 5748TIP3    H117129   8.492   5.890   1.488
 5748TIP3    H217130   8.580   5.957   1.384
 5749TIP3   OH217131   8.449   5.844   0.751
 5749TIP3    H117132   8.375   5.795   0.714
 5749TIP3    H217133   8.526   5.808   0.707
 5750TIP3   OH217134   9.125   6.107   1.668
 5750TIP3    H117135   9.118   6.028   1.722
 5750TIP3    H217136   9.217   6.130   1.671
 5751TIP3   OH217137   8.332   5.897   1.564
 5751TIP3    H117138   8.271   5.942   1.621
 5751TIP3    H217139   8.329   5.806   1.592
 5752TIP3   OH217140   8.046   5.384   1.128
 5752TIP3    H117141   8.075   5.389   1.219
 5752TIP3    H217142   8.075   5.466   1.089
 5753TIP3   OH217143   8.120   5.518   0.607
 5753TIP3    H117144   8.177   5.588   0.640
 5753TIP3    H217145   8.066   5.560   0.541
 5754TIP3   OH217146   9.164   6.150   1.224
 5754TIP3    H117147   9.157   6.090   1.150
 5754TIP3    H217148   9.074   6.174   1.244
 5755TIP3   OH217149   8.782   5.443   0.937
 5755TIP3    H117150   8.724   5.515   0.911
 5755TIP3    H217151   8.868   5.468   0.901
 5756TIP3   OH217152   8.209   5.513   0.912
 5756TIP3    H117153   8.130   5.509   0.858
 5756TIP3    H217154   8.259   5.435   0.887
 5757TIP3   OH217155   9.189   5.671   1.077
 5757TIP3    H117156   9.183   5.727   1.155
 5757TIP3    H217157   9.201   5.583   1.111
 5758TIP3   OH217158   8.388   6.456   1.749
 5758TIP3    H117159   8.472   6.474   1.791
 5758TIP3    H217160   8.324   6.461   1.820
 5759TIP3   OH217161   8.960   5.954   0.832
 5759TIP3    H117162   8.955   5.862   0.809
 5759TIP3    H217163   9.042   5.962   0.880
 5760TIP3   OH217164   8.422   5.315   0.951
 5760TIP3    H117165   8.386   5.240   0.997
 5760TIP3    H217166   8.388   5.308   0.862
 5761TIP3   OH217167   8.809   5.773   1.370
 5761TIP3    H117168   8.734   5.822   1.402
 5761TIP3    H217169   8.884   5.829   1.388
 5762TIP3   OH217170   8.979   6.592   1.306
 5762TIP3    H117171   8.999   6.553   1.390
 5762TIP3    H217172   8.936   6.675   1.327
 5763TIP3   OH217173   8.323   6.154   1.037
 5763TIP3    H117174   8.316   6.121   0.947
 5763TIP3    H217175   8.327   6.075   1.091
 5764TIP3   OH217176   8.159   6.107   1.686
 5764TIP3    H117177   8.196   6.125   1.773
 5764TIP3    H217178   8.078   6.060   1.705
 5765TIP3   OH217179   8.899   6.249   1.702
 5765TIP3    H117180   8.827   6.201   1.660
 5765TIP3    H217181   8.975   6.192   1.691
 5766TIP3   OH217182   9.163   6.727   1.137
 5766TIP3    H117183   9.113   6.679   1.203
 5766TIP3    H217184   9.224   6.781   1.187
 5767TIP3   OH217185   8.645   6.981   1.178
 5767TIP3    H117186   8.736   7.005   1.162
 5767TIP3    H217187   8.635   6.896   1.134
 5768TIP3   OH217188   9.080   6.446   1.056
 5768TIP3    H117189   9.129   6.449   1.138
 5768TIP3    H217190   9.147   6.444   0.988
 5769TIP3   OH217191   8.326   5.628   1.660
 5769TIP3    H117192   8.230   5.626   1.664
 5769TIP3    H217193   8.354   5.561   1.723
 5770TIP3   OH217194   8.018   6.676   1.424
 5770TIP3    H117195   8.083   6.624   1.471
 5770TIP3    H217196   8.036   6.766   1.448
 5771TIP3   OH217197   9.067   5.665   1.455
 5771TIP3    H117198   9.146   5.705   1.419
 5771TIP3    H217199   9.099   5.590   1.505
 5772TIP3   OH217200   9.016   5.940   1.479
 5772TIP3    H117201   9.065   5.999   1.537
 5772TIP3    H217202   9.038   5.852   1.511
 5773TIP3   OH217203   8.291   5.223   1.286
 5773TIP3    H117204   8.275   5.187   1.198
 5773TIP3    H217205   8.299   5.145   1.342
 5774TIP3   OH217206   8.052   6.995   1.778
 5774TIP3    H117207   8.132   6.984   1.830
 5774TIP3    H217208   8.019   6.906   1.765
 5775TIP3   OH217209   8.536   6.970   1.820
 5775TIP3    H117210   8.628   6.943   1.825
 5775TIP3    H217211   8.501   6.921   1.746
 5776TIP3   OH217212   9.258   6.962   1.650
 5776TIP3    H117213   9.228   6.874   1.674
 5776TIP3    H217214   9.352   6.951   1.631
 5777TIP3   OH217215   8.182   6.437   1.931
 5777TIP3    H117216   8.197   6.343   1.937
 5777TIP3    H217217   8.102   6.446   1.879
 5778TIP3   OH217218   8.837   6.521   1.720
 5778TIP3    H117219   8.804   6.517   1.631
 5778TIP3    H217220   8.875   6.435   1.736
 5779TIP3   OH217221   8.316   6.179   1.905
 5779TIP3    H117222   8.401   6.164   1.863
 5779TIP3    H217223   8.337   6.201   1.995
 5780TIP3   OH217224   8.610   6.070   1.678
 5780TIP3    H117225   8.535   6.121   1.648
 5780TIP3    H217226   8.671   6.070   1.604
 5781TIP3   OH217227   9.191   6.474   1.701
 5781TIP3    H117228   9.158   6.423   1.628
 5781TIP3    H217229   9.195   6.412   1.774
 5782TIP3   OH217230   8.793   5.821   1.680
 5782TIP3    H117231   8.782   5.730   1.654
 5782TIP3    H217232   8.715   5.865   1.648
 5783TIP3   OH217233   8.751   5.578   1.549
 5783TIP3    H117234   8.783   5.636   1.480
 5783TIP3    H217235   8.661   5.559   1.524
 5784TIP3   OH217236   8.795   6.095   1.481
 5784TIP3    H117237   8.868   6.033   1.478
 5784TIP3    H217238   8.811   6.154   1.407
 5785TIP3   OH217239   9.387   6.158   1.737
 5785TIP3    H117240   9.431   6.083   1.776
 5785TIP3    H217241   9.431   6.169   1.652
 5786TIP3   OH217242   8.637   5.951   1.926
 5786TIP3    H117243   8.580   5.874   1.928
 5786TIP3    H217244   8.630   5.983   1.836
 5787TIP3   OH217245   8.888   5.347   1.575
 5787TIP3    H117246   8.844   5.432   1.565
 5787TIP3    H217247   8.817   5.283   1.571
 5788TIP3   OH217248   9.049   5.869   1.775
 5788TIP3    H117249   9.040   5.856   1.869
 5788TIP3    H217250   8.961   5.851   1.740
 5789TIP3   OH217251   9.275   5.801   1.609
 5789TIP3    H117252   9.208   5.810   1.677
 5789TIP3    H217253   9.357   5.789   1.656
 5790TIP3   OH217254   9.513   5.756   1.741
 5790TIP3    H117255   9.533   5.681   1.797
 5790TIP3    H217256   9.503   5.830   1.801
 5791TIP3   OH217257   8.486   5.715   1.974
 5791TIP3    H117258   8.491   5.628   1.933
 5791TIP3    H217259   8.525   5.703   2.061
 5792TIP3   OH217260   8.969   5.390   1.835
 5792TIP3    H117261   9.033   5.321   1.854
 5792TIP3    H217262   8.943   5.375   1.744
 5793TIP3   OH217263   9.048   5.611   1.977
 5793TIP3    H117264   9.023   5.541   1.917
 5793TIP3    H217265   8.976   5.673   1.971
 5794TIP3   OH217266   7.909   6.577   0.814
 5794TIP3    H117267   7.886   6.509   0.877
 5794TIP3    H217268   7.928   6.654   0.867
 5795TIP3   OH217269   7.988   6.021   1.386
 5795TIP3    H117270   7.945   6.061   1.310
 5795TIP3    H217271   8.078   6.054   1.382
 5796TIP3   OH217272   8.217   5.764   1.927
 5796TIP3    H117273   8.312   5.760   1.936
 5796TIP3    H217274   8.187   5.679   1.959
 5797TIP3   OH217275   8.155   5.440   1.376
 5797TIP3    H117276   8.218   5.373   1.351
 5797TIP3    H217277   8.197   5.523   1.355
 5798TIP3   OH217278   7.926   5.756   1.344
 5798TIP3    H117279   7.977   5.724   1.269
 5798TIP3    H217280   7.964   5.842   1.364
 5799TIP3   OH217281   8.013   5.307   0.862
 5799TIP3    H117282   8.044   5.308   0.952
 5799TIP3    H217283   8.093   5.299   0.809
 5800TIP3   OH217284   8.197   5.338   1.670
 5800TIP3    H117285   8.128   5.313   1.732
 5800TIP3    H217286   8.149   5.361   1.591
 5801TIP3   OH217287   8.217   6.728   1.774
 5801TIP3    H117288   8.124   6.722   1.753
 5801TIP3    H217289   8.221   6.725   1.870
 5802TIP3   OH217290   8.446   6.877   1.338
 5802TIP3    H117291   8.386   6.948   1.317
 5802TIP3    H217292   8.531   6.906   1.304
 5803TIP3   OH217293   8.833   7.066   1.417
 5803TIP3    H117294   8.886   7.032   1.488
 5803TIP3    H217295   8.895   7.111   1.359
 5804TIP3   OH217296   9.024   7.205   1.270
 5804TIP3    H117297   9.083   7.137   1.240
 5804TIP3    H217298   9.052   7.224   1.360
 5805TIP3   OH217299   8.074   6.944   1.446
 5805TIP3    H117300   8.005   7.000   1.412
 5805TIP3    H217301   8.141   7.004   1.478
 5806TIP3   OH217302   8.299   7.059   1.178
 5806TIP3    H117303   8.236   7.117   1.136
 5806TIP3    H217304   8.295   6.978   1.128
 5807TIP3   OH217305   7.914   6.791   1.005
 5807TIP3    H117306   7.921   6.881   1.038
 5807TIP3    H217307   8.003   6.765   0.984
 5808TIP3   OH217308   8.156   6.698   0.943
 5808TIP3    H117309   8.210   6.631   0.902
 5808TIP3    H217310   8.216   6.770   0.962
 5809TIP3   OH217311   8.378   6.861   1.000
 5809TIP3    H117312   8.411   6.780   0.960
 5809TIP3    H217313   8.449   6.924   0.991
 5810TIP3   OH217314   9.059   5.375   0.946
 5810TIP3    H117315   9.013   5.387   1.029
 5810TIP3    H217316   9.102   5.290   0.954
 5811TIP3   OH217317   8.265   5.106   1.039
 5811TIP3    H117318   8.177   5.067   1.041
 5811TIP3    H217319   8.323   5.032   1.019
 5812TIP3   OH217320   8.154   5.038   0.718
 5812TIP3    H117321   8.168   4.992   0.635
 5812TIP3    H217322   8.059   5.046   0.725
 5813TIP3   OH217323   8.762   5.170   0.915
 5813TIP3    H117324   8.767   5.264   0.897
 5813TIP3    H217325   8.806   5.159   0.999
 5814TIP3   OH217326   8.498   5.442   1.899
 5814TIP3    H117327   8.463   5.377   1.960
 5814TIP3    H217328   8.591   5.446   1.921
 5815TIP3   OH217329   8.753   5.434   2.007
 5815TIP3    H117330   8.824   5.437   1.943
 5815TIP3    H217331   8.763   5.350   2.051
 5816TIP3   OH217332   9.697   7.020   2.879
 5816TIP3    H117333   9.731   6.962   2.948
 5816TIP3    H217334   9.667   7.098   2.926
 5817TIP3   OH217335   0.513   6.263   3.167
 5817TIP3    H117336   0.518   6.353   3.201
 5817TIP3    H217337   0.549   6.269   3.078
 5818TIP3   OH217338   9.696   6.490   3.178
 5818TIP3    H117339   9.698   6.444   3.261
 5818TIP3    H217340   9.646   6.433   3.120
 5819TIP3   OH217341   9.742   6.270   2.825
 5819TIP3    H117342   9.799   6.240   2.896
 5819TIP3    H217343   9.790   6.250   2.745
 5820TIP3   OH217344   0.531   6.484   3.345
 5820TIP3    H117345   0.461   6.537   3.307
 5820TIP3    H217346   0.491   6.442   3.422
 5821TIP3   OH217347   0.096   6.198   3.036
 5821TIP3    H117348   0.089   6.161   3.124
 5821TIP3    H217349   0.154   6.273   3.047
 5822TIP3   OH217350   0.329   6.164   3.348
 5822TIP3    H117351   0.241   6.147   3.312
 5822TIP3    H217352   0.380   6.193   3.273
 5823TIP3   OH217353   0.171   7.193   3.354
 5823TIP3    H117354   0.158   7.110   3.309
 5823TIP3    H217355   0.148   7.259   3.289
 5824TIP3   OH217356   0.374   6.835   3.186
 5824TIP3    H117357   0.293   6.885   3.199
 5824TIP3    H217358   0.399   6.851   3.096
 5825TIP3   OH217359   9.620   6.561   2.515
 5825TIP3    H117360   9.589   6.642   2.475
 5825TIP3    H217361   9.696   6.587   2.567
 5826TIP3   OH217362   0.069   6.771   3.351
 5826TIP3    H117363   0.085   6.852   3.400
 5826TIP3    H217364   0.034   6.800   3.267
 5827TIP3   OH217365   0.185   5.740   2.420
 5827TIP3    H117366   0.109   5.760   2.474
 5827TIP3    H217367   0.198   5.818   2.366
 5828TIP3   OH217368   0.409   7.528   3.388
 5828TIP3    H117369   0.414   7.434   3.402
 5828TIP3    H217370   0.336   7.557   3.442
 5829TIP3   OH217371   0.286   6.645   3.585
 5829TIP3    H117372   0.265   6.644   3.679
 5829TIP3    H217373   0.304   6.553   3.564
 5830TIP3   OH217374   9.631   5.871   3.772
 5830TIP3    H117375   9.722   5.898   3.783
 5830TIP3    H217376   9.580   5.952   3.779
 5831TIP3   OH217377   0.031   6.306   3.560
 5831TIP3    H117378  -0.010   6.342   3.639
 5831TIP3    H217379   0.059   6.383   3.511
 5832TIP3   OH217380   9.524   6.351   3.027
 5832TIP3    H117381   9.533   6.383   2.937
 5832TIP3    H217382   9.556   6.261   3.023
 5833TIP3   OH217383   0.077   6.078   3.288
 5833TIP3    H117384   0.033   6.075   3.373
 5833TIP3    H217385   0.075   5.988   3.257
 5834TIP3   OH217386   0.147   6.990   3.173
 5834TIP3    H117387   0.184   7.044   3.104
 5834TIP3    H217388   0.070   6.950   3.133
 5835TIP3   OH217389   9.440   6.098   2.479
 5835TIP3    H117390   9.384   6.144   2.416
 5835TIP3    H217391   9.502   6.050   2.425
 5836TIP3   OH217392   9.680   6.319   2.400
 5836TIP3    H117393   9.741   6.306   2.472
 5836TIP3    H217394   9.648   6.408   2.412
 5837TIP3   OH217395   0.201   6.379   2.347
 5837TIP3    H117396   0.147   6.332   2.283
 5837TIP3    H217397   0.199   6.470   2.317
 5838TIP3   OH217398   0.424   7.245   3.428
 5838TIP3    H117399   0.329   7.237   3.420
 5838TIP3    H217400   0.457   7.215   3.343
 5839TIP3   OH217401   9.738   6.834   3.089
 5839TIP3    H117402   9.643   6.833   3.096
 5839TIP3    H217403   9.760   6.755   3.039
 5840TIP3   OH217404   9.759   6.044   3.534
 5840TIP3    H117405   9.770   6.134   3.563
 5840TIP3    H217406   9.772   5.991   3.612
 5841TIP3   OH217407   9.642   6.038   2.650
 5841TIP3    H117408   9.561   6.070   2.610
 5841TIP3    H217409   9.627   6.048   2.744
 5842TIP3   OH217410   0.358   6.378   3.525
 5842TIP3    H117411   0.313   6.363   3.609
 5842TIP3    H217412   0.342   6.298   3.476
 5843TIP3   OH217413   0.041   6.593   2.973
 5843TIP3    H117414  -0.013   6.559   3.045
 5843TIP3    H217415   0.125   6.549   2.983
 5844TIP3   OH217416   0.071   7.448   2.888
 5844TIP3    H117417  -0.019   7.422   2.870
 5844TIP3    H217418   0.066   7.542   2.906
 5845TIP3   OH217419   9.746   6.721   3.884
 5845TIP3    H117420   9.778   6.644   3.931
 5845TIP3    H217421   9.826   6.760   3.847
 5846TIP3   OH217422   0.066   6.985   3.527
 5846TIP3    H117423   0.023   7.069   3.512
 5846TIP3    H217424   0.160   7.006   3.531
 5847TIP3   OH217425   9.691   6.431   3.766
 5847TIP3    H117426   9.667   6.341   3.784
 5847TIP3    H217427   9.706   6.470   3.853
 5848TIP3   OH217428   0.192   6.255   3.964
 5848TIP3    H117429   0.143   6.181   3.999
 5848TIP3    H217430   0.252   6.280   4.034
 5849TIP3   OH217431   0.234   7.725   2.892
 5849TIP3    H117432   0.253   7.688   2.978
 5849TIP3    H217433   0.295   7.681   2.833
 5850TIP3   OH217434   0.276   7.636   3.159
 5850TIP3    H117435   0.185   7.612   3.169
 5850TIP3    H217436   0.321   7.593   3.232
 5851TIP3   OH217437   0.274   7.348   3.791
 5851TIP3    H117438   0.211   7.356   3.863
 5851TIP3    H217439   0.324   7.430   3.794
 5852TIP3   OH217440   0.154   6.840   2.345
 5852TIP3    H117441   0.208   6.917   2.325
 5852TIP3    H217442   0.193   6.804   2.425
 5853TIP3   OH217443   0.265   6.697   2.556
 5853TIP3    H117444   0.194   6.663   2.611
 5853TIP3    H217445   0.328   6.735   2.617
 5854TIP3   OH217446   0.309   7.108   2.988
 5854TIP3    H117447   0.356   7.034   2.950
 5854TIP3    H217448   0.328   7.181   2.929
 5855TIP3   OH217449   0.114   7.350   3.145
 5855TIP3    H117450   0.061   7.428   3.164
 5855TIP3    H217451   0.123   7.351   3.049
 5856TIP3   OH217452   0.162   6.610   2.207
 5856TIP3    H117453   0.086   6.605   2.149
 5856TIP3    H217454   0.152   6.693   2.253
 5857TIP3   OH217455   9.826   6.274   2.168
 5857TIP3    H117456   9.755   6.286   2.231
 5857TIP3    H217457   9.815   6.185   2.135
 5858TIP3   OH217458   0.058   6.562   2.688
 5858TIP3    H117459   0.070   6.467   2.683
 5858TIP3    H217460   0.037   6.579   2.780
 5859TIP3   OH217461   0.341   6.998   3.551
 5859TIP3    H117462   0.405   6.926   3.550
 5859TIP3    H217463   0.385   7.069   3.504
 5860TIP3   OH217464   0.518   6.782   3.551
 5860TIP3    H117465   0.438   6.730   3.555
 5860TIP3    H217466   0.587   6.722   3.581
 5861TIP3   OH217467   9.788   6.006   2.101
 5861TIP3    H117468   9.864   5.996   2.157
 5861TIP3    H217469   9.723   5.945   2.137
 5862TIP3   OH217470   0.087   6.280   2.583
 5862TIP3    H117471   0.128   6.195   2.598
 5862TIP3    H217472   0.139   6.320   2.513
 5863TIP3   OH217473   0.243   6.428   3.076
 5863TIP3    H117474   0.328   6.449   3.039
 5863TIP3    H217475   0.241   6.474   3.160
 5864TIP3   OH217476   0.284   6.600   3.284
 5864TIP3    H117477   0.214   6.633   3.341
 5864TIP3    H217478   0.320   6.678   3.243
 5865TIP3   OH217479   0.751   6.198   3.866
 5865TIP3    H117480   0.806   6.129   3.828
 5865TIP3    H217481   0.723   6.250   3.790
 5866TIP3   OH217482   0.189   6.027   2.624
 5866TIP3    H117483   0.223   6.006   2.711
 5866TIP3    H217484   0.128   5.955   2.605
 5867TIP3   OH217485   0.620   6.326   3.659
 5867TIP3    H117486   0.555   6.353   3.724
 5867TIP3    H217487   0.581   6.251   3.615
 5868TIP3   OH217488   0.218   5.957   2.252
 5868TIP3    H117489   0.267   5.897   2.196
 5868TIP3    H217490   0.278   6.031   2.265
 5869TIP3   OH217491   0.510   6.078   3.585
 5869TIP3    H117492   0.415   6.088   3.582
 5869TIP3    H217493   0.524   5.984   3.568
 5870TIP3   OH217494   9.385   5.949   3.094
 5870TIP3    H117495   9.301   5.972   3.132
 5870TIP3    H217496   9.446   6.015   3.129
 5871TIP3   OH217497   0.245   5.909   3.103
 5871TIP3    H117498   0.305   5.938   3.034
 5871TIP3    H217499   0.158   5.919   3.064
 5872TIP3   OH217500   0.334   5.957   2.849
 5872TIP3    H117501   0.404   5.901   2.815
 5872TIP3    H217502   0.367   6.046   2.838
 5873TIP3   OH217503   9.794   5.868   3.001
 5873TIP3    H117504   9.731   5.909   2.942
 5873TIP3    H217505   9.750   5.863   3.085
 5874TIP3   OH217506   9.797   5.829   2.591
 5874TIP3    H117507   9.733   5.897   2.616
 5874TIP3    H217508   9.772   5.753   2.643
 5875TIP3   OH217509   0.274   5.959   3.990
 5875TIP3    H117510   0.291   5.971   4.083
 5875TIP3    H217511   0.352   5.995   3.947
 5876TIP3   OH217512   0.181   7.582   3.530
 5876TIP3    H117513   0.128   7.502   3.524
 5876TIP3    H217514   0.142   7.630   3.603
 5877TIP3   OH217515   1.421   6.980   2.244
 5877TIP3    H117516   1.387   7.067   2.224
 5877TIP3    H217517   1.352   6.919   2.216
 5878TIP3   OH217518   1.430   6.976   2.671
 5878TIP3    H117519   1.481   6.955   2.748
 5878TIP3    H217520   1.382   6.895   2.651
 5879TIP3   OH217521   0.720   6.827   3.011
 5879TIP3    H117522   0.759   6.781   3.085
 5879TIP3    H217523   0.795   6.853   2.957
 5880TIP3   OH217524   1.698   7.278   2.339
 5880TIP3    H117525   1.679   7.212   2.405
 5880TIP3    H217526   1.712   7.359   2.389
 5881TIP3   OH217527   0.700   7.255   2.713
 5881TIP3    H117528   0.687   7.160   2.708
 5881TIP3    H217529   0.795   7.267   2.705
 5882TIP3   OH217530   0.419   6.470   2.494
 5882TIP3    H117531   0.380   6.555   2.515
 5882TIP3    H217532   0.351   6.426   2.443
 5883TIP3   OH217533   0.491   6.780   2.695
 5883TIP3    H117534   0.543   6.705   2.722
 5883TIP3    H217535   0.556   6.847   2.673
 5884TIP3   OH217536   1.354   7.700   2.363
 5884TIP3    H117537   1.382   7.639   2.294
 5884TIP3    H217538   1.351   7.646   2.442
 5885TIP3   OH217539   1.226   7.197   2.672
 5885TIP3    H117540   1.270   7.120   2.638
 5885TIP3    H217541   1.296   7.253   2.705
 5886TIP3   OH217542   2.260   6.512   2.696
 5886TIP3    H117543   2.278   6.597   2.738
 5886TIP3    H217544   2.272   6.529   2.603
 5887TIP3   OH217545   1.637   6.681   2.708
 5887TIP3    H117546   1.670   6.595   2.735
 5887TIP3    H217547   1.599   6.665   2.621
 5888TIP3   OH217548   0.999   6.335   2.663
 5888TIP3    H117549   0.978   6.410   2.607
 5888TIP3    H217550   0.942   6.265   2.632
 5889TIP3   OH217551   1.690   6.443   2.308
 5889TIP3    H117552   1.755   6.436   2.378
 5889TIP3    H217553   1.739   6.477   2.233
 5890TIP3   OH217554   0.638   6.566   2.790
 5890TIP3    H117555   0.721   6.546   2.834
 5890TIP3    H217556   0.637   6.511   2.712
 5891TIP3   OH217557   1.040   6.755   2.621
 5891TIP3    H117558   1.135   6.743   2.625
 5891TIP3    H217559   1.006   6.674   2.584
 5892TIP3   OH217560   2.318   6.736   2.855
 5892TIP3    H117561   2.228   6.771   2.849
 5892TIP3    H217562   2.352   6.772   2.937
 5893TIP3   OH217563   0.970   6.347   3.125
 5893TIP3    H117564   0.921   6.383   3.051
 5893TIP3    H217565   0.916   6.366   3.202
 5894TIP3   OH217566   1.291   7.193   2.129
 5894TIP3    H117567   1.270   7.175   2.037
 5894TIP3    H217568   1.249   7.276   2.148
 5895TIP3   OH217569   1.063   7.120   2.882
 5895TIP3    H117570   1.009   7.192   2.916
 5895TIP3    H217571   1.111   7.159   2.809
 5896TIP3   OH217572   1.850   6.461   2.529
 5896TIP3    H117573   1.806   6.440   2.612
 5896TIP3    H217574   1.903   6.538   2.549
 5897TIP3   OH217575   0.877   6.452   2.885
 5897TIP3    H117576   0.932   6.526   2.910
 5897TIP3    H217577   0.924   6.409   2.814
 5898TIP3   OH217578   0.909   7.322   2.989
 5898TIP3    H117579   0.898   7.413   2.961
 5898TIP3    H217580   0.831   7.304   3.042
 5899TIP3   OH217581   0.330   7.041   2.259
 5899TIP3    H117582   0.332   7.064   2.166
 5899TIP3    H217583   0.342   7.125   2.304
 5900TIP3   OH217584   1.725   7.523   2.486
 5900TIP3    H117585   1.638   7.517   2.525
 5900TIP3    H217586   1.725   7.606   2.438
 5901TIP3   OH217587   2.066   6.397   2.867
 5901TIP3    H117588   1.980   6.413   2.829
 5901TIP3    H217589   2.128   6.425   2.800
 5902TIP3   OH217590   1.313   6.043   2.850
 5902TIP3    H117591   1.302   5.950   2.870
 5902TIP3    H217592   1.236   6.085   2.889
 5903TIP3   OH217593   1.445   7.551   2.148
 5903TIP3    H117594   1.493   7.470   2.132
 5903TIP3    H217595   1.502   7.620   2.115
 5904TIP3   OH217596   1.600   7.336   2.084
 5904TIP3    H117597   1.595   7.257   2.031
 5904TIP3    H217598   1.636   7.307   2.168
 5905TIP3   OH217599   1.976   7.403   2.830
 5905TIP3    H117600   1.950   7.331   2.772
 5905TIP3    H217601   1.960   7.482   2.780
 5906TIP3   OH217602   1.246   6.818   2.096
 5906TIP3    H117603   1.167   6.869   2.078
 5906TIP3    H217604   1.288   6.807   2.011
 5907TIP3   OH217605   1.219   6.610   1.818
 5907TIP3    H117606   1.303   6.644   1.848
 5907TIP3    H217607   1.241   6.545   1.751
 5908TIP3   OH217608   2.138   7.079   2.694
 5908TIP3    H117609   2.052   7.122   2.690
 5908TIP3    H217610   2.174   7.091   2.606
 5909TIP3   OH217611   1.608   6.912   2.057
 5909TIP3    H117612   1.552   6.938   2.130
 5909TIP3    H217613   1.690   6.883   2.099
 5910TIP3   OH217614   1.840   6.938   3.007
 5910TIP3    H117615   1.832   7.021   3.054
 5910TIP3    H217616   1.759   6.932   2.955
 5911TIP3   OH217617   0.837   6.877   2.469
 5911TIP3    H117618   0.803   6.814   2.405
 5911TIP3    H217619   0.912   6.834   2.509
 5912TIP3   OH217620   0.967   7.310   2.616
 5912TIP3    H117621   0.936   7.293   2.526
 5912TIP3    H217622   1.055   7.272   2.618
 5913TIP3   OH217623   0.933   6.884   2.840
 5913TIP3    H117624   0.973   6.847   2.761
 5913TIP3    H217625   0.980   6.966   2.854
 5914TIP3   OH217626   1.488   7.524   2.620
 5914TIP3    H117627   1.477   7.603   2.673
 5914TIP3    H217628   1.472   7.451   2.680
 5915TIP3   OH217629   1.108   7.416   3.159
 5915TIP3    H117630   1.048   7.475   3.205
 5915TIP3    H217631   1.051   7.365   3.101
 5916TIP3   OH217632   1.445   6.758   1.896
 5916TIP3    H117633   1.500   6.819   1.946
 5916TIP3    H217634   1.470   6.772   1.805
 5917TIP3   OH217635   0.872   6.969   3.305
 5917TIP3    H117636   0.876   7.063   3.322
 5917TIP3    H217637   0.778   6.948   3.301
 5918TIP3   OH217638   1.188   7.452   2.159
 5918TIP3    H117639   1.277   7.487   2.162
 5918TIP3    H217640   1.137   7.521   2.115
 5919TIP3   OH217641   0.904   7.581   3.245
 5919TIP3    H117642   0.875   7.591   3.154
 5919TIP3    H217643   0.824   7.564   3.294
 5920TIP3   OH217644   1.953   5.995   1.955
 5920TIP3    H117645   1.873   6.020   2.001
 5920TIP3    H217646   1.973   6.070   1.899
 5921TIP3   OH217647   0.725   6.704   2.277
 5921TIP3    H117648   0.648   6.753   2.247
 5921TIP3    H217649   0.695   6.614   2.283
 5922TIP3   OH217650   1.773   7.369   1.503
 5922TIP3    H117651   1.769   7.461   1.479
 5922TIP3    H217652   1.862   7.342   1.480
 5923TIP3   OH217653   0.502   7.139   3.190
 5923TIP3    H117654   0.434   7.126   3.124
 5923TIP3    H217655   0.534   7.051   3.209
 5924TIP3   OH217656   0.433   7.297   2.831
 5924TIP3    H117657   0.515   7.282   2.785
 5924TIP3    H217658   0.452   7.370   2.890
 5925TIP3   OH217659   2.199   7.801   2.892
 5925TIP3    H117660   2.210   7.706   2.897
 5925TIP3    H217661   2.117   7.818   2.938
 5926TIP3   OH217662   1.301   7.556   3.024
 5926TIP3    H117663   1.292   7.647   3.053
 5926TIP3    H217664   1.232   7.509   3.071
 5927TIP3   OH217665   1.100   7.678   2.003
 5927TIP3    H117666   1.035   7.656   1.937
 5927TIP3    H217667   1.077   7.766   2.031
 5928TIP3   OH217668   0.517   7.534   2.384
 5928TIP3    H117669   0.565   7.525   2.467
 5928TIP3    H217670   0.464   7.455   2.378
 5929TIP3   OH217671   1.300   7.596   1.601
 5929TIP3    H117672   1.359   7.531   1.562
 5929TIP3    H217673   1.334   7.608   1.690
 5930TIP3   OH217674   1.343   7.638   1.875
 5930TIP3    H117675   1.259   7.643   1.921
 5930TIP3    H217676   1.405   7.607   1.942
 5931TIP3   OH217677   2.086   6.893   3.160
 5931TIP3    H117678   2.001   6.905   3.118
 5931TIP3    H217679   2.103   6.799   3.154
 5932TIP3   OH217680   0.694   7.330   3.162
 5932TIP3    H117681   0.746   7.319   3.242
 5932TIP3    H217682   0.625   7.264   3.169
 5933TIP3   OH217683   1.078   6.134   2.978
 5933TIP3    H117684   0.995   6.100   2.943
 5933TIP3    H217685   1.053   6.213   3.025
 5934TIP3   OH217686   1.609   6.261   3.187
 5934TIP3    H117687   1.676   6.246   3.254
 5934TIP3    H217688   1.526   6.245   3.232
 5935TIP3   OH217689   1.838   6.673   3.097
 5935TIP3    H117690   1.797   6.667   3.184
 5935TIP3    H217691   1.822   6.763   3.070
 5936TIP3   OH217692   1.528   6.787   1.641
 5936TIP3    H117693   1.490   6.747   1.563
 5936TIP3    H217694   1.610   6.826   1.612
 5937TIP3   OH217695   1.213   6.169   1.939
 5937TIP3    H117696   1.178   6.175   2.029
 5937TIP3    H217697   1.176   6.088   1.905
 5938TIP3   OH217698   1.019   6.665   2.988
 5938TIP3    H117699   0.973   6.671   3.072
 5938TIP3    H217700   0.997   6.745   2.942
 5939TIP3   OH217701   0.908   6.541   2.508
 5939TIP3    H117702   0.819   6.517   2.534
 5939TIP3    H217703   0.915   6.513   2.417
 5940TIP3   OH217704   1.373   6.615   2.235
 5940TIP3    H117705   1.325   6.687   2.193
 5940TIP3    H217706   1.431   6.581   2.166
 5941TIP3   OH217707   1.563   6.881   3.306
 5941TIP3    H117708   1.535   6.814   3.369
 5941TIP3    H217709   1.655   6.897   3.329
 5942TIP3   OH217710   1.542   6.628   2.457
 5942TIP3    H117711   1.473   6.649   2.393
 5942TIP3    H217712   1.589   6.555   2.417
 5943TIP3   OH217713   0.857   6.682   3.209
 5943TIP3    H117714   0.864   6.749   3.278
 5943TIP3    H217715   0.838   6.601   3.257
 5944TIP3   OH217716   0.881   6.150   1.906
 5944TIP3    H117717   0.875   6.158   2.002
 5944TIP3    H217718   0.803   6.194   1.873
 5945TIP3   OH217719   0.450   6.189   2.778
 5945TIP3    H117720   0.521   6.232   2.826
 5945TIP3    H217721   0.484   6.177   2.690
 5946TIP3   OH217722   0.381   6.177   2.292
 5946TIP3    H117723   0.424   6.211   2.213
 5946TIP3    H217724   0.321   6.247   2.318
 5947TIP3   OH217725   1.592   6.882   2.883
 5947TIP3    H117726   1.614   6.815   2.819
 5947TIP3    H217727   1.545   6.835   2.952
 5948TIP3   OH217728   1.263   6.328   2.556
 5948TIP3    H117729   1.184   6.328   2.610
 5948TIP3    H217730   1.335   6.323   2.619
 5949TIP3   OH217731   0.674   6.412   2.569
 5949TIP3    H117732   0.585   6.419   2.533
 5949TIP3    H217733   0.700   6.322   2.550
 5950TIP3   OH217734   0.909   6.420   2.261
 5950TIP3    H117735   1.004   6.427   2.249
 5950TIP3    H217736   0.873   6.435   2.174
 5951TIP3   OH217737   1.708   6.419   2.768
 5951TIP3    H117738   1.688   6.438   2.860
 5951TIP3    H217739   1.638   6.359   2.741
 5952TIP3   OH217740   0.792   6.433   2.015
 5952TIP3    H117741   0.723   6.389   1.966
 5952TIP3    H217742   0.844   6.478   1.948
 5953TIP3   OH217743   1.908   8.117   2.990
 5953TIP3    H117744   1.902   8.137   2.897
 5953TIP3    H217745   1.983   8.167   3.021
 5954TIP3   OH217746   0.853   7.237   3.390
 5954TIP3    H117747   0.933   7.256   3.439
 5954TIP3    H217748   0.783   7.246   3.455
 5955TIP3   OH217749   1.312   6.706   2.666
 5955TIP3    H117750   1.377   6.656   2.615
 5955TIP3    H217751   1.311   6.663   2.751
 5956TIP3   OH217752   0.806   6.165   2.545
 5956TIP3    H117753   0.778   6.088   2.595
 5956TIP3    H217754   0.822   6.131   2.457
 5957TIP3   OH217755   1.283   6.605   2.930
 5957TIP3    H117756   1.196   6.638   2.952
 5957TIP3    H217757   1.343   6.658   2.982
 5958TIP3   OH217758   1.011   6.975   2.041
 5958TIP3    H117759   0.947   6.905   2.028
 5958TIP3    H217760   0.994   7.006   2.130
 5959TIP3   OH217761   1.901   7.212   2.647
 5959TIP3    H117762   1.935   7.263   2.573
 5959TIP3    H217763   1.822   7.171   2.613
 5960TIP3   OH217764   1.469   6.264   1.950
 5960TIP3    H117765   1.377   6.241   1.934
 5960TIP3    H217766   1.470   6.360   1.948
 5961TIP3   OH217767   1.430   7.295   3.063
 5961TIP3    H117768   1.476   7.284   3.146
 5961TIP3    H217769   1.388   7.380   3.070
 5962TIP3   OH217770   1.541   6.533   2.025
 5962TIP3    H117771   1.636   6.535   2.029
 5962TIP3    H217772   1.517   6.607   1.969
 5963TIP3   OH217773   0.706   6.972   2.690
 5963TIP3    H117774   0.744   6.950   2.605
 5963TIP3    H217775   0.771   6.943   2.753
 5964TIP3   OH217776   1.184   7.100   1.871
 5964TIP3    H117777   1.148   7.189   1.867
 5964TIP3    H217778   1.124   7.052   1.928
 5965TIP3   OH217779   0.604   6.904   3.320
 5965TIP3    H117780   0.596   6.877   3.411
 5965TIP3    H217781   0.529   6.862   3.276
 5966TIP3   OH217782   1.332   7.039   3.346
 5966TIP3    H117783   1.261   6.979   3.320
 5966TIP3    H217784   1.412   6.996   3.317
 5967TIP3   OH217785   1.571   7.586   2.949
 5967TIP3    H117786   1.477   7.568   2.951
 5967TIP3    H217787   1.591   7.621   3.035
 5968TIP3   OH217788   1.961   6.628   1.840
 5968TIP3    H117789   1.907   6.580   1.777
 5968TIP3    H217790   1.961   6.718   1.808
 5969TIP3   OH217791   2.216   7.527   2.908
 5969TIP3    H117792   2.126   7.496   2.921
 5969TIP3    H217793   2.244   7.485   2.827
 5970TIP3   OH217794   1.705   7.452   1.767
 5970TIP3    H117795   1.674   7.385   1.828
 5970TIP3    H217796   1.719   7.404   1.685
 5971TIP3   OH217797   1.676   7.076   2.542
 5971TIP3    H117798   1.586   7.054   2.569
 5971TIP3    H217799   1.709   6.995   2.503
 5972TIP3   OH217800   0.822   7.295   2.379
 5972TIP3    H117801   0.819   7.373   2.323
 5972TIP3    H217802   0.730   7.273   2.394
 5973TIP3   OH217803   0.407   6.593   2.082
 5973TIP3    H117804   0.450   6.675   2.105
 5973TIP3    H217805   0.323   6.596   2.128
 5974TIP3   OH217806   0.932   7.061   2.283
 5974TIP3    H117807   0.907   7.148   2.312
 5974TIP3    H217808   0.899   7.002   2.352
 5975TIP3   OH217809   1.118   7.636   2.821
 5975TIP3    H117810   1.155   7.709   2.772
 5975TIP3    H217811   1.191   7.600   2.871
 5976TIP3   OH217812   0.748   7.518   2.234
 5976TIP3    H117813   0.660   7.529   2.270
 5976TIP3    H217814   0.789   7.604   2.243
 5977TIP3   OH217815   1.460   7.300   2.788
 5977TIP3    H117816   1.451   7.296   2.883
 5977TIP3    H217817   1.529   7.237   2.767
 5978TIP3   OH217818   1.474   7.163   1.660
 5978TIP3    H117819   1.516   7.150   1.745
 5978TIP3    H217820   1.392   7.114   1.666
 5979TIP3   OH217821   1.728   7.787   2.829
 5979TIP3    H117822   1.658   7.727   2.853
 5979TIP3    H217823   1.691   7.841   2.759
 5980TIP3   OH217824   1.780   7.639   1.451
 5980TIP3    H117825   1.800   7.681   1.368
 5980TIP3    H217826   1.705   7.688   1.486
 5981TIP3   OH217827   0.802   6.433   3.333
 5981TIP3    H117828   0.708   6.450   3.335
 5981TIP3    H217829   0.819   6.382   3.412
 5982TIP3   OH217830   1.633   7.127   1.887
 5982TIP3    H117831   1.615   7.051   1.942
 5982TIP3    H217832   1.727   7.122   1.868
 5983TIP3   OH217833   0.524   7.505   2.996
 5983TIP3    H117834   0.590   7.457   3.046
 5983TIP3    H217835   0.486   7.566   3.059
 5984TIP3   OH217836   0.825   7.158   1.681
 5984TIP3    H117837   0.818   7.067   1.650
 5984TIP3    H217838   0.821   7.151   1.776
 5985TIP3   OH217839   0.806   7.170   1.959
 5985TIP3    H117840   0.879   7.119   1.993
 5985TIP3    H217841   0.828   7.260   1.980
 5986TIP3   OH217842   0.506   6.839   2.177
 5986TIP3    H117843   0.443   6.888   2.229
 5986TIP3    H217844   0.536   6.901   2.110
 5987TIP3   OH217845   1.649   6.482   3.028
 5987TIP3    H117846   1.724   6.530   3.062
 5987TIP3    H217847   1.636   6.410   3.089
 5988TIP3   OH217848   1.535   6.227   2.216
 5988TIP3    H117849   1.510   6.243   2.125
 5988TIP3    H217850   1.578   6.308   2.243
 5989TIP3   OH217851   1.076   7.347   1.880
 5989TIP3    H117852   1.003   7.377   1.935
 5989TIP3    H217853   1.093   7.421   1.821
 5990TIP3   OH217854   1.189   6.421   2.304
 5990TIP3    H117855   1.250   6.490   2.277
 5990TIP3    H217856   1.214   6.402   2.395
 5991TIP3   OH217857   1.488   6.721   3.081
 5991TIP3    H117858   1.511   6.765   3.162
 5991TIP3    H217859   1.537   6.639   3.083
 5992TIP3   OH217860   1.351   6.119   2.391
 5992TIP3    H117861   1.326   6.197   2.441
 5992TIP3    H217862   1.418   6.151   2.330
 5993TIP3   OH217863   0.844   7.443   1.990
 5993TIP3    H117864   0.770   7.467   1.934
 5993TIP3    H217865   0.818   7.472   2.078
 5994TIP3   OH217866   0.862   6.147   2.190
 5994TIP3    H117867   0.849   6.238   2.218
 5994TIP3    H217868   0.957   6.134   2.196
 5995TIP3   OH217869   2.101   6.619   3.067
 5995TIP3    H117870   2.007   6.628   3.082
 5995TIP3    H217871   2.108   6.558   2.994
 5996TIP3   OH217872   1.766   6.817   2.454
 5996TIP3    H117873   1.688   6.762   2.464
 5996TIP3    H217874   1.831   6.777   2.511
 5997TIP3   OH217875   0.556   7.059   2.005
 5997TIP3    H117876   0.641   7.102   2.003
 5997TIP3    H217877   0.561   6.993   1.936
 5998TIP3   OH217878   0.448   6.320   2.073
 5998TIP3    H117879   0.445   6.415   2.077
 5998TIP3    H217880   0.433   6.299   1.981
 5999TIP3   OH217881   1.747   7.788   2.398
 5999TIP3    H117882   1.703   7.835   2.327
 5999TIP3    H217883   1.840   7.801   2.381
 6000TIP3   OH217884   0.822   6.042   2.927
 6000TIP3    H117885   0.793   6.008   2.842
 6000TIP3    H217886   0.813   5.968   2.987
 6001TIP3   OH217887   0.343   7.308   2.349
 6001TIP3    H117888   0.313   7.337   2.435
 6001TIP3    H217889   0.288   7.356   2.287
 6002TIP3   OH217890   0.527   7.838   3.398
 6002TIP3    H117891   0.610   7.834   3.447
 6002TIP3    H217892   0.499   7.747   3.392
 6003TIP3   OH217893   1.011   7.740   3.443
 6003TIP3    H117894   1.101   7.707   3.453
 6003TIP3    H217895   0.975   7.690   3.370
 6004TIP3   OH217896   0.933   7.389   1.576
 6004TIP3    H117897   0.887   7.312   1.607
 6004TIP3    H217898   1.011   7.355   1.532
 6005TIP3   OH217899   1.626   7.682   3.199
 6005TIP3    H117900   1.641   7.612   3.263
 6005TIP3    H217901   1.700   7.741   3.211
 6006TIP3   OH217902   1.442   7.386   1.505
 6006TIP3    H117903   1.468   7.316   1.564
 6006TIP3    H217904   1.506   7.383   1.434
 6007TIP3   OH217905   0.653   7.241   3.583
 6007TIP3    H117906   0.671   7.149   3.601
 6007TIP3    H217907   0.566   7.242   3.544
 6008TIP3   OH217908   0.643   6.863   1.842
 6008TIP3    H117909   0.710   6.825   1.898
 6008TIP3    H217910   0.686   6.874   1.757
 6009TIP3   OH217911   1.265   7.315   3.362
 6009TIP3    H117912   1.218   7.335   3.282
 6009TIP3    H217913   1.299   7.227   3.349
 6010TIP3   OH217914   1.215   7.041   1.604
 6010TIP3    H117915   1.195   7.053   1.697
 6010TIP3    H217916   1.215   6.946   1.592
 6011TIP3   OH217917   1.743   7.364   2.984
 6011TIP3    H117918   1.820   7.390   2.933
 6011TIP3    H217919   1.678   7.431   2.965
 6012TIP3   OH217920   0.771   6.987   3.598
 6012TIP3    H117921   0.848   6.968   3.544
 6012TIP3    H217922   0.807   7.005   3.685
 6013TIP3   OH217923   0.836   6.767   2.019
 6013TIP3    H117924   0.808   6.729   2.103
 6013TIP3    H217925   0.870   6.693   1.969
 6014TIP3   OH217926   1.128   6.865   3.253
 6014TIP3    H117927   1.041   6.903   3.265
 6014TIP3    H217928   1.155   6.892   3.166
 6015TIP3   OH217929   0.947   6.582   1.844
 6015TIP3    H117930   0.928   6.577   1.750
 6015TIP3    H217931   1.042   6.589   1.850
 6016TIP3   OH217932   1.616   7.235   3.328
 6016TIP3    H117933   1.685   7.196   3.274
 6016TIP3    H217934   1.612   7.181   3.406
 6017TIP3   OH217935   1.753   6.893   1.518
 6017TIP3    H117936   1.745   6.846   1.435
 6017TIP3    H217937   1.723   6.982   1.499
 6018TIP3   OH217938   1.224   6.630   3.358
 6018TIP3    H117939   1.225   6.560   3.293
 6018TIP3    H217940   1.191   6.706   3.311
 6019TIP3   OH217941   1.232   6.429   3.156
 6019TIP3    H117942   1.258   6.468   3.073
 6019TIP3    H217943   1.140   6.404   3.144
 6020TIP3   OH217944   1.234   6.958   3.021
 6020TIP3    H117945   1.321   6.994   3.010
 6020TIP3    H217946   1.176   7.017   2.972
 6021TIP3   OH217947   1.829   6.916   3.410
 6021TIP3    H117948   1.874   6.833   3.425
 6021TIP3    H217949   1.899   6.980   3.402
 6022TIP3   OH217950   1.854   7.181   3.150
 6022TIP3    H117951   1.802   7.244   3.100
 6022TIP3    H217952   1.944   7.194   3.119
 6023TIP3   OH217953   1.106   6.716   3.600
 6023TIP3    H117954   1.042   6.648   3.623
 6023TIP3    H217955   1.136   6.692   3.512
 6024TIP3   OH217956   1.348   6.196   3.262
 6024TIP3    H117957   1.308   6.277   3.230
 6024TIP3    H217958   1.279   6.130   3.250
 6025TIP3   OH217959   1.478   6.672   3.462
 6025TIP3    H117960   1.468   6.660   3.556
 6025TIP3    H217961   1.392   6.651   3.425
 6026TIP3   OH217962   1.720   6.617   3.333
 6026TIP3    H117963   1.642   6.621   3.388
 6026TIP3    H217964   1.792   6.597   3.394
 6027TIP3   OH217965   1.961   6.594   3.480
 6027TIP3    H117966   1.977   6.500   3.490
 6027TIP3    H217967   1.955   6.627   3.569
 6028TIP3   OH217968   0.952   6.490   3.670
 6028TIP3    H117969   0.949   6.403   3.631
 6028TIP3    H217970   0.994   6.477   3.755
 6029TIP3   OH217971   1.423   6.176   3.527
 6029TIP3    H117972   1.497   6.115   3.522
 6029TIP3    H217973   1.391   6.182   3.437
 6030TIP3   OH217974   1.517   6.401   3.655
 6030TIP3    H117975   1.483   6.326   3.606
 6030TIP3    H217976   1.443   6.462   3.660
 6031TIP3   OH217977   0.290   7.420   2.593
 6031TIP3    H117978   0.267   7.361   2.665
 6031TIP3    H217979   0.326   7.498   2.636
 6032TIP3   OH217980   2.017   7.839   2.386
 6032TIP3    H117981   2.037   7.862   2.477
 6032TIP3    H217982   2.072   7.898   2.334
 6033TIP3   OH217983   2.038   7.860   2.664
 6033TIP3    H117984   1.991   7.777   2.663
 6033TIP3    H217985   2.108   7.847   2.729
 6034TIP3   OH217986   2.093   7.576   3.238
 6034TIP3    H117987   2.021   7.583   3.300
 6034TIP3    H217988   2.139   7.660   3.246
 6035TIP3   OH217989   1.908   7.098   1.855
 6035TIP3    H117990   1.968   7.166   1.824
 6035TIP3    H217991   1.955   7.057   1.929
 6036TIP3   OH217992   2.037   6.950   2.053
 6036TIP3    H117993   1.968   6.909   2.106
 6036TIP3    H217994   2.100   6.984   2.116
 6037TIP3   OH217995   2.090   7.353   2.491
 6037TIP3    H117996   2.140   7.284   2.447
 6037TIP3    H217997   2.089   7.426   2.428
 6038TIP3   OH217998   1.897   7.622   2.683
 6038TIP3    H117999   1.830   7.670   2.733
 6038TIP3    H218000   1.848   7.583   2.610
 6039TIP3   OH218001   1.949   6.869   1.706
 6039TIP3    H118002   1.880   6.868   1.640
 6039TIP3    H218003   1.930   6.947   1.759
 6040TIP3   OH218004   1.823   6.508   1.641
 6040TIP3    H118005   1.761   6.538   1.575
 6040TIP3    H218006   1.822   6.413   1.633
 6041TIP3   OH218007   1.835   6.808   2.185
 6041TIP3    H118008   1.837   6.714   2.169
 6041TIP3    H218009   1.815   6.816   2.279
 6042TIP3   OH218010   0.467   6.891   2.941
 6042TIP3    H118011   0.458   6.856   2.852
 6042TIP3    H218012   0.560   6.880   2.962
 6043TIP3   OH218013   2.106   7.226   3.043
 6043TIP3    H118014   2.176   7.165   3.023
 6043TIP3    H218015   2.091   7.273   2.960
 6044TIP3   OH218016   2.295   7.020   3.038
 6044TIP3    H118017   2.221   6.979   3.083
 6044TIP3    H218018   2.370   6.965   3.060
 6045TIP3   OH218019   1.808   6.235   1.617
 6045TIP3    H118020   1.871   6.215   1.687
 6045TIP3    H218021   1.725   6.201   1.650
 6046TIP3   OH218022   1.835   6.534   2.079
 6046TIP3    H118023   1.881   6.451   2.092
 6046TIP3    H218024   1.875   6.572   2.001
 6047TIP3   OH218025   1.981   6.697   2.599
 6047TIP3    H118026   2.062   6.715   2.550
 6047TIP3    H218027   1.995   6.738   2.684
 6048TIP3   OH218028   2.057   6.848   2.825
 6048TIP3    H118029   1.985   6.875   2.883
 6048TIP3    H218030   2.086   6.929   2.783
 6049TIP3   OH218031   0.697   6.595   3.655
 6049TIP3    H118032   0.791   6.577   3.661
 6049TIP3    H218033   0.656   6.509   3.646
 6050TIP3   OH218034   2.520   6.448   3.364
 6050TIP3    H118035   2.584   6.389   3.326
 6050TIP3    H218036   2.486   6.498   3.290
 6051TIP3   OH218037   1.952   6.284   2.131
 6051TIP3    H118038   1.993   6.266   2.216
 6051TIP3    H218039   1.887   6.216   2.120
 6052TIP3   OH218040   0.666   6.270   2.933
 6052TIP3    H118041   0.719   6.190   2.938
 6052TIP3    H218042   0.730   6.340   2.916
 6053TIP3   OH218043   0.481   6.551   3.018
 6053TIP3    H118044   0.526   6.545   2.934
 6053TIP3    H218045   0.502   6.639   3.050
 6054TIP3   OH218046   2.371   6.575   3.173
 6054TIP3    H118047   2.299   6.612   3.224
 6054TIP3    H218048   2.329   6.510   3.117
 6055TIP3   OH218049   2.027   6.190   1.778
 6055TIP3    H118050   2.069   6.133   1.714
 6055TIP3    H218051   2.078   6.271   1.774
 6056TIP3   OH218052   0.449   6.043   2.517
 6056TIP3    H118053   0.362   6.031   2.554
 6056TIP3    H218054   0.435   6.096   2.439
 6057TIP3   OH218055   1.588   7.743   2.025
 6057TIP3    H118056   1.645   7.745   1.949
 6057TIP3    H218057   1.618   7.816   2.080
 6058TIP3   OH218058   0.646   6.086   3.332
 6058TIP3    H118059   0.594   6.094   3.412
 6058TIP3    H218060   0.602   6.143   3.269
 6059TIP3   OH218061   0.686   7.545   3.412
 6059TIP3    H118062   0.593   7.535   3.396
 6059TIP3    H218063   0.694   7.539   3.508
 6060TIP3   OH218064   0.885   7.595   2.963
 6060TIP3    H118065   0.828   7.664   2.928
 6060TIP3    H218066   0.970   7.610   2.920
 6061TIP3   OH218067   1.286   7.820   3.100
 6061TIP3    H118068   1.323   7.816   3.188
 6061TIP3    H218069   1.346   7.876   3.052
 6062TIP3   OH218070   1.469   7.979   2.971
 6062TIP3    H118071   1.521   7.925   2.912
 6062TIP3    H218072   1.533   8.024   3.025
 6063TIP3   OH218073   2.278   6.328   3.056
 6063TIP3    H118074   2.197   6.329   3.006
 6063TIP3    H218075   2.307   6.237   3.052
 6064TIP3   OH218076   0.540   7.870   2.987
 6064TIP3    H118077   0.449   7.896   2.970
 6064TIP3    H218078   0.565   7.920   3.065
 6065TIP3   OH218079   0.769   7.817   2.850
 6065TIP3    H118080   0.687   7.831   2.897
 6065TIP3    H218081   0.749   7.843   2.760
 6066TIP3   OH218082   1.197   7.845   2.658
 6066TIP3    H118083   1.121   7.851   2.600
 6066TIP3    H218084   1.203   7.931   2.700
 6067TIP3   OH218085   1.458   7.786   2.714
 6067TIP3    H118086   1.367   7.802   2.689
 6067TIP3    H218087   1.509   7.846   2.659
 6068TIP3   OH218088   1.660   7.947   2.604
 6068TIP3    H118089   1.656   8.033   2.564
 6068TIP3    H218090   1.687   7.888   2.533
 6069TIP3   OH218091   0.450   7.610   2.747
 6069TIP3    H118092   0.473   7.585   2.836
 6069TIP3    H218093   0.524   7.581   2.694
 6070TIP3   OH218094   0.665   7.512   2.614
 6070TIP3    H118095   0.678   7.424   2.650
 6070TIP3    H218096   0.753   7.550   2.613
 6071TIP3   OH218097   0.936   7.589   2.616
 6071TIP3    H118098   0.952   7.496   2.600
 6071TIP3    H218099   0.991   7.609   2.692
 6072TIP3   OH218100   1.490   6.242   2.703
 6072TIP3    H118101   1.445   6.170   2.748
 6072TIP3    H218102   1.558   6.199   2.652
 6073TIP3   OH218103   1.988   6.157   2.606
 6073TIP3    H118104   2.024   6.203   2.530
 6073TIP3    H218105   1.894   6.171   2.600
 6074TIP3   OH218106   2.101   6.221   2.361
 6074TIP3    H118107   2.170   6.163   2.329
 6074TIP3    H218108   2.136   6.309   2.349
 6075TIP3   OH218109   0.738   5.937   2.687
 6075TIP3    H118110   0.648   5.904   2.693
 6075TIP3    H218111   0.792   5.858   2.679
 6076TIP3   OH218112   0.553   5.840   2.348
 6076TIP3    H118113   0.582   5.887   2.270
 6076TIP3    H218114   0.524   5.909   2.408
 6077TIP3   OH218115   1.210   5.975   2.589
 6077TIP3    H118116   1.253   6.023   2.518
 6077TIP3    H218117   1.246   6.013   2.669
 6078TIP3   OH218118   1.703   6.119   2.575
 6078TIP3    H118119   1.709   6.094   2.483
 6078TIP3    H218120   1.702   6.036   2.623
 6079TIP3   OH218121   1.760   6.081   2.134
 6079TIP3    H118122   1.678   6.127   2.152
 6079TIP3    H218123   1.747   5.993   2.169
 6080TIP3   OH218124   0.660   5.969   2.117
 6080TIP3    H118125   0.705   5.909   2.058
 6080TIP3    H218126   0.727   6.030   2.146
 6081TIP3   OH218127   1.136   6.171   2.206
 6081TIP3    H118128   1.196   6.117   2.258
 6081TIP3    H218129   1.155   6.261   2.234
 6082TIP3   OH218130   1.058   7.580   1.721
 6082TIP3    H118131   1.139   7.573   1.671
 6082TIP3    H218132   0.996   7.524   1.674
 6083TIP3   OH218133   1.729   7.724   1.785
 6083TIP3    H118134   1.725   7.628   1.783
 6083TIP3    H218135   1.687   7.751   1.703
 6084TIP3   OH218136   0.960   6.216   3.583
 6084TIP3    H118137   0.925   6.146   3.638
 6084TIP3    H218138   1.051   6.225   3.609
 6085TIP3   OH218139   1.207   6.222   3.706
 6085TIP3    H118140   1.285   6.202   3.654
 6085TIP3    H218141   1.202   6.150   3.769
 6086TIP3   OH218142   2.033   6.326   3.493
 6086TIP3    H118143   2.049   6.291   3.581
 6086TIP3    H218144   2.117   6.319   3.449
 6087TIP3   OH218145   1.947   7.846   2.990
 6087TIP3    H118146   1.873   7.814   2.939
 6087TIP3    H218147   1.931   7.940   3.000
 6088TIP3   OH218148   3.221   7.239   1.732
 6088TIP3    H118149   3.192   7.326   1.706
 6088TIP3    H218150   3.150   7.181   1.707
 6089TIP3   OH218151   3.224   7.230   2.157
 6089TIP3    H118152   3.275   7.211   2.236
 6089TIP3    H218153   3.175   7.150   2.140
 6090TIP3   OH218154   2.516   7.087   2.498
 6090TIP3    H118155   2.554   7.035   2.569
 6090TIP3    H218156   2.590   7.112   2.443
 6091TIP3   OH218157   3.488   7.537   1.829
 6091TIP3    H118158   3.474   7.472   1.897
 6091TIP3    H218159   3.506   7.618   1.876
 6092TIP3   OH218160   2.514   7.525   2.188
 6092TIP3    H118161   2.494   7.431   2.195
 6092TIP3    H218162   2.609   7.528   2.178
 6093TIP3   OH218163   2.193   6.728   1.973
 6093TIP3    H118164   2.152   6.811   1.996
 6093TIP3    H218165   2.123   6.677   1.932
 6094TIP3   OH218166   2.265   7.028   2.197
 6094TIP3    H118167   2.316   6.951   2.222
 6094TIP3    H218168   2.330   7.090   2.162
 6095TIP3   OH218169   3.147   7.964   1.842
 6095TIP3    H118170   3.174   7.901   1.775
 6095TIP3    H218171   3.149   7.914   1.924
 6096TIP3   OH218172   3.027   7.452   2.158
 6096TIP3    H118173   3.072   7.373   2.129
 6096TIP3    H218174   3.096   7.508   2.192
 6097TIP3   OH218175   4.047   6.780   2.178
 6097TIP3    H118176   4.070   6.858   2.228
 6097TIP3    H218177   4.062   6.805   2.087
 6098TIP3   OH218178   3.431   6.931   2.197
 6098TIP3    H118179   3.453   6.843   2.225
 6098TIP3    H218180   3.394   6.920   2.109
 6099TIP3   OH218181   2.788   6.593   2.147
 6099TIP3    H118182   2.763   6.667   2.091
 6099TIP3    H218183   2.731   6.522   2.119
 6100TIP3   OH218184   3.490   6.702   1.797
 6100TIP3    H118185   3.556   6.698   1.866
 6100TIP3    H218186   3.537   6.738   1.721
 6101TIP3   OH218187   2.411   6.810   2.286
 6101TIP3    H118188   2.495   6.792   2.329
 6101TIP3    H218189   2.414   6.758   2.205
 6102TIP3   OH218190   2.828   7.012   2.101
 6102TIP3    H118191   2.923   6.997   2.106
 6102TIP3    H218192   2.793   6.930   2.066
 6103TIP3   OH218193   4.113   6.993   2.343
 6103TIP3    H118194   4.024   7.028   2.343
 6103TIP3    H218195   4.152   7.026   2.424
 6104TIP3   OH218196   2.765   6.605   2.608
 6104TIP3    H118197   2.715   6.640   2.534
 6104TIP3    H218198   2.710   6.621   2.684
 6105TIP3   OH218199   3.122   7.458   1.593
 6105TIP3    H118200   3.080   7.425   1.514
 6105TIP3    H218201   3.068   7.532   1.620
 6106TIP3   OH218202   2.858   7.378   2.367
 6106TIP3    H118203   2.806   7.449   2.403
 6106TIP3    H218204   2.906   7.418   2.294
 6107TIP3   OH218205   3.649   6.711   2.020
 6107TIP3    H118206   3.596   6.693   2.097
 6107TIP3    H218207   3.696   6.791   2.042
 6108TIP3   OH218208   2.663   6.706   2.371
 6108TIP3    H118209   2.717   6.781   2.394
 6108TIP3    H218210   2.709   6.664   2.299
 6109TIP3   OH218211   2.708   7.580   2.481
 6109TIP3    H118212   2.695   7.671   2.454
 6109TIP3    H218213   2.630   7.559   2.533
 6110TIP3   OH218214   2.083   7.282   1.734
 6110TIP3    H118215   2.046   7.300   1.647
 6110TIP3    H218216   2.105   7.369   1.768
 6111TIP3   OH218217   3.518   7.784   1.968
 6111TIP3    H118218   3.432   7.777   2.009
 6111TIP3    H218219   3.517   7.869   1.924
 6112TIP3   OH218220   3.845   6.681   2.344
 6112TIP3    H118221   3.764   6.721   2.312
 6112TIP3    H218222   3.911   6.709   2.282
 6113TIP3   OH218223   3.102   6.296   2.351
 6113TIP3    H118224   3.094   6.203   2.373
 6113TIP3    H218225   3.023   6.336   2.388
 6114TIP3   OH218226   3.234   7.817   1.621
 6114TIP3    H118227   3.287   7.737   1.611
 6114TIP3    H218228   3.292   7.888   1.596
 6115TIP3   OH218229   3.372   7.584   1.581
 6115TIP3    H118230   3.296   7.526   1.581
 6115TIP3    H218231   3.421   7.561   1.660
 6116TIP3   OH218232   3.764   7.669   2.312
 6116TIP3    H118233   3.743   7.594   2.256
 6116TIP3    H218234   3.748   7.745   2.257
 6117TIP3   OH218235   3.044   7.077   1.589
 6117TIP3    H118236   2.961   7.119   1.572
 6117TIP3    H218237   3.088   7.073   1.504
 6118TIP3   OH218238   3.012   6.883   1.276
 6118TIP3    H118239   3.079   6.931   1.325
 6118TIP3    H218240   3.061   6.817   1.227
 6119TIP3   OH218241   3.937   7.333   2.183
 6119TIP3    H118242   3.852   7.377   2.182
 6119TIP3    H218243   3.972   7.347   2.095
 6120TIP3   OH218244   3.406   7.163   1.546
 6120TIP3    H118245   3.351   7.193   1.618
 6120TIP3    H218246   3.490   7.143   1.587
 6121TIP3   OH218247   3.636   7.193   2.494
 6121TIP3    H118248   3.631   7.277   2.540
 6121TIP3    H218249   3.554   7.189   2.443
 6122TIP3   OH218250   2.628   7.143   1.951
 6122TIP3    H118251   2.590   7.082   1.887
 6122TIP3    H218252   2.700   7.094   1.990
 6123TIP3   OH218253   2.775   7.571   2.089
 6123TIP3    H118254   2.748   7.556   1.998
 6123TIP3    H218255   2.862   7.531   2.095
 6124TIP3   OH218256   2.730   7.139   2.326
 6124TIP3    H118257   2.767   7.103   2.245
 6124TIP3    H218258   2.777   7.221   2.340
 6125TIP3   OH218259   3.282   7.781   2.103
 6125TIP3    H118260   3.272   7.861   2.153
 6125TIP3    H218261   3.267   7.711   2.166
 6126TIP3   OH218262   2.910   7.676   2.646
 6126TIP3    H118263   2.852   7.732   2.697
 6126TIP3    H218264   2.852   7.626   2.589
 6127TIP3   OH218265   3.233   7.022   1.383
 6127TIP3    H118266   3.293   7.081   1.428
 6127TIP3    H218267   3.261   7.025   1.291
 6128TIP3   OH218268   2.657   7.217   2.792
 6128TIP3    H118269   2.663   7.310   2.812
 6128TIP3    H218270   2.563   7.200   2.785
 6129TIP3   OH218271   2.985   7.695   1.636
 6129TIP3    H118272   3.066   7.747   1.638
 6129TIP3    H218273   2.923   7.749   1.587
 6130TIP3   OH218274   2.708   7.831   2.750
 6130TIP3    H118275   2.675   7.846   2.661
 6130TIP3    H218276   2.630   7.829   2.805
 6131TIP3   OH218277   3.750   6.253   1.445
 6131TIP3    H118278   3.673   6.275   1.497
 6131TIP3    H218279   3.761   6.327   1.386
 6132TIP3   OH218280   2.502   6.983   1.753
 6132TIP3    H118281   2.426   7.032   1.722
 6132TIP3    H218282   2.468   6.894   1.768
 6133TIP3   OH218283   3.533   7.628   0.986
 6133TIP3    H118284   3.534   7.723   0.970
 6133TIP3    H218285   3.625   7.607   1.003
 6134TIP3   OH218286   2.291   7.394   2.683
 6134TIP3    H118287   2.221   7.376   2.621
 6134TIP3    H218288   2.324   7.307   2.708
 6135TIP3   OH218289   2.130   7.587   2.336
 6135TIP3    H118290   2.219   7.614   2.359
 6135TIP3    H218291   2.075   7.663   2.360
 6136TIP3   OH218292   3.995   8.043   2.384
 6136TIP3    H118293   4.002   7.948   2.396
 6136TIP3    H218294   3.915   8.067   2.430
 6137TIP3   OH218295   3.106   7.811   2.512
 6137TIP3    H118296   3.120   7.888   2.567
 6137TIP3    H218297   3.034   7.764   2.554
 6138TIP3   OH218298   2.872   7.914   1.465
 6138TIP3    H118299   2.824   7.894   1.385
 6138TIP3    H218300   2.835   7.997   1.495
 6139TIP3   OH218301   2.307   7.775   1.839
 6139TIP3    H118302   2.351   7.767   1.924
 6139TIP3    H218303   2.257   7.694   1.830
 6140TIP3   OH218304   3.075   7.861   1.093
 6140TIP3    H118305   3.121   7.784   1.059
 6140TIP3    H218306   3.107   7.870   1.183
 6141TIP3   OH218307   3.125   7.891   1.365
 6141TIP3    H118308   3.037   7.895   1.402
 6141TIP3    H218309   3.180   7.855   1.434
 6142TIP3   OH218310   3.882   7.148   2.650
 6142TIP3    H118311   3.796   7.159   2.608
 6142TIP3    H218312   3.899   7.054   2.647
 6143TIP3   OH218313   2.491   7.582   2.654
 6143TIP3    H118314   2.544   7.564   2.732
 6143TIP3    H218315   2.419   7.518   2.659
 6144TIP3   OH218316   2.867   6.388   2.468
 6144TIP3    H118317   2.784   6.352   2.436
 6144TIP3    H218318   2.843   6.468   2.514
 6145TIP3   OH218319   3.419   6.497   2.666
 6145TIP3    H118320   3.488   6.476   2.729
 6145TIP3    H218321   3.338   6.487   2.716
 6146TIP3   OH218322   3.630   6.926   2.581
 6146TIP3    H118323   3.590   6.920   2.667
 6146TIP3    H218324   3.616   7.018   2.555
 6147TIP3   OH218325   3.310   6.997   1.122
 6147TIP3    H118326   3.257   7.001   1.042
 6147TIP3    H218327   3.389   7.045   1.100
 6148TIP3   OH218328   3.030   6.417   1.434
 6148TIP3    H118329   2.988   6.428   1.520
 6148TIP3    H218330   2.989   6.339   1.398
 6149TIP3   OH218331   2.814   6.917   2.472
 6149TIP3    H118332   2.767   6.923   2.556
 6149TIP3    H218333   2.790   6.998   2.426
 6150TIP3   OH218334   2.690   6.797   1.993
 6150TIP3    H118335   2.600   6.773   2.018
 6150TIP3    H218336   2.699   6.766   1.903
 6151TIP3   OH218337   3.170   6.872   1.723
 6151TIP3    H118338   3.121   6.945   1.684
 6151TIP3    H218339   3.225   6.840   1.652
 6152TIP3   OH218340   3.360   7.132   2.794
 6152TIP3    H118341   3.333   7.065   2.857
 6152TIP3    H218342   3.451   7.150   2.816
 6153TIP3   OH218343   3.339   6.887   1.943
 6153TIP3    H118344   3.269   6.908   1.882
 6153TIP3    H218345   3.385   6.814   1.902
 6154TIP3   OH218346   2.650   6.933   2.692
 6154TIP3    H118347   2.656   7.000   2.761
 6154TIP3    H218348   2.629   6.852   2.739
 6155TIP3   OH218349   2.694   6.409   1.411
 6155TIP3    H118350   2.681   6.413   1.506
 6155TIP3    H218351   2.615   6.449   1.375
 6156TIP3   OH218352   2.229   6.445   2.282
 6156TIP3    H118353   2.307   6.482   2.325
 6156TIP3    H218354   2.257   6.425   2.193
 6157TIP3   OH218355   2.156   6.436   1.780
 6157TIP3    H118356   2.196   6.470   1.700
 6157TIP3    H218357   2.089   6.500   1.802
 6158TIP3   OH218358   3.387   7.136   2.370
 6158TIP3    H118359   3.410   7.068   2.307
 6158TIP3    H218360   3.342   7.089   2.440
 6159TIP3   OH218361   3.056   6.585   2.049
 6159TIP3    H118362   2.972   6.585   2.096
 6159TIP3    H218363   3.122   6.575   2.118
 6160TIP3   OH218364   2.451   6.672   2.052
 6160TIP3    H118365   2.363   6.680   2.016
 6160TIP3    H218366   2.475   6.581   2.037
 6161TIP3   OH218367   2.706   6.677   1.747
 6161TIP3    H118368   2.801   6.685   1.733
 6161TIP3    H218369   2.668   6.693   1.661
 6162TIP3   OH218370   3.482   6.660   2.239
 6162TIP3    H118371   3.477   6.676   2.333
 6162TIP3    H218372   3.413   6.596   2.221
 6163TIP3   OH218373   2.590   6.696   1.501
 6163TIP3    H118374   2.527   6.646   1.449
 6163TIP3    H218375   2.643   6.742   1.436
 6164TIP3   OH218376   3.702   8.378   2.471
 6164TIP3    H118377   3.700   8.392   2.376
 6164TIP3    H218378   3.777   8.429   2.501
 6165TIP3   OH218379   2.647   7.487   2.883
 6165TIP3    H118380   2.725   7.515   2.929
 6165TIP3    H218381   2.577   7.492   2.948
 6166TIP3   OH218382   3.103   6.964   2.152
 6166TIP3    H118383   3.168   6.912   2.105
 6166TIP3    H218384   3.100   6.924   2.239
 6167TIP3   OH218385   2.593   6.421   2.036
 6167TIP3    H118386   2.564   6.347   2.089
 6167TIP3    H218387   2.604   6.384   1.948
 6168TIP3   OH218388   3.080   6.865   2.415
 6168TIP3    H118389   2.993   6.895   2.439
 6168TIP3    H218390   3.139   6.916   2.470
 6169TIP3   OH218391   2.807   7.209   1.534
 6169TIP3    H118392   2.733   7.154   1.509
 6169TIP3    H218393   2.780   7.252   1.615
 6170TIP3   OH218394   3.701   7.467   2.135
 6170TIP3    H118395   3.736   7.518   2.061
 6170TIP3    H218396   3.621   7.428   2.100
 6171TIP3   OH218397   3.279   6.524   1.444
 6171TIP3    H118398   3.187   6.499   1.437
 6171TIP3    H218399   3.278   6.620   1.451
 6172TIP3   OH218400   3.227   7.540   2.553
 6172TIP3    H118401   3.278   7.528   2.633
 6172TIP3    H218402   3.187   7.626   2.563
 6173TIP3   OH218403   3.333   6.793   1.508
 6173TIP3    H118404   3.428   6.801   1.515
 6173TIP3    H218405   3.306   6.869   1.457
 6174TIP3   OH218406   2.504   7.239   2.179
 6174TIP3    H118407   2.539   7.216   2.093
 6174TIP3    H218408   2.567   7.204   2.241
 6175TIP3   OH218409   2.961   7.372   1.379
 6175TIP3    H118410   2.914   7.455   1.374
 6175TIP3    H218411   2.904   7.314   1.430
 6176TIP3   OH218412   2.382   7.156   2.809
 6176TIP3    H118413   2.381   7.129   2.901
 6176TIP3    H218414   2.307   7.111   2.769
 6177TIP3   OH218415   3.125   7.280   2.831
 6177TIP3    H118416   3.056   7.220   2.804
 6177TIP3    H218417   3.206   7.237   2.804
 6178TIP3   OH218418   3.372   7.836   2.422
 6178TIP3    H118419   3.279   7.816   2.425
 6178TIP3    H218420   3.391   7.876   2.507
 6179TIP3   OH218421   3.753   6.878   1.321
 6179TIP3    H118422   3.698   6.831   1.258
 6179TIP3    H218423   3.750   6.969   1.292
 6180TIP3   OH218424   4.006   7.764   2.402
 6180TIP3    H118425   3.912   7.745   2.399
 6180TIP3    H218426   4.039   7.731   2.319
 6181TIP3   OH218427   3.485   7.694   1.266
 6181TIP3    H118428   3.454   7.634   1.334
 6181TIP3    H218429   3.476   7.644   1.185
 6182TIP3   OH218430   3.471   7.335   2.031
 6182TIP3    H118431   3.382   7.313   2.059
 6182TIP3    H218432   3.504   7.254   1.992
 6183TIP3   OH218433   2.625   7.570   1.850
 6183TIP3    H118434   2.621   7.645   1.792
 6183TIP3    H218435   2.536   7.560   1.884
 6184TIP3   OH218436   2.185   6.854   1.567
 6184TIP3    H118437   2.228   6.938   1.587
 6184TIP3    H218438   2.105   6.855   1.619
 6185TIP3   OH218439   2.710   7.326   1.757
 6185TIP3    H118440   2.691   7.414   1.786
 6185TIP3    H218441   2.682   7.269   1.829
 6186TIP3   OH218442   2.914   7.893   2.308
 6186TIP3    H118443   2.947   7.967   2.256
 6186TIP3    H218444   2.991   7.860   2.354
 6187TIP3   OH218445   2.544   7.791   1.699
 6187TIP3    H118446   2.456   7.797   1.736
 6187TIP3    H218447   2.578   7.880   1.704
 6188TIP3   OH218448   3.258   7.558   2.277
 6188TIP3    H118449   3.247   7.548   2.372
 6188TIP3    H218450   3.335   7.505   2.256
 6189TIP3   OH218451   3.256   7.429   1.137
 6189TIP3    H118452   3.305   7.400   1.214
 6189TIP3    H218453   3.172   7.385   1.144
 6190TIP3   OH218454   3.527   8.046   2.309
 6190TIP3    H118455   3.456   7.985   2.330
 6190TIP3    H218456   3.489   8.107   2.246
 6191TIP3   OH218457   3.552   7.900   0.949
 6191TIP3    H118458   3.558   7.949   0.867
 6191TIP3    H218459   3.486   7.948   1.000
 6192TIP3   OH218460   2.593   6.682   2.813
 6192TIP3    H118461   2.497   6.692   2.817
 6192TIP3    H218462   2.615   6.634   2.892
 6193TIP3   OH218463   3.426   7.341   1.333
 6193TIP3    H118464   3.407   7.290   1.412
 6193TIP3    H218465   3.521   7.351   1.333
 6194TIP3   OH218466   2.337   7.780   2.459
 6194TIP3    H118467   2.392   7.724   2.514
 6194TIP3    H218468   2.351   7.868   2.494
 6195TIP3   OH218469   2.614   7.396   1.165
 6195TIP3    H118470   2.625   7.305   1.138
 6195TIP3    H218471   2.595   7.392   1.258
 6196TIP3   OH218472   2.546   7.418   1.433
 6196TIP3    H118473   2.606   7.393   1.503
 6196TIP3    H218474   2.544   7.513   1.435
 6197TIP3   OH218475   2.280   7.107   1.642
 6197TIP3    H118476   2.214   7.155   1.693
 6197TIP3    H218477   2.299   7.164   1.568
 6198TIP3   OH218478   3.462   6.717   2.503
 6198TIP3    H118479   3.528   6.775   2.542
 6198TIP3    H218480   3.450   6.647   2.567
 6199TIP3   OH218481   3.340   6.483   1.712
 6199TIP3    H118482   3.315   6.497   1.620
 6199TIP3    H218483   3.380   6.566   1.738
 6200TIP3   OH218484   2.820   7.603   1.371
 6200TIP3    H118485   2.734   7.626   1.407
 6200TIP3    H218486   2.842   7.675   1.312
 6201TIP3   OH218487   2.990   6.676   1.793
 6201TIP3    H118488   3.049   6.747   1.768
 6201TIP3    H218489   3.010   6.659   1.885
 6202TIP3   OH218490   3.287   6.975   2.571
 6202TIP3    H118491   3.307   7.026   2.650
 6202TIP3    H218492   3.333   6.893   2.583
 6203TIP3   OH218493   3.148   6.379   1.884
 6203TIP3    H118494   3.122   6.456   1.934
 6203TIP3    H218495   3.216   6.410   1.824
 6204TIP3   OH218496   2.570   7.691   1.445
 6204TIP3    H118497   2.548   7.763   1.386
 6204TIP3    H218498   2.558   7.728   1.533
 6205TIP3   OH218499   2.659   6.403   1.690
 6205TIP3    H118500   2.646   6.494   1.718
 6205TIP3    H218501   2.753   6.389   1.696
 6206TIP3   OH218502   3.895   6.874   2.557
 6206TIP3    H118503   3.800   6.884   2.571
 6206TIP3    H218504   3.901   6.809   2.488
 6207TIP3   OH218505   3.561   7.075   1.943
 6207TIP3    H118506   3.482   7.022   1.955
 6207TIP3    H218507   3.625   7.035   2.003
 6208TIP3   OH218508   2.303   7.282   1.424
 6208TIP3    H118509   2.372   7.347   1.432
 6208TIP3    H218510   2.335   7.219   1.359
 6209TIP3   OH218511   2.207   6.576   1.551
 6209TIP3    H118512   2.215   6.671   1.559
 6209TIP3    H218513   2.137   6.564   1.486
 6210TIP3   OH218514   3.539   8.051   1.888
 6210TIP3    H118515   3.496   8.104   1.821
 6210TIP3    H218516   3.633   8.064   1.873
 6211TIP3   OH218517   2.612   6.294   2.423
 6211TIP3    H118518   2.581   6.262   2.338
 6211TIP3    H218519   2.600   6.219   2.482
 6212TIP3   OH218520   2.133   7.553   1.814
 6212TIP3    H118521   2.085   7.589   1.889
 6212TIP3    H218522   2.091   7.592   1.738
 6213TIP3   OH218523   2.313   8.062   2.880
 6213TIP3    H118524   2.400   8.043   2.916
 6213TIP3    H218525   2.268   7.978   2.877
 6214TIP3   OH218526   2.764   7.599   1.055
 6214TIP3    H118527   2.716   7.529   1.100
 6214TIP3    H218528   2.837   7.555   1.012
 6215TIP3   OH218529   3.407   7.949   2.668
 6215TIP3    H118530   3.409   7.884   2.738
 6215TIP3    H218531   3.481   8.007   2.685
 6216TIP3   OH218532   3.197   7.645   0.980
 6216TIP3    H118533   3.235   7.577   1.036
 6216TIP3    H218534   3.250   7.642   0.900
 6217TIP3   OH218535   2.439   7.490   3.069
 6217TIP3    H118536   2.454   7.396   3.082
 6217TIP3    H218537   2.353   7.495   3.026
 6218TIP3   OH218538   2.433   7.093   1.276
 6218TIP3    H118539   2.482   7.069   1.354
 6218TIP3    H218540   2.499   7.106   1.209
 6219TIP3   OH218541   3.049   7.549   2.852
 6219TIP3    H118542   3.012   7.580   2.769
 6219TIP3    H218543   3.082   7.461   2.831
 6220TIP3   OH218544   3.008   7.310   1.115
 6220TIP3    H118545   2.981   7.321   1.206
 6220TIP3    H218546   2.984   7.219   1.094
 6221TIP3   OH218547   3.538   7.613   2.463
 6221TIP3    H118548   3.617   7.640   2.415
 6221TIP3    H218549   3.474   7.682   2.446
 6222TIP3   OH218550   2.552   7.236   3.084
 6222TIP3    H118551   2.628   7.208   3.033
 6222TIP3    H218552   2.588   7.254   3.171
 6223TIP3   OH218553   2.601   7.032   1.488
 6223TIP3    H118554   2.578   6.999   1.575
 6223TIP3    H218555   2.648   6.959   1.447
 6224TIP3   OH218556   2.917   7.115   2.734
 6224TIP3    H118557   2.830   7.154   2.746
 6224TIP3    H218558   2.946   7.146   2.648
 6225TIP3   OH218559   2.741   6.850   1.331
 6225TIP3    H118560   2.710   6.853   1.241
 6225TIP3    H218561   2.836   6.858   1.324
 6226TIP3   OH218562   3.413   7.497   2.810
 6226TIP3    H118563   3.486   7.461   2.760
 6226TIP3    H218564   3.407   7.443   2.888
 6227TIP3   OH218565   3.524   7.127   1.008
 6227TIP3    H118566   3.504   7.087   0.923
 6227TIP3    H218567   3.504   7.220   0.995
 6228TIP3   OH218568   3.019   6.886   2.845
 6228TIP3    H118569   3.020   6.814   2.781
 6228TIP3    H218570   2.983   6.960   2.797
 6229TIP3   OH218571   3.026   6.687   2.641
 6229TIP3    H118572   3.051   6.726   2.558
 6229TIP3    H218573   2.935   6.661   2.630
 6230TIP3   OH218574   3.031   7.217   2.508
 6230TIP3    H118575   3.116   7.261   2.504
 6230TIP3    H218576   2.972   7.274   2.458
 6231TIP3   OH218577   3.625   7.170   2.897
 6231TIP3    H118578   3.670   7.087   2.914
 6231TIP3    H218579   3.695   7.234   2.890
 6232TIP3   OH218580   3.655   7.438   2.634
 6232TIP3    H118581   3.603   7.499   2.582
 6232TIP3    H218582   3.745   7.452   2.604
 6233TIP3   OH218583   2.905   6.968   3.090
 6233TIP3    H118584   2.834   6.908   3.112
 6233TIP3    H218585   2.932   6.943   3.002
 6234TIP3   OH218586   3.151   6.456   2.743
 6234TIP3    H118587   3.109   6.536   2.711
 6234TIP3    H218588   3.083   6.389   2.733
 6235TIP3   OH218589   3.273   6.924   2.950
 6235TIP3    H118590   3.263   6.911   3.044
 6235TIP3    H218591   3.187   6.904   2.914
 6236TIP3   OH218592   3.514   6.870   2.817
 6236TIP3    H118593   3.437   6.873   2.873
 6236TIP3    H218594   3.587   6.852   2.877
 6237TIP3   OH218595   3.755   6.850   2.965
 6237TIP3    H118596   3.770   6.756   2.973
 6237TIP3    H218597   3.750   6.882   3.055
 6238TIP3   OH218598   2.736   6.749   3.152
 6238TIP3    H118599   2.741   6.660   3.117
 6238TIP3    H218600   2.773   6.742   3.240
 6239TIP3   OH218601   3.215   6.434   3.010
 6239TIP3    H118602   3.284   6.368   3.005
 6239TIP3    H218603   3.185   6.445   2.920
 6240TIP3   OH218604   3.313   6.648   3.154
 6240TIP3    H118605   3.281   6.576   3.101
 6240TIP3    H218606   3.240   6.710   3.157
 6241TIP3   OH218607   2.568   7.906   1.269
 6241TIP3    H118608   2.655   7.884   1.238
 6241TIP3    H218609   2.526   7.949   1.194
 6242TIP3   OH218610   2.030   7.278   1.444
 6242TIP3    H118611   2.125   7.287   1.442
 6242TIP3    H218612   2.012   7.193   1.404
 6243TIP3   OH218613   1.931   7.871   1.901
 6243TIP3    H118614   1.867   7.821   1.850
 6243TIP3    H218615   1.973   7.806   1.958
 6244TIP3   OH218616   2.074   7.696   2.065
 6244TIP3    H118617   2.064   7.626   2.129
 6244TIP3    H218618   2.127   7.762   2.110
 6245TIP3   OH218619   3.810   8.100   1.878
 6245TIP3    H118620   3.832   8.124   1.968
 6245TIP3    H218621   3.859   8.161   1.824
 6246TIP3   OH218622   3.840   8.122   2.157
 6246TIP3    H118623   3.793   8.039   2.152
 6246TIP3    H218624   3.909   8.106   2.222
 6247TIP3   OH218625   3.890   7.835   2.728
 6247TIP3    H118626   3.817   7.842   2.789
 6247TIP3    H218627   3.936   7.919   2.735
 6248TIP3   OH218628   3.703   7.338   1.352
 6248TIP3    H118629   3.757   7.415   1.331
 6248TIP3    H218630   3.748   7.297   1.425
 6249TIP3   OH218631   3.846   7.199   1.544
 6249TIP3    H118632   3.778   7.166   1.602
 6249TIP3    H218633   3.909   7.241   1.602
 6250TIP3   OH218634   3.883   7.611   1.978
 6250TIP3    H118635   3.934   7.544   1.934
 6250TIP3    H218636   3.885   7.686   1.918
 6251TIP3   OH218637   3.694   7.886   2.159
 6251TIP3    H118638   3.629   7.934   2.210
 6251TIP3    H218639   3.644   7.847   2.088
 6252TIP3   OH218640   3.728   7.119   1.191
 6252TIP3    H118641   3.656   7.117   1.129
 6252TIP3    H218642   3.713   7.196   1.244
 6253TIP3   OH218643   3.610   6.768   1.117
 6253TIP3    H118644   3.554   6.809   1.050
 6253TIP3    H218645   3.596   6.674   1.106
 6254TIP3   OH218646   3.637   7.070   1.677
 6254TIP3    H118647   3.637   6.975   1.662
 6254TIP3    H218648   3.615   7.079   1.770
 6255TIP3   OH218649   2.251   7.127   2.451
 6255TIP3    H118650   2.240   7.095   2.362
 6255TIP3    H218651   2.346   7.123   2.466
 6256TIP3   OH218652   3.912   7.483   2.537
 6256TIP3    H118653   3.980   7.417   2.521
 6256TIP3    H218654   3.920   7.544   2.465
 6257TIP3   OH218655   4.092   7.273   2.527
 6257TIP3    H118656   4.018   7.231   2.572
 6257TIP3    H218657   4.167   7.217   2.547
 6258TIP3   OH218658   3.562   6.499   1.097
 6258TIP3    H118659   3.624   6.470   1.164
 6258TIP3    H218660   3.478   6.463   1.124
 6259TIP3   OH218661   3.630   6.791   1.565
 6259TIP3    H118662   3.676   6.709   1.579
 6259TIP3    H218663   3.669   6.828   1.486
 6260TIP3   OH218664   3.774   6.950   2.089
 6260TIP3    H118665   3.855   6.967   2.039
 6260TIP3    H218666   3.788   6.995   2.173
 6261TIP3   OH218667   3.850   7.103   2.312
 6261TIP3    H118668   3.781   7.131   2.372
 6261TIP3    H218669   3.882   7.185   2.273
 6262TIP3   OH218670   2.474   6.815   3.089
 6262TIP3    H118671   2.568   6.811   3.108
 6262TIP3    H218672   2.438   6.735   3.127
 6263TIP3   OH218673   4.317   6.705   2.852
 6263TIP3    H118674   4.382   6.647   2.813
 6263TIP3    H218675   4.281   6.753   2.778
 6264TIP3   OH218676   3.750   6.542   1.626
 6264TIP3    H118677   3.791   6.528   1.712
 6264TIP3    H218678   3.686   6.472   1.618
 6265TIP3   OH218679   2.453   6.521   2.429
 6265TIP3    H118680   2.505   6.442   2.439
 6265TIP3    H218681   2.517   6.590   2.413
 6266TIP3   OH218682   2.227   6.781   2.502
 6266TIP3    H118683   2.279   6.770   2.422
 6266TIP3    H218684   2.250   6.869   2.532
 6267TIP3   OH218685   4.166   6.824   2.658
 6267TIP3    H118686   4.091   6.862   2.703
 6267TIP3    H218687   4.129   6.755   2.604
 6268TIP3   OH218688   3.792   6.449   1.256
 6268TIP3    H118689   3.836   6.389   1.195
 6268TIP3    H218690   3.846   6.528   1.254
 6269TIP3   OH218691   2.221   6.317   2.018
 6269TIP3    H118692   2.134   6.295   2.050
 6269TIP3    H218693   2.205   6.366   1.937
 6270TIP3   OH218694   3.380   8.019   1.523
 6270TIP3    H118695   3.434   8.008   1.444
 6270TIP3    H218696   3.419   8.093   1.569
 6271TIP3   OH218697   2.444   6.348   2.825
 6271TIP3    H118698   2.398   6.350   2.909
 6271TIP3    H218699   2.388   6.398   2.766
 6272TIP3   OH218700   2.481   7.824   2.924
 6272TIP3    H118701   2.393   7.802   2.895
 6272TIP3    H218702   2.485   7.795   3.015
 6273TIP3   OH218703   2.688   7.856   2.461
 6273TIP3    H118704   2.634   7.927   2.426
 6273TIP3    H218705   2.772   7.865   2.416
 6274TIP3   OH218706   3.262   8.256   2.465
 6274TIP3    H118707   3.303   8.174   2.438
 6274TIP3    H218708   3.330   8.300   2.517
 6275TIP3   OH218709   4.077   6.571   2.550
 6275TIP3    H118710   3.988   6.551   2.522
 6275TIP3    H218711   4.123   6.486   2.548
 6276TIP3   OH218712   2.337   8.075   2.489
 6276TIP3    H118713   2.247   8.096   2.465
 6276TIP3    H218714   2.359   8.139   2.557
 6277TIP3   OH218715   2.574   8.078   2.348
 6277TIP3    H118716   2.487   8.080   2.389
 6277TIP3    H218717   2.558   8.101   2.257
 6278TIP3   OH218718   2.989   8.102   2.141
 6278TIP3    H118719   2.918   8.112   2.078
 6278TIP3    H218720   2.996   8.189   2.182
 6279TIP3   OH218721   3.253   8.043   2.194
 6279TIP3    H118722   3.161   8.061   2.173
 6279TIP3    H218723   3.302   8.112   2.150
 6280TIP3   OH218724   3.457   8.217   2.093
 6280TIP3    H118725   3.450   8.303   2.051
 6280TIP3    H218726   3.482   8.158   2.023
 6281TIP3   OH218727   2.252   7.871   2.210
 6281TIP3    H118728   2.275   7.845   2.299
 6281TIP3    H218729   2.324   7.839   2.156
 6282TIP3   OH218730   2.458   7.763   2.071
 6282TIP3    H118731   2.469   7.680   2.116
 6282TIP3    H218732   2.544   7.804   2.075
 6283TIP3   OH218733   2.727   7.846   2.100
 6283TIP3    H118734   2.746   7.754   2.085
 6283TIP3    H218735   2.780   7.869   2.177
 6284TIP3   OH218736   3.281   6.457   2.202
 6284TIP3    H118737   3.216   6.419   2.261
 6284TIP3    H218738   3.334   6.383   2.173
 6285TIP3   OH218739   3.862   6.407   2.118
 6285TIP3    H118740   3.874   6.498   2.090
 6285TIP3    H218741   3.769   6.389   2.100
 6286TIP3   OH218742   3.937   6.468   1.850
 6286TIP3    H118743   3.994   6.419   1.792
 6286TIP3    H218744   3.957   6.560   1.833
 6287TIP3   OH218745   2.522   6.195   2.183
 6287TIP3    H118746   2.432   6.163   2.191
 6287TIP3    H218747   2.574   6.116   2.171
 6288TIP3   OH218748   2.363   6.120   1.856
 6288TIP3    H118749   2.380   6.164   1.772
 6288TIP3    H218750   2.320   6.187   1.910
 6289TIP3   OH218751   3.008   6.230   2.082
 6289TIP3    H118752   3.053   6.280   2.014
 6289TIP3    H218753   3.041   6.265   2.164
 6290TIP3   OH218754   3.613   6.348   2.011
 6290TIP3    H118755   3.551   6.407   1.967
 6290TIP3    H218756   3.559   6.297   2.072
 6291TIP3   OH218757   3.564   6.333   1.635
 6291TIP3    H118758   3.483   6.380   1.654
 6291TIP3    H218759   3.547   6.244   1.665
 6292TIP3   OH218760   2.021   7.666   1.590
 6292TIP3    H118761   1.937   7.635   1.555
 6292TIP3    H218762   2.025   7.758   1.565
 6293TIP3   OH218763   2.452   6.232   1.603
 6293TIP3    H118764   2.497   6.169   1.547
 6293TIP3    H218765   2.522   6.289   1.636
 6294TIP3   OH218766   2.934   6.427   1.695
 6294TIP3    H118767   2.989   6.371   1.749
 6294TIP3    H218768   2.952   6.516   1.725
 6295TIP3   OH218769   2.820   7.826   1.194
 6295TIP3    H118770   2.902   7.855   1.155
 6295TIP3    H218771   2.791   7.754   1.139
 6296TIP3   OH218772   3.523   7.964   1.290
 6296TIP3    H118773   3.513   7.869   1.283
 6296TIP3    H218774   3.476   7.998   1.214
 6297TIP3   OH218775   2.753   6.478   3.066
 6297TIP3    H118776   2.718   6.412   3.127
 6297TIP3    H218777   2.845   6.486   3.091
 6298TIP3   OH218778   3.000   6.484   3.189
 6298TIP3    H118779   3.077   6.461   3.137
 6298TIP3    H218780   2.994   6.415   3.255
 6299TIP3   OH218781   2.131   7.644   1.268
 6299TIP3    H118782   2.132   7.648   1.364
 6299TIP3    H218783   2.215   7.605   1.245
 6300TIP3   OH218784   3.823   6.580   2.975
 6300TIP3    H118785   3.838   6.550   3.065
 6300TIP3    H218786   3.909   6.573   2.934
 6301TIP3   OH218787   3.743   8.105   2.476
 6301TIP3    H118788   3.670   8.074   2.423
 6301TIP3    H218789   3.729   8.199   2.485
 6302TIP3   OH218790   4.984   7.458   1.222
 6302TIP3    H118791   4.969   7.552   1.231
 6302TIP3    H218792   4.973   7.423   1.311
 6303TIP3   OH218793   5.011   7.474   1.639
 6303TIP3    H118794   5.060   7.467   1.721
 6303TIP3    H218795   4.966   7.390   1.630
 6304TIP3   OH218796   4.308   7.353   2.000
 6304TIP3    H118797   4.343   7.295   2.068
 6304TIP3    H218798   4.385   7.400   1.968
 6305TIP3   OH218799   5.322   7.780   1.358
 6305TIP3    H118800   5.291   7.719   1.426
 6305TIP3    H218801   5.330   7.864   1.404
 6306TIP3   OH218802   4.308   7.762   1.668
 6306TIP3    H118803   4.289   7.670   1.685
 6306TIP3    H218804   4.403   7.766   1.658
 6307TIP3   OH218805   3.991   6.978   1.451
 6307TIP3    H118806   3.953   7.059   1.483
 6307TIP3    H218807   3.917   6.929   1.414
 6308TIP3   OH218808   4.070   7.294   1.682
 6308TIP3    H118809   4.120   7.216   1.708
 6308TIP3    H218810   4.137   7.361   1.669
 6309TIP3   OH218811   4.925   8.266   1.336
 6309TIP3    H118812   4.943   8.177   1.308
 6309TIP3    H218813   4.887   8.257   1.424
 6310TIP3   OH218814   4.830   7.703   1.645
 6310TIP3    H118815   4.874   7.621   1.620
 6310TIP3    H218816   4.900   7.758   1.679
 6311TIP3   OH218817   5.855   7.029   1.674
 6311TIP3    H118818   5.850   7.122   1.697
 6311TIP3    H218819   5.894   7.028   1.587
 6312TIP3   OH218820   5.221   7.189   1.696
 6312TIP3    H118821   5.256   7.105   1.724
 6312TIP3    H218822   5.186   7.173   1.609
 6313TIP3   OH218823   4.578   6.858   1.641
 6313TIP3    H118824   4.562   6.928   1.578
 6313TIP3    H218825   4.524   6.785   1.611
 6314TIP3   OH218826   5.286   6.958   1.293
 6314TIP3    H118827   5.339   6.941   1.371
 6314TIP3    H218828   5.348   6.998   1.231
 6315TIP3   OH218829   4.205   7.068   1.768
 6315TIP3    H118830   4.288   7.052   1.814
 6315TIP3    H218831   4.213   7.019   1.686
 6316TIP3   OH218832   4.632   7.262   1.581
 6316TIP3    H118833   4.726   7.249   1.592
 6316TIP3    H218834   4.601   7.179   1.546
 6317TIP3   OH218835   5.897   7.264   1.839
 6317TIP3    H118836   5.805   7.290   1.837
 6317TIP3    H218837   5.931   7.301   1.921
 6318TIP3   OH218838   4.564   6.860   2.093
 6318TIP3    H118839   4.512   6.897   2.022
 6318TIP3    H218840   4.509   6.873   2.171
 6319TIP3   OH218841   4.910   7.716   1.231
 6319TIP3    H118842   4.848   7.691   1.163
 6319TIP3    H218843   4.867   7.787   1.278
 6320TIP3   OH218844   4.657   7.637   1.852
 6320TIP3    H118845   4.603   7.708   1.887
 6320TIP3    H218846   4.706   7.676   1.780
 6321TIP3   OH218847   5.438   6.960   1.518
 6321TIP3    H118848   5.391   6.938   1.599
 6321TIP3    H218849   5.488   7.038   1.540
 6322TIP3   OH218850   4.453   6.970   1.863
 6322TIP3    H118851   4.507   7.045   1.888
 6322TIP3    H218852   4.502   6.928   1.792
 6323TIP3   OH218853   4.502   7.837   1.963
 6323TIP3    H118854   4.489   7.928   1.936
 6323TIP3    H218855   4.424   7.818   2.016
 6324TIP3   OH218856   3.876   7.534   1.264
 6324TIP3    H118857   3.831   7.547   1.181
 6324TIP3    H218858   3.900   7.621   1.293
 6325TIP3   OH218859   5.316   8.029   1.476
 6325TIP3    H118860   5.231   8.019   1.520
 6325TIP3    H218861   5.304   8.104   1.419
 6326TIP3   OH218862   5.657   6.919   1.838
 6326TIP3    H118863   5.574   6.923   1.791
 6326TIP3    H218864   5.722   6.947   1.773
 6327TIP3   OH218865   4.904   6.548   1.831
 6327TIP3    H118866   4.896   6.456   1.858
 6327TIP3    H218867   4.828   6.591   1.871
 6328TIP3   OH218868   4.975   8.035   1.178
 6328TIP3    H118869   5.038   7.962   1.183
 6328TIP3    H218870   5.025   8.106   1.138
 6329TIP3   OH218871   5.175   7.844   1.139
 6329TIP3    H118872   5.197   7.777   1.074
 6329TIP3    H218873   5.218   7.815   1.219
 6330TIP3   OH218874   5.548   7.926   1.809
 6330TIP3    H118875   5.531   7.849   1.755
 6330TIP3    H218876   5.533   8.001   1.751
 6331TIP3   OH218877   4.776   7.322   1.098
 6331TIP3    H118878   4.699   7.378   1.091
 6331TIP3    H218879   4.846   7.381   1.127
 6332TIP3   OH218880   4.788   7.092   0.941
 6332TIP3    H118881   4.854   7.160   0.956
 6332TIP3    H218882   4.830   7.033   0.878
 6333TIP3   OH218883   5.728   7.571   1.657
 6333TIP3    H118884   5.646   7.618   1.667
 6333TIP3    H218885   5.759   7.594   1.569
 6334TIP3   OH218886   5.194   7.403   1.058
 6334TIP3    H118887   5.120   7.428   1.115
 6334TIP3    H218888   5.259   7.366   1.118
 6335TIP3   OH218889   5.421   7.453   1.986
 6335TIP3    H118890   5.419   7.537   2.032
 6335TIP3    H218891   5.339   7.451   1.937
 6336TIP3   OH218892   4.418   7.390   1.458
 6336TIP3    H118893   4.381   7.327   1.396
 6336TIP3    H218894   4.496   7.347   1.492
 6337TIP3   OH218895   4.573   7.812   1.576
 6337TIP3    H118896   4.553   7.815   1.482
 6337TIP3    H218897   4.663   7.779   1.580
 6338TIP3   OH218898   4.533   7.398   1.807
 6338TIP3    H118899   4.572   7.360   1.728
 6338TIP3    H218900   4.580   7.480   1.820
 6339TIP3   OH218901   5.080   8.026   1.605
 6339TIP3    H118902   5.064   8.110   1.648
 6339TIP3    H218903   5.059   7.960   1.671
 6340TIP3   OH218904   4.701   7.930   2.133
 6340TIP3    H118905   4.641   7.987   2.181
 6340TIP3    H218906   4.644   7.880   2.074
 6341TIP3   OH218907   5.040   7.212   0.934
 6341TIP3    H118908   5.083   7.285   0.980
 6341TIP3    H218909   5.093   7.199   0.856
 6342TIP3   OH218910   4.454   7.485   2.268
 6342TIP3    H118911   4.459   7.577   2.293
 6342TIP3    H218912   4.360   7.465   2.267
 6343TIP3   OH218913   4.735   7.932   1.258
 6343TIP3    H118914   4.811   7.983   1.231
 6343TIP3    H218915   4.677   7.934   1.182
 6344TIP3   OH218916   4.503   8.095   2.229
 6344TIP3    H118917   4.475   8.108   2.138
 6344TIP3    H218918   4.421   8.082   2.277
 6345TIP3   OH218919   5.536   6.535   0.959
 6345TIP3    H118920   5.461   6.543   1.018
 6345TIP3    H218921   5.566   6.625   0.946
 6346TIP3   OH218922   4.286   7.215   1.272
 6346TIP3    H118923   4.215   7.272   1.242
 6346TIP3    H218924   4.242   7.136   1.303
 6347TIP3   OH218925   4.087   7.650   2.169
 6347TIP3    H118926   4.016   7.632   2.108
 6347TIP3    H218927   4.120   7.563   2.194
 6348TIP3   OH218928   3.925   7.849   1.831
 6348TIP3    H118929   4.014   7.878   1.854
 6348TIP3    H218930   3.869   7.923   1.853
 6349TIP3   OH218931   5.778   8.279   1.896
 6349TIP3    H118932   5.782   8.184   1.907
 6349TIP3    H218933   5.697   8.305   1.940
 6350TIP3   OH218934   4.887   8.083   1.999
 6350TIP3    H118935   4.878   8.172   2.031
 6350TIP3    H218936   4.819   8.033   2.044
 6351TIP3   OH218937   4.544   8.190   1.022
 6351TIP3    H118938   4.549   8.095   1.033
 6351TIP3    H218939   4.635   8.219   1.026
 6352TIP3   OH218940   4.092   8.022   1.337
 6352TIP3    H118941   4.137   8.014   1.421
 6352TIP3    H218942   4.043   7.940   1.328
 6353TIP3   OH218943   4.840   8.110   0.591
 6353TIP3    H118944   4.868   8.019   0.577
 6353TIP3    H218945   4.846   8.122   0.686
 6354TIP3   OH218946   4.903   8.069   0.878
 6354TIP3    H118947   4.866   8.123   0.948
 6354TIP3    H218948   4.971   8.123   0.838
 6355TIP3   OH218949   5.673   7.396   2.135
 6355TIP3    H118950   5.589   7.409   2.091
 6355TIP3    H218951   5.690   7.302   2.127
 6356TIP3   OH218952   4.287   7.837   2.136
 6356TIP3    H118953   4.336   7.827   2.217
 6356TIP3    H218954   4.214   7.775   2.143
 6357TIP3   OH218955   4.669   6.643   1.953
 6357TIP3    H118956   4.585   6.609   1.922
 6357TIP3    H218957   4.647   6.724   2.000
 6358TIP3   OH218958   5.208   6.765   2.154
 6358TIP3    H118959   5.277   6.740   2.216
 6358TIP3    H218960   5.127   6.749   2.201
 6359TIP3   OH218961   5.433   7.187   2.074
 6359TIP3    H118962   5.392   7.181   2.160
 6359TIP3    H218963   5.413   7.276   2.044
 6360TIP3   OH218964   5.237   7.228   0.730
 6360TIP3    H118965   5.222   7.188   0.645
 6360TIP3    H218966   5.190   7.312   0.725
 6361TIP3   OH218967   4.830   6.572   1.028
 6361TIP3    H118968   4.781   6.631   1.084
 6361TIP3    H218969   4.764   6.523   0.980
 6362TIP3   OH218970   4.603   7.180   1.961
 6362TIP3    H118971   4.557   7.187   2.045
 6362TIP3    H218972   4.580   7.260   1.914
 6363TIP3   OH218973   4.492   7.049   1.462
 6363TIP3    H118974   4.405   7.021   1.490
 6363TIP3    H218975   4.487   7.051   1.367
 6364TIP3   OH218976   4.935   7.142   1.252
 6364TIP3    H118977   4.875   7.192   1.197
 6364TIP3    H218978   4.969   7.073   1.194
 6365TIP3   OH218979   5.151   7.391   2.280
 6365TIP3    H118980   5.125   7.323   2.343
 6365TIP3    H218981   5.243   7.407   2.300
 6366TIP3   OH218982   5.134   7.143   1.440
 6366TIP3    H118983   5.058   7.156   1.383
 6366TIP3    H218984   5.184   7.074   1.396
 6367TIP3   OH218985   4.441   7.188   2.185
 6367TIP3    H118986   4.455   7.250   2.256
 6367TIP3    H218987   4.425   7.104   2.228
 6368TIP3   OH218988   4.436   6.615   0.930
 6368TIP3    H118989   4.440   6.626   1.025
 6368TIP3    H218990   4.350   6.651   0.906
 6369TIP3   OH218991   4.025   6.707   1.763
 6369TIP3    H118992   4.100   6.746   1.810
 6369TIP3    H218993   4.055   6.699   1.673
 6370TIP3   OH218994   3.945   6.684   1.259
 6370TIP3    H118995   3.997   6.720   1.187
 6370TIP3    H218996   3.881   6.753   1.278
 6371TIP3   OH218997   5.173   7.400   1.859
 6371TIP3    H118998   5.199   7.331   1.798
 6371TIP3    H218999   5.128   7.354   1.930
 6372TIP3   OH219000   4.842   6.820   1.535
 6372TIP3    H119001   4.764   6.834   1.589
 6372TIP3    H219002   4.915   6.825   1.597
 6373TIP3   OH219003   4.252   6.933   1.529
 6373TIP3    H119004   4.162   6.935   1.496
 6373TIP3    H219005   4.278   6.841   1.521
 6374TIP3   OH219006   5.288   6.925   1.749
 6374TIP3    H119007   5.272   6.944   1.841
 6374TIP3    H219008   5.217   6.866   1.724
 6375TIP3   OH219009   4.335   6.899   1.121
 6375TIP3    H119010   4.251   6.887   1.075
 6375TIP3    H219011   4.395   6.931   1.053
 6376TIP3   OH219012   5.490   8.637   1.976
 6376TIP3    H119013   5.489   8.639   1.880
 6376TIP3    H219014   5.566   8.689   2.000
 6377TIP3   OH219015   4.442   7.750   2.369
 6377TIP3    H119016   4.519   7.783   2.415
 6377TIP3    H219017   4.371   7.755   2.434
 6378TIP3   OH219018   4.901   7.213   1.640
 6378TIP3    H119019   4.963   7.158   1.593
 6378TIP3    H219020   4.896   7.175   1.728
 6379TIP3   OH219021   4.390   6.684   1.519
 6379TIP3    H119022   4.366   6.609   1.572
 6379TIP3    H219023   4.406   6.647   1.432
 6380TIP3   OH219024   4.869   7.123   1.903
 6380TIP3    H119025   4.783   7.155   1.928
 6380TIP3    H219026   4.930   7.173   1.957
 6381TIP3   OH219027   4.545   7.461   1.072
 6381TIP3    H119028   4.467   7.408   1.054
 6381TIP3    H219029   4.524   7.507   1.154
 6382TIP3   OH219030   5.489   7.709   1.649
 6382TIP3    H119031   5.525   7.755   1.574
 6382TIP3    H219032   5.408   7.668   1.617
 6383TIP3   OH219033   5.043   6.723   0.947
 6383TIP3    H119034   4.965   6.674   0.972
 6383TIP3    H219035   5.024   6.814   0.971
 6384TIP3   OH219036   5.008   7.807   2.044
 6384TIP3    H119037   5.059   7.798   2.124
 6384TIP3    H219038   4.968   7.894   2.051
 6385TIP3   OH219039   5.064   6.975   1.059
 6385TIP3    H119040   5.159   6.977   1.052
 6385TIP3    H219041   5.035   7.052   1.010
 6386TIP3   OH219042   4.289   7.473   1.684
 6386TIP3    H119043   4.327   7.455   1.598
 6386TIP3    H219044   4.356   7.444   1.746
 6387TIP3   OH219045   4.724   7.661   1.045
 6387TIP3    H119046   4.681   7.746   1.055
 6387TIP3    H219047   4.653   7.597   1.050
 6388TIP3   OH219048   4.180   7.416   2.299
 6388TIP3    H119049   4.184   7.392   2.392
 6388TIP3    H219050   4.105   7.368   2.265
 6389TIP3   OH219051   4.919   7.545   2.320
 6389TIP3    H119052   4.849   7.485   2.294
 6389TIP3    H219053   5.000   7.501   2.292
 6390TIP3   OH219054   5.158   8.100   1.929
 6390TIP3    H119055   5.063   8.089   1.934
 6390TIP3    H219056   5.182   8.136   2.013
 6391TIP3   OH219057   5.569   7.140   0.822
 6391TIP3    H119058   5.505   7.099   0.764
 6391TIP3    H219059   5.530   7.224   0.844
 6392TIP3   OH219060   5.795   7.997   1.896
 6392TIP3    H119061   5.700   7.987   1.888
 6392TIP3    H219062   5.829   7.969   1.811
 6393TIP3   OH219063   5.458   7.888   0.756
 6393TIP3    H119064   5.368   7.909   0.780
 6393TIP3    H219065   5.450   7.823   0.687
 6394TIP3   OH219066   5.260   7.584   1.544
 6394TIP3    H119067   5.171   7.562   1.569
 6394TIP3    H219068   5.297   7.502   1.512
 6395TIP3   OH219069   4.411   7.843   1.340
 6395TIP3    H119070   4.410   7.924   1.289
 6395TIP3    H219071   4.320   7.832   1.369
 6396TIP3   OH219072   3.976   7.104   1.081
 6396TIP3    H119073   4.017   7.185   1.111
 6396TIP3    H219074   3.890   7.104   1.121
 6397TIP3   OH219075   4.518   7.595   1.301
 6397TIP3    H119076   4.483   7.683   1.313
 6397TIP3    H219077   4.480   7.544   1.372
 6398TIP3   OH219078   4.705   8.152   1.786
 6398TIP3    H119079   4.738   8.218   1.726
 6398TIP3    H219080   4.782   8.124   1.837
 6399TIP3   OH219081   4.319   8.074   1.199
 6399TIP3    H119082   4.232   8.062   1.236
 6399TIP3    H219083   4.334   8.168   1.201
 6400TIP3   OH219084   5.057   7.804   1.774
 6400TIP3    H119085   5.037   7.801   1.868
 6400TIP3    H219086   5.146   7.771   1.767
 6401TIP3   OH219087   5.142   7.707   0.694
 6401TIP3    H119088   5.213   7.652   0.728
 6401TIP3    H219089   5.086   7.723   0.770
 6402TIP3   OH219090   5.311   8.307   1.809
 6402TIP3    H119091   5.242   8.243   1.829
 6402TIP3    H219092   5.272   8.363   1.741
 6403TIP3   OH219093   4.393   6.934   2.302
 6403TIP3    H119094   4.297   6.941   2.308
 6403TIP3    H219095   4.418   6.881   2.377
 6404TIP3   OH219096   5.249   7.654   0.962
 6404TIP3    H119097   5.229   7.563   0.985
 6404TIP3    H219098   5.342   7.654   0.940
 6405TIP3   OH219099   4.132   8.044   1.949
 6405TIP3    H119100   4.187   7.988   2.004
 6405TIP3    H219101   4.143   8.131   1.985
 6406TIP3   OH219102   4.407   7.724   0.618
 6406TIP3    H119103   4.490   7.677   0.604
 6406TIP3    H219104   4.405   7.743   0.711
 6407TIP3   OH219105   4.274   7.703   1.032
 6407TIP3    H119106   4.351   7.670   0.987
 6407TIP3    H219107   4.274   7.797   1.017
 6408TIP3   OH219108   4.067   7.351   1.170
 6408TIP3    H119109   4.005   7.390   1.233
 6408TIP3    H219110   4.076   7.417   1.102
 6409TIP3   OH219111   5.238   6.997   2.009
 6409TIP3    H119112   5.317   7.041   2.041
 6409TIP3    H219113   5.229   6.920   2.065
 6410TIP3   OH219114   5.140   6.728   1.219
 6410TIP3    H119115   5.113   6.741   1.128
 6410TIP3    H219116   5.177   6.812   1.245
 6411TIP3   OH219117   4.596   7.915   1.015
 6411TIP3    H119118   4.503   7.916   0.992
 6411TIP3    H219119   4.642   7.920   0.931
 6412TIP3   OH219120   5.077   7.231   2.054
 6412TIP3    H119121   5.102   7.273   2.137
 6412TIP3    H219122   5.127   7.150   2.052
 6413TIP3   OH219123   4.944   6.619   1.381
 6413TIP3    H119124   4.919   6.696   1.432
 6413TIP3    H219125   5.016   6.650   1.326
 6414TIP3   OH219126   4.333   7.963   0.953
 6414TIP3    H119127   4.321   8.034   0.890
 6414TIP3    H219128   4.316   8.003   1.038
 6415TIP3   OH219129   4.431   6.656   1.206
 6415TIP3    H119130   4.398   6.745   1.195
 6415TIP3    H219131   4.524   6.666   1.224
 6416TIP3   OH219132   5.693   7.116   2.041
 6416TIP3    H119133   5.601   7.133   2.057
 6416TIP3    H219134   5.694   7.054   1.967
 6417TIP3   OH219135   5.351   7.333   1.465
 6417TIP3    H119136   5.276   7.274   1.465
 6417TIP3    H219137   5.416   7.289   1.520
 6418TIP3   OH219138   4.059   7.547   0.976
 6418TIP3    H119139   4.117   7.608   1.022
 6418TIP3    H219140   4.087   7.552   0.885
 6419TIP3   OH219141   4.031   6.837   1.040
 6419TIP3    H119142   4.018   6.930   1.058
 6419TIP3    H219143   3.956   6.813   0.986
 6420TIP3   OH219144   5.318   8.309   1.421
 6420TIP3    H119145   5.281   8.339   1.338
 6420TIP3    H219146   5.412   8.326   1.414
 6421TIP3   OH219147   4.410   6.556   1.909
 6421TIP3    H119148   4.380   6.523   1.824
 6421TIP3    H219149   4.398   6.482   1.969
 6422TIP3   OH219150   3.920   7.804   1.313
 6422TIP3    H119151   3.877   7.844   1.389
 6422TIP3    H219152   3.873   7.840   1.238
 6423TIP3   OH219153   4.112   8.348   2.370
 6423TIP3    H119154   4.192   8.354   2.423
 6423TIP3    H219155   4.093   8.254   2.365
 6424TIP3   OH219156   4.565   8.265   2.443
 6424TIP3    H119157   4.656   8.292   2.457
 6424TIP3    H219158   4.567   8.211   2.365
 6425TIP3   OH219159   4.592   7.913   0.523
 6425TIP3    H119160   4.515   7.857   0.516
 6425TIP3    H219161   4.640   7.898   0.442
 6426TIP3   OH219162   5.222   8.197   2.177
 6426TIP3    H119163   5.235   8.128   2.241
 6426TIP3    H219164   5.295   8.257   2.190
 6427TIP3   OH219165   4.236   7.744   2.556
 6427TIP3    H119166   4.253   7.651   2.568
 6427TIP3    H219167   4.148   7.748   2.517
 6428TIP3   OH219168   4.264   7.345   0.893
 6428TIP3    H119169   4.172   7.325   0.912
 6428TIP3    H219170   4.261   7.428   0.845
 6429TIP3   OH219171   4.860   7.820   2.331
 6429TIP3    H119172   4.811   7.841   2.251
 6429TIP3    H219173   4.886   7.728   2.320
 6430TIP3   OH219174   4.652   7.611   0.657
 6430TIP3    H119175   4.734   7.627   0.704
 6430TIP3    H219176   4.675   7.550   0.588
 6431TIP3   OH219177   5.320   7.871   1.953
 6431TIP3    H119178   5.399   7.898   1.907
 6431TIP3    H219179   5.259   7.944   1.941
 6432TIP3   OH219180   4.350   7.488   2.569
 6432TIP3    H119181   4.430   7.466   2.521
 6432TIP3    H219182   4.381   7.510   2.657
 6433TIP3   OH219183   4.438   7.199   1.041
 6433TIP3    H119184   4.392   7.196   1.125
 6433TIP3    H219185   4.375   7.239   0.981
 6434TIP3   OH219186   4.711   7.376   2.221
 6434TIP3    H119187   4.626   7.418   2.231
 6434TIP3    H219188   4.743   7.405   2.136
 6435TIP3   OH219189   4.534   6.949   0.926
 6435TIP3    H119190   4.483   6.910   0.855
 6435TIP3    H219191   4.615   6.898   0.928
 6436TIP3   OH219192   5.217   7.752   2.304
 6436TIP3    H119193   5.285   7.715   2.248
 6436TIP3    H219194   5.213   7.694   2.380
 6437TIP3   OH219195   5.291   7.411   0.479
 6437TIP3    H119196   5.307   7.331   0.429
 6437TIP3    H219197   5.236   7.465   0.422
 6438TIP3   OH219198   4.813   7.144   2.330
 6438TIP3    H119199   4.816   7.074   2.266
 6438TIP3    H219200   4.778   7.220   2.282
 6439TIP3   OH219201   4.823   6.945   2.128
 6439TIP3    H119202   4.849   6.984   2.044
 6439TIP3    H219203   4.732   6.918   2.115
 6440TIP3   OH219204   4.827   7.476   1.996
 6440TIP3    H119205   4.913   7.517   1.992
 6440TIP3    H219206   4.770   7.534   1.946
 6441TIP3   OH219207   5.420   7.425   2.376
 6441TIP3    H119208   5.458   7.337   2.386
 6441TIP3    H219209   5.495   7.483   2.365
 6442TIP3   OH219210   5.448   7.699   2.121
 6442TIP3    H119211   5.394   7.759   2.069
 6442TIP3    H219212   5.537   7.712   2.089
 6443TIP3   OH219213   4.700   7.224   2.575
 6443TIP3    H119214   4.629   7.163   2.597
 6443TIP3    H219215   4.727   7.199   2.487
 6444TIP3   OH219216   4.944   6.714   2.233
 6444TIP3    H119217   4.903   6.795   2.200
 6444TIP3    H219218   4.877   6.647   2.222
 6445TIP3   OH219219   5.068   7.181   2.436
 6445TIP3    H119220   5.057   7.168   2.530
 6445TIP3    H219221   4.982   7.161   2.399
 6446TIP3   OH219222   5.316   7.137   2.311
 6446TIP3    H119223   5.236   7.135   2.364
 6446TIP3    H219224   5.385   7.111   2.372
 6447TIP3   OH219225   5.555   7.105   2.457
 6447TIP3    H119226   5.568   7.010   2.464
 6447TIP3    H219227   5.549   7.135   2.547
 6448TIP3   OH219228   4.531   7.006   2.638
 6448TIP3    H119229   4.537   6.917   2.603
 6448TIP3    H219230   4.569   6.999   2.726
 6449TIP3   OH219231   5.010   6.690   2.499
 6449TIP3    H119232   5.077   6.622   2.492
 6449TIP3    H219233   4.980   6.702   2.409
 6450TIP3   OH219234   5.108   6.904   2.641
 6450TIP3    H119235   5.076   6.831   2.588
 6450TIP3    H219236   5.035   6.966   2.644
 6451TIP3   OH219237   4.315   8.000   0.603
 6451TIP3    H119238   4.406   8.029   0.612
 6451TIP3    H219239   4.263   8.080   0.604
 6452TIP3   OH219240   3.787   7.524   0.999
 6452TIP3    H119241   3.882   7.532   0.989
 6452TIP3    H219242   3.767   7.436   0.967
 6453TIP3   OH219243   3.729   8.110   1.390
 6453TIP3    H119244   3.661   8.058   1.346
 6453TIP3    H219245   3.770   8.049   1.452
 6454TIP3   OH219246   3.872   7.945   1.560
 6454TIP3    H119247   3.867   7.878   1.629
 6454TIP3    H219248   3.923   8.016   1.599
 6455TIP3   OH219249   5.581   8.362   1.401
 6455TIP3    H119250   5.625   8.374   1.485
 6455TIP3    H219251   5.613   8.435   1.347
 6456TIP3   OH219252   5.648   8.367   1.667
 6456TIP3    H119253   5.599   8.285   1.659
 6456TIP3    H219254   5.712   8.351   1.736
 6457TIP3   OH219255   5.686   8.093   2.219
 6457TIP3    H119256   5.614   8.100   2.281
 6457TIP3    H219257   5.728   8.179   2.221
 6458TIP3   OH219258   5.524   7.657   0.931
 6458TIP3    H119259   5.555   7.713   0.860
 6458TIP3    H219260   5.588   7.587   0.936
 6459TIP3   OH219261   5.642   7.441   1.086
 6459TIP3    H119262   5.585   7.492   1.143
 6459TIP3    H219263   5.730   7.474   1.104
 6460TIP3   OH219264   5.650   7.840   1.476
 6460TIP3    H119265   5.700   7.780   1.420
 6460TIP3    H219266   5.665   7.926   1.439
 6461TIP3   OH219267   5.484   8.146   1.662
 6461TIP3    H119268   5.418   8.197   1.709
 6461TIP3    H219269   5.437   8.108   1.588
 6462TIP3   OH219270   5.558   7.345   0.592
 6462TIP3    H119271   5.470   7.316   0.617
 6462TIP3    H219272   5.599   7.369   0.676
 6463TIP3   OH219273   5.414   7.022   0.632
 6463TIP3    H119274   5.408   7.058   0.544
 6463TIP3    H219275   5.446   6.933   0.620
 6464TIP3   OH219276   5.391   7.293   1.198
 6464TIP3    H119277   5.440   7.210   1.194
 6464TIP3    H219278   5.396   7.319   1.290
 6465TIP3   OH219279   4.045   7.386   1.939
 6465TIP3    H119280   4.037   7.356   1.849
 6465TIP3    H219281   4.139   7.383   1.957
 6466TIP3   OH219282   5.707   7.738   2.029
 6466TIP3    H119283   5.774   7.671   2.015
 6466TIP3    H219284   5.728   7.806   1.965
 6467TIP3   OH219285   5.885   7.526   2.021
 6467TIP3    H119286   5.811   7.481   2.062
 6467TIP3    H219287   5.961   7.475   2.047
 6468TIP3   OH219288   5.443   6.757   0.675
 6468TIP3    H119289   5.519   6.699   0.673
 6468TIP3    H219290   5.418   6.760   0.767
 6469TIP3   OH219291   5.510   7.048   1.142
 6469TIP3    H119292   5.523   6.954   1.151
 6469TIP3    H219293   5.597   7.084   1.128
 6470TIP3   OH219294   5.552   7.195   1.606
 6470TIP3    H119295   5.634   7.218   1.564
 6470TIP3    H219296   5.558   7.235   1.693
 6471TIP3   OH219297   5.631   7.363   1.818
 6471TIP3    H119298   5.559   7.398   1.870
 6471TIP3    H219299   5.662   7.438   1.767
 6472TIP3   OH219300   4.268   7.066   2.573
 6472TIP3    H119301   4.362   7.064   2.594
 6472TIP3    H219302   4.234   6.985   2.612
 6473TIP3   OH219303   6.125   6.948   2.332
 6473TIP3    H119304   6.178   6.885   2.283
 6473TIP3    H219305   6.083   7.002   2.265
 6474TIP3   OH219306   5.526   6.777   1.166
 6474TIP3    H119307   5.582   6.768   1.243
 6474TIP3    H219308   5.465   6.703   1.171
 6475TIP3   OH219309   4.247   6.781   1.910
 6475TIP3    H119310   4.301   6.703   1.924
 6475TIP3    H219311   4.310   6.853   1.901
 6476TIP3   OH219312   4.021   7.031   1.986
 6476TIP3    H119313   4.073   7.029   1.905
 6476TIP3    H219314   4.045   7.114   2.027
 6477TIP3   OH219315   5.960   7.085   2.161
 6477TIP3    H119316   5.896   7.128   2.218
 6477TIP3    H219317   5.907   7.040   2.095
 6478TIP3   OH219318   5.658   6.785   0.867
 6478TIP3    H119319   5.682   6.711   0.812
 6478TIP3    H219320   5.654   6.860   0.808
 6479TIP3   OH219321   4.006   6.569   1.500
 6479TIP3    H119322   3.919   6.556   1.537
 6479TIP3    H219323   3.991   6.615   1.417
 6480TIP3   OH219324   5.074   8.273   1.048
 6480TIP3    H119325   5.114   8.288   0.962
 6480TIP3    H219326   5.133   8.316   1.110
 6481TIP3   OH219327   4.234   6.625   2.316
 6481TIP3    H119328   4.184   6.609   2.396
 6481TIP3    H219329   4.173   6.670   2.258
 6482TIP3   OH219330   4.274   8.063   2.390
 6482TIP3    H119331   4.180   8.049   2.376
 6482TIP3    H219332   4.286   8.055   2.485
 6483TIP3   OH219333   4.482   8.114   1.944
 6483TIP3    H119334   4.426   8.183   1.909
 6483TIP3    H219335   4.566   8.126   1.898
 6484TIP3   OH219336   4.874   8.345   2.090
 6484TIP3    H119337   4.913   8.338   2.178
 6484TIP3    H219338   4.935   8.401   2.042
 6485TIP3   OH219339   5.059   8.503   1.957
 6485TIP3    H119340   5.125   8.458   1.904
 6485TIP3    H219341   5.109   8.567   2.008
 6486TIP3   OH219342   5.870   6.825   2.035
 6486TIP3    H119343   5.784   6.826   1.993
 6486TIP3    H219344   5.899   6.734   2.027
 6487TIP3   OH219345   4.134   8.339   1.989
 6487TIP3    H119346   4.043   8.355   1.964
 6487TIP3    H219347   4.155   8.408   2.052
 6488TIP3   OH219348   4.359   8.332   1.831
 6488TIP3    H119349   4.277   8.337   1.880
 6488TIP3    H219350   4.337   8.359   1.743
 6489TIP3   OH219351   4.781   8.342   1.596
 6489TIP3    H119352   4.711   8.357   1.532
 6489TIP3    H219353   4.792   8.428   1.639
 6490TIP3   OH219354   5.042   8.295   1.678
 6490TIP3    H119355   4.951   8.309   1.651
 6490TIP3    H219356   5.090   8.366   1.636
 6491TIP3   OH219357   5.241   8.492   1.606
 6491TIP3    H119358   5.235   8.578   1.565
 6491TIP3    H219359   5.264   8.432   1.534
 6492TIP3   OH219360   4.043   8.130   1.698
 6492TIP3    H119361   4.067   8.108   1.788
 6492TIP3    H219362   4.116   8.095   1.645
 6493TIP3   OH219363   4.245   8.005   1.565
 6493TIP3    H119364   4.256   7.920   1.606
 6493TIP3    H219365   4.331   8.046   1.571
 6494TIP3   OH219366   4.510   8.084   1.599
 6494TIP3    H119367   4.533   7.992   1.585
 6494TIP3    H219368   4.567   8.113   1.669
 6495TIP3   OH219369   5.080   6.747   1.676
 6495TIP3    H119370   5.038   6.675   1.724
 6495TIP3    H219371   5.146   6.705   1.622
 6496TIP3   OH219372   5.555   6.690   1.632
 6496TIP3    H119373   5.594   6.728   1.553
 6496TIP3    H219374   5.461   6.686   1.613
 6497TIP3   OH219375   5.680   6.725   1.389
 6497TIP3    H119376   5.750   6.668   1.354
 6497TIP3    H219377   5.715   6.813   1.381
 6498TIP3   OH219378   4.320   6.458   1.665
 6498TIP3    H119379   4.229   6.428   1.664
 6498TIP3    H219380   4.372   6.378   1.662
 6499TIP3   OH219381   4.145   6.370   1.355
 6499TIP3    H119382   4.162   6.410   1.270
 6499TIP3    H219383   4.102   6.438   1.406
 6500TIP3   OH219384   4.792   6.486   1.577
 6500TIP3    H119385   4.843   6.530   1.509
 6500TIP3    H219386   4.830   6.515   1.659
 6501TIP3   OH219387   5.291   6.623   1.546
 6501TIP3    H119388   5.323   6.589   1.462
 6501TIP3    H219389   5.292   6.547   1.604
 6502TIP3   OH219390   5.355   6.567   1.162
 6502TIP3    H119391   5.274   6.616   1.175
 6502TIP3    H219392   5.337   6.481   1.200
 6503TIP3   OH219393   3.797   7.904   1.083
 6503TIP3    H119394   3.708   7.882   1.056
 6503TIP3    H219395   3.800   8.000   1.079
 6504TIP3   OH219396   4.232   6.479   1.111
 6504TIP3    H119397   4.278   6.419   1.053
 6504TIP3    H219398   4.301   6.530   1.153
 6505TIP3   OH219399   4.700   6.699   1.252
 6505TIP3    H119400   4.757   6.630   1.287
 6505TIP3    H219401   4.729   6.779   1.296
 6506TIP3   OH219402   4.556   8.146   0.662
 6506TIP3    H119403   4.628   8.196   0.701
 6506TIP3    H219404   4.599   8.072   0.619
 6507TIP3   OH219405   5.343   8.181   0.934
 6507TIP3    H119406   5.387   8.101   0.963
 6507TIP3    H219407   5.310   8.159   0.846
 6508TIP3   OH219408   4.546   6.735   2.549
 6508TIP3    H119409   4.511   6.670   2.609
 6508TIP3    H219410   4.638   6.743   2.573
 6509TIP3   OH219411   4.793   6.741   2.674
 6509TIP3    H119412   4.871   6.718   2.624
 6509TIP3    H219413   4.786   6.672   2.741
 6510TIP3   OH219414   3.859   7.872   0.806
 6510TIP3    H119415   3.853   7.878   0.902
 6510TIP3    H219416   3.950   7.849   0.789
 6511TIP3   OH219417   5.618   6.833   2.462
 6511TIP3    H119418   5.635   6.804   2.552
 6511TIP3    H219419   5.704   6.828   2.419
 6512TIP3   OH219420   5.528   8.362   1.979
 6512TIP3    H119421   5.455   8.334   1.923
 6512TIP3    H219422   5.517   8.456   1.986
 6513TIP3   OH219423   6.652   7.719   1.253
 6513TIP3    H119424   6.730   7.750   1.299
 6513TIP3    H219425   6.680   7.638   1.210
 6514TIP3   OH219426   6.081   7.581   1.508
 6514TIP3    H119427   6.112   7.531   1.583
 6514TIP3    H219428   6.161   7.608   1.462
 6515TIP3   OH219429   5.923   7.920   1.237
 6515TIP3    H119430   5.957   7.830   1.238
 6515TIP3    H219431   5.998   7.974   1.259
 6516TIP3   OH219432   5.731   7.185   1.042
 6516TIP3    H119433   5.698   7.271   1.065
 6516TIP3    H219434   5.688   7.164   0.959
 6517TIP3   OH219435   5.885   7.525   1.164
 6517TIP3    H119436   5.921   7.453   1.215
 6517TIP3    H219437   5.957   7.588   1.156
 6518TIP3   OH219438   6.606   8.009   1.199
 6518TIP3    H119439   6.639   7.943   1.137
 6518TIP3    H219440   6.685   8.057   1.227
 6519TIP3   OH219441   7.572   7.240   1.263
 6519TIP3    H119442   7.556   7.332   1.283
 6519TIP3    H219443   7.535   7.228   1.175
 6520TIP3   OH219444   6.984   7.512   1.303
 6520TIP3    H119445   7.058   7.459   1.330
 6520TIP3    H219446   7.001   7.531   1.211
 6521TIP3   OH219447   6.322   7.120   1.155
 6521TIP3    H119448   6.329   7.158   1.068
 6521TIP3    H219449   6.275   7.037   1.142
 6522TIP3   OH219450   6.942   7.239   0.777
 6522TIP3    H119451   6.996   7.219   0.853
 6522TIP3    H219452   6.990   7.203   0.703
 6523TIP3   OH219453   5.964   7.328   1.338
 6523TIP3    H119454   6.055   7.333   1.369
 6523TIP3    H219455   5.964   7.255   1.277
 6524TIP3   OH219456   6.491   7.591   0.981
 6524TIP3    H119457   6.579   7.602   1.017
 6524TIP3    H219458   6.501   7.525   0.912
 6525TIP3   OH219459   7.764   7.523   1.272
 6525TIP3    H119460   7.669   7.529   1.285
 6525TIP3    H219461   7.801   7.535   1.360
 6526TIP3   OH219462   6.347   7.112   1.604
 6526TIP3    H119463   6.302   7.153   1.530
 6526TIP3    H219464   6.288   7.126   1.678
 6527TIP3   OH219465   6.422   7.883   1.415
 6527TIP3    H119466   6.366   7.950   1.454
 6527TIP3    H219467   6.415   7.899   1.321
 6528TIP3   OH219468   7.224   7.355   0.927
 6528TIP3    H119469   7.160   7.304   0.977
 6528TIP3    H219470   7.297   7.366   0.988
 6529TIP3   OH219471   6.226   7.227   1.386
 6529TIP3    H119472   6.284   7.299   1.408
 6529TIP3    H219473   6.261   7.192   1.304
 6530TIP3   OH219474   6.273   8.082   1.522
 6530TIP3    H119475   6.275   8.176   1.505
 6530TIP3    H219476   6.197   8.069   1.578
 6531TIP3   OH219477   5.752   7.756   0.791
 6531TIP3    H119478   5.721   7.821   0.727
 6531TIP3    H219479   5.749   7.802   0.875
 6532TIP3   OH219480   7.214   8.354   0.861
 6532TIP3    H119481   7.193   8.261   0.860
 6532TIP3    H219482   7.129   8.397   0.876
 6533TIP3   OH219483   7.400   7.144   1.452
 6533TIP3    H119484   7.309   7.140   1.422
 6533TIP3    H219485   7.450   7.170   1.375
 6534TIP3   OH219486   6.713   6.811   1.381
 6534TIP3    H119487   6.698   6.717   1.372
 6534TIP3    H219488   6.626   6.847   1.400
 6535TIP3   OH219489   7.268   8.198   1.316
 6535TIP3    H119490   7.247   8.160   1.231
 6535TIP3    H219491   7.203   8.268   1.327
 6536TIP3   OH219492   7.443   7.855   1.038
 6536TIP3    H119493   7.468   7.915   1.108
 6536TIP3    H219494   7.448   7.907   0.958
 6537TIP3   OH219495   7.127   7.710   1.541
 6537TIP3    H119496   7.166   7.786   1.584
 6537TIP3    H219497   7.046   7.741   1.503
 6538TIP3   OH219498   6.221   7.657   0.970
 6538TIP3    H119499   6.185   7.582   0.921
 6538TIP3    H219500   6.315   7.642   0.969
 6539TIP3   OH219501   6.369   8.128   1.151
 6539TIP3    H119502   6.356   8.141   1.057
 6539TIP3    H219503   6.448   8.074   1.158
 6540TIP3   OH219504   6.309   7.633   1.361
 6540TIP3    H119505   6.353   7.587   1.290
 6540TIP3    H219506   6.359   7.714   1.372
 6541TIP3   OH219507   6.812   8.137   1.009
 6541TIP3    H119508   6.893   8.146   0.958
 6541TIP3    H219509   6.828   8.063   1.067
 6542TIP3   OH219510   6.453   8.119   1.752
 6542TIP3    H119511   6.418   8.208   1.756
 6542TIP3    H219512   6.434   8.089   1.663
 6543TIP3   OH219513   6.231   7.731   1.785
 6543TIP3    H119514   6.230   7.827   1.786
 6543TIP3    H219515   6.139   7.706   1.775
 6544TIP3   OH219516   6.269   8.326   1.750
 6544TIP3    H119517   6.242   8.341   1.659
 6544TIP3    H219518   6.188   8.330   1.800
 6545TIP3   OH219519   6.213   7.453   0.796
 6545TIP3    H119520   6.278   7.485   0.733
 6545TIP3    H219521   6.132   7.449   0.746
 6546TIP3   OH219522   5.865   7.888   1.655
 6546TIP3    H119523   5.795   7.864   1.594
 6546TIP3    H219524   5.904   7.805   1.681
 6547TIP3   OH219525   5.750   8.076   1.383
 6547TIP3    H119526   5.807   8.030   1.321
 6547TIP3    H219527   5.796   8.158   1.402
 6548TIP3   OH219528   7.600   8.554   1.268
 6548TIP3    H119529   7.649   8.472   1.270
 6548TIP3    H219530   7.510   8.527   1.286
 6549TIP3   OH219531   6.545   8.371   1.604
 6549TIP3    H119532   6.637   8.397   1.604
 6549TIP3    H219533   6.545   8.285   1.561
 6550TIP3   OH219534   5.956   8.267   0.814
 6550TIP3    H119535   5.970   8.245   0.906
 6550TIP3    H219536   5.914   8.189   0.776
 6551TIP3   OH219537   7.451   7.646   1.688
 6551TIP3    H119538   7.420   7.665   1.600
 6551TIP3    H219539   7.473   7.553   1.687
 6552TIP3   OH219540   6.020   8.109   1.630
 6552TIP3    H119541   6.067   8.097   1.713
 6552TIP3    H219542   5.958   8.036   1.627
 6553TIP3   OH219543   6.454   6.911   1.445
 6553TIP3    H119544   6.366   6.879   1.426
 6553TIP3    H219545   6.441   6.991   1.496
 6554TIP3   OH219546   7.000   7.021   1.667
 6554TIP3    H119547   7.073   6.994   1.722
 6554TIP3    H219548   6.922   6.988   1.712
 6555TIP3   OH219549   7.233   7.463   1.557
 6555TIP3    H119550   7.187   7.438   1.638
 6555TIP3    H219551   7.199   7.550   1.536
 6556TIP3   OH219552   6.390   7.413   1.501
 6556TIP3    H119553   6.345   7.421   1.585
 6556TIP3    H219554   6.369   7.495   1.455
 6557TIP3   OH219555   6.320   7.243   0.916
 6557TIP3    H119556   6.272   7.320   0.887
 6557TIP3    H219557   6.334   7.192   0.836
 6558TIP3   OH219558   6.964   7.655   1.804
 6558TIP3    H119559   6.938   7.585   1.864
 6558TIP3    H219560   7.058   7.664   1.817
 6559TIP3   OH219561   6.868   7.481   0.886
 6559TIP3    H119562   6.818   7.515   0.812
 6559TIP3    H219563   6.903   7.398   0.855
 6560TIP3   OH219564   6.208   7.430   1.706
 6560TIP3    H119565   6.238   7.488   1.775
 6560TIP3    H219566   6.192   7.347   1.749
 6561TIP3   OH219567   5.793   6.957   1.315
 6561TIP3    H119568   5.870   6.998   1.355
 6561TIP3    H219569   5.818   6.944   1.224
 6562TIP3   OH219570   5.709   6.972   0.654
 6562TIP3    H119571   5.769   7.014   0.593
 6562TIP3    H219572   5.669   7.045   0.702
 6563TIP3   OH219573   6.861   7.709   1.434
 6563TIP3    H119574   6.908   7.657   1.370
 6563TIP3    H219575   6.850   7.651   1.509
 6564TIP3   OH219576   6.577   7.163   1.238
 6564TIP3    H119577   6.488   7.149   1.205
 6564TIP3    H219578   6.602   7.079   1.276
 6565TIP3   OH219579   5.990   7.130   1.158
 6565TIP3    H119580   5.906   7.104   1.119
 6565TIP3    H219581   6.045   7.052   1.149
 6566TIP3   OH219582   6.360   7.160   0.655
 6566TIP3    H119583   6.412   7.093   0.608
 6566TIP3    H219584   6.282   7.171   0.601
 6567TIP3   OH219585   7.136   7.103   1.372
 6567TIP3    H119586   7.095   7.174   1.422
 6567TIP3    H219587   7.062   7.053   1.337
 6568TIP3   OH219588   7.236   8.873   1.420
 6568TIP3    H119589   7.237   8.854   1.327
 6568TIP3    H219590   7.312   8.930   1.434
 6569TIP3   OH219591   6.200   8.008   1.820
 6569TIP3    H119592   6.284   8.053   1.824
 6569TIP3    H219593   6.160   8.022   1.906
 6570TIP3   OH219594   6.723   7.494   1.121
 6570TIP3    H119595   6.772   7.482   1.040
 6570TIP3    H219596   6.761   7.430   1.181
 6571TIP3   OH219597   6.160   6.902   1.121
 6571TIP3    H119598   6.121   6.817   1.142
 6571TIP3    H219599   6.125   6.924   1.035
 6572TIP3   OH219600   6.657   7.366   1.464
 6572TIP3    H119601   6.566   7.396   1.473
 6572TIP3    H219602   6.709   7.432   1.510
 6573TIP3   OH219603   7.245   8.051   1.089
 6573TIP3    H119604   7.299   8.035   1.012
 6573TIP3    H219605   7.211   7.964   1.112
 6574TIP3   OH219606   6.772   8.034   1.622
 6574TIP3    H119607   6.781   8.065   1.712
 6574TIP3    H219608   6.696   8.081   1.587
 6575TIP3   OH219609   6.088   7.706   1.200
 6575TIP3    H119610   6.133   7.701   1.115
 6575TIP3    H219611   6.156   7.684   1.264
 6576TIP3   OH219612   5.959   7.661   1.791
 6576TIP3    H119613   5.956   7.629   1.881
 6576TIP3    H219614   5.892   7.611   1.745
 6577TIP3   OH219615   6.729   7.799   1.810
 6577TIP3    H119616   6.683   7.791   1.726
 6577TIP3    H219617   6.815   7.760   1.794
 6578TIP3   OH219618   6.982   8.253   1.448
 6578TIP3    H119619   6.908   8.297   1.491
 6578TIP3    H219620   7.048   8.322   1.439
 6579TIP3   OH219621   7.517   8.232   1.391
 6579TIP3    H119622   7.423   8.224   1.375
 6579TIP3    H219623   7.554   8.262   1.308
 6580TIP3   OH219624   7.122   7.846   0.855
 6580TIP3    H119625   7.040   7.805   0.884
 6580TIP3    H219626   7.184   7.773   0.848
 6581TIP3   OH219627   6.267   8.185   0.893
 6581TIP3    H119628   6.320   8.190   0.813
 6581TIP3    H219629   6.244   8.093   0.902
 6582TIP3   OH219630   5.808   7.318   0.485
 6582TIP3    H119631   5.826   7.385   0.419
 6582TIP3    H219632   5.725   7.345   0.524
 6583TIP3   OH219633   6.320   7.720   0.693
 6583TIP3    H119634   6.252   7.739   0.628
 6583TIP3    H219635   6.278   7.734   0.777
 6584TIP3   OH219636   6.407   8.540   1.439
 6584TIP3    H119637   6.432   8.486   1.364
 6584TIP3    H219638   6.461   8.507   1.511
 6585TIP3   OH219639   6.890   7.956   1.204
 6585TIP3    H119640   6.910   7.963   1.298
 6585TIP3    H219641   6.961   7.902   1.169
 6586TIP3   OH219642   7.125   8.652   1.252
 6586TIP3    H119643   7.048   8.597   1.243
 6586TIP3    H219644   7.113   8.722   1.188
 6587TIP3   OH219645   6.149   7.165   1.790
 6587TIP3    H119646   6.063   7.206   1.796
 6587TIP3    H219647   6.135   7.074   1.816
 6588TIP3   OH219648   5.914   8.298   1.457
 6588TIP3    H119649   5.956   8.233   1.512
 6588TIP3    H219650   5.907   8.376   1.513
 6589TIP3   OH219651   5.787   7.627   0.560
 6589TIP3    H119652   5.784   7.672   0.645
 6589TIP3    H219653   5.841   7.685   0.505
 6590TIP3   OH219654   6.999   7.268   1.555
 6590TIP3    H119655   7.052   7.303   1.627
 6590TIP3    H219656   6.979   7.179   1.581
 6591TIP3   OH219657   6.665   7.220   0.630
 6591TIP3    H119658   6.752   7.259   0.628
 6591TIP3    H219659   6.626   7.253   0.711
 6592TIP3   OH219660   6.848   7.501   1.606
 6592TIP3    H119661   6.894   7.546   1.677
 6592TIP3    H219662   6.902   7.425   1.586
 6593TIP3   OH219663   6.795   7.016   0.839
 6593TIP3    H119664   6.765   7.024   0.929
 6593TIP3    H219665   6.825   7.104   0.816
 6594TIP3   OH219666   6.210   6.885   0.638
 6594TIP3    H119667   6.191   6.970   0.599
 6594TIP3    H219668   6.304   6.886   0.654
 6595TIP3   OH219669   7.472   7.361   1.616
 6595TIP3    H119670   7.381   7.391   1.611
 6595TIP3    H219671   7.470   7.272   1.583
 6596TIP3   OH219672   5.878   7.045   0.421
 6596TIP3    H119673   5.825   7.125   0.422
 6596TIP3    H219674   5.824   6.982   0.372
 6597TIP3   OH219675   6.200   6.812   1.439
 6597TIP3    H119676   6.162   6.773   1.360
 6597TIP3    H219677   6.195   6.742   1.504
 6598TIP3   OH219678   5.703   7.964   0.954
 6598TIP3    H119679   5.741   8.019   1.022
 6598TIP3    H219680   5.677   8.025   0.885
 6599TIP3   OH219681   5.905   8.606   1.892
 6599TIP3    H119682   5.985   8.605   1.946
 6599TIP3    H219683   5.893   8.515   1.866
 6600TIP3   OH219684   6.367   8.520   1.926
 6600TIP3    H119685   6.426   8.582   1.883
 6600TIP3    H219686   6.353   8.451   1.861
 6601TIP3   OH219687   7.016   8.474   1.720
 6601TIP3    H119688   7.006   8.389   1.763
 6601TIP3    H219689   7.096   8.511   1.757
 6602TIP3   OH219690   6.031   8.003   2.044
 6602TIP3    H119691   6.054   7.911   2.060
 6602TIP3    H219692   5.944   7.998   2.004
 6603TIP3   OH219693   6.651   8.036   1.926
 6603TIP3    H119694   6.579   8.066   1.870
 6603TIP3    H219695   6.679   7.954   1.887
 6604TIP3   OH219696   7.190   8.179   1.636
 6604TIP3    H119697   7.260   8.244   1.634
 6604TIP3    H219698   7.120   8.217   1.583
 6605TIP3   OH219699   6.140   7.751   2.068
 6605TIP3    H119700   6.210   7.731   2.006
 6605TIP3    H219701   6.184   7.762   2.152
 6606TIP3   OH219702   6.466   7.590   1.735
 6606TIP3    H119703   6.391   7.646   1.753
 6606TIP3    H219704   6.520   7.641   1.675
 6607TIP3   OH219705   7.003   7.985   1.841
 6607TIP3    H119706   7.059   7.949   1.773
 6607TIP3    H219707   7.014   7.927   1.916
 6608TIP3   OH219708   6.613   7.385   1.841
 6608TIP3    H119709   6.616   7.310   1.782
 6608TIP3    H219710   6.569   7.454   1.791
 6609TIP3   OH219711   6.609   7.175   1.653
 6609TIP3    H119712   6.637   7.229   1.580
 6609TIP3    H219713   6.517   7.157   1.637
 6610TIP3   OH219714   6.610   7.747   1.561
 6610TIP3    H119715   6.687   7.744   1.505
 6610TIP3    H219716   6.545   7.796   1.510
 6611TIP3   OH219717   7.231   7.674   1.881
 6611TIP3    H119718   7.285   7.596   1.895
 6611TIP3    H219719   7.279   7.725   1.816
 6612TIP3   OH219720   7.249   7.923   1.681
 6612TIP3    H119721   7.213   8.009   1.664
 6612TIP3    H219722   7.335   7.924   1.638
 6613TIP3   OH219723   6.496   7.502   2.070
 6613TIP3    H119724   6.420   7.448   2.088
 6613TIP3    H219725   6.521   7.480   1.980
 6614TIP3   OH219726   6.736   6.945   1.731
 6614TIP3    H119727   6.698   7.027   1.701
 6614TIP3    H219728   6.671   6.878   1.709
 6615TIP3   OH219729   6.875   7.430   1.930
 6615TIP3    H119730   6.867   7.420   2.025
 6615TIP3    H219731   6.787   7.414   1.896
 6616TIP3   OH219732   7.113   7.372   1.787
 6616TIP3    H119733   7.036   7.382   1.845
 6616TIP3    H219734   7.187   7.366   1.847
 6617TIP3   OH219735   7.358   7.372   1.938
 6617TIP3    H119736   7.369   7.277   1.945
 6617TIP3    H219737   7.350   7.402   2.028
 6618TIP3   OH219738   6.336   7.275   2.117
 6618TIP3    H119739   6.387   7.210   2.069
 6618TIP3    H219740   6.365   7.267   2.208
 6619TIP3   OH219741   6.809   6.929   1.991
 6619TIP3    H119742   6.884   6.870   1.981
 6619TIP3    H219743   6.773   6.938   1.903
 6620TIP3   OH219744   6.893   7.155   2.126
 6620TIP3    H119745   6.862   7.085   2.069
 6620TIP3    H219746   6.822   7.219   2.126
 6621TIP3   OH219747   5.481   8.399   0.849
 6621TIP3    H119748   5.445   8.326   0.899
 6621TIP3    H219749   5.555   8.429   0.900
 6622TIP3   OH219750   5.728   8.222   1.067
 6622TIP3    H119751   5.654   8.194   1.120
 6622TIP3    H219752   5.746   8.311   1.094
 6623TIP3   OH219753   7.514   8.743   1.098
 6623TIP3    H119754   7.505   8.723   1.005
 6623TIP3    H219755   7.555   8.666   1.136
 6624TIP3   OH219756   7.409   8.351   1.728
 6624TIP3    H119757   7.349   8.347   1.803
 6624TIP3    H219758   7.460   8.431   1.742
 6625TIP3   OH219759   7.254   8.447   1.134
 6625TIP3    H119760   7.209   8.522   1.174
 6625TIP3    H219761   7.265   8.472   1.043
 6626TIP3   OH219762   5.832   7.638   1.414
 6626TIP3    H119763   5.827   7.603   1.325
 6626TIP3    H219764   5.922   7.623   1.441
 6627TIP3   OH219765   7.494   8.011   1.576
 6627TIP3    H119766   7.565   7.947   1.569
 6627TIP3    H219767   7.515   8.078   1.511
 6628TIP3   OH219768   7.663   7.801   1.603
 6628TIP3    H119769   7.599   7.738   1.635
 6628TIP3    H219770   7.745   7.776   1.646
 6629TIP3   OH219771   7.457   7.433   1.057
 6629TIP3    H119772   7.510   7.474   0.988
 6629TIP3    H219773   7.429   7.506   1.113
 6630TIP3   OH219774   7.362   7.651   1.190
 6630TIP3    H119775   7.379   7.695   1.274
 6630TIP3    H219776   7.376   7.719   1.124
 6631TIP3   OH219777   6.066   7.326   2.072
 6631TIP3    H119778   6.161   7.320   2.082
 6631TIP3    H219779   6.033   7.243   2.106
 6632TIP3   OH219780   7.903   7.214   1.851
 6632TIP3    H119781   7.959   7.138   1.832
 6632TIP3    H219782   7.893   7.259   1.767
 6633TIP3   OH219783   6.028   7.031   1.453
 6633TIP3    H119784   6.089   6.957   1.452
 6633TIP3    H219785   6.082   7.107   1.431
 6634TIP3   OH219786   5.791   7.305   1.544
 6634TIP3    H119787   5.849   7.313   1.468
 6634TIP3    H219788   5.793   7.392   1.585
 6635TIP3   OH219789   7.761   7.328   1.639
 6635TIP3    H119790   7.692   7.376   1.685
 6635TIP3    H219791   7.720   7.247   1.610
 6636TIP3   OH219792   5.839   6.898   1.046
 6636TIP3    H119793   5.755   6.865   1.014
 6636TIP3    H219794   5.889   6.915   0.967
 6637TIP3   OH219795   6.047   6.909   1.834
 6637TIP3    H119796   5.994   6.885   1.910
 6637TIP3    H219797   5.983   6.940   1.769
 6638TIP3   OH219798   6.046   8.326   1.903
 6638TIP3    H119799   5.953   8.305   1.893
 6638TIP3    H219800   6.063   8.313   1.996
 6639TIP3   OH219801   6.225   8.342   1.473
 6639TIP3    H119802   6.152   8.378   1.423
 6639TIP3    H219803   6.292   8.411   1.471
 6640TIP3   OH219804   6.645   8.672   1.585
 6640TIP3    H119805   6.692   8.633   1.659
 6640TIP3    H219806   6.707   8.736   1.549
 6641TIP3   OH219807   6.962   8.658   1.491
 6641TIP3    H119808   7.013   8.670   1.411
 6641TIP3    H219809   6.978   8.737   1.542
 6642TIP3   OH219810   7.636   7.074   1.593
 6642TIP3    H119811   7.547   7.069   1.558
 6642TIP3    H219812   7.672   6.986   1.581
 6643TIP3   OH219813   5.917   8.555   1.575
 6643TIP3    H119814   5.842   8.578   1.520
 6643TIP3    H219815   5.935   8.634   1.626
 6644TIP3   OH219816   6.084   8.559   1.360
 6644TIP3    H119817   6.033   8.561   1.442
 6644TIP3    H219818   6.017   8.552   1.292
 6645TIP3   OH219819   6.620   8.619   1.051
 6645TIP3    H119820   6.553   8.648   0.989
 6645TIP3    H219821   6.597   8.664   1.133
 6646TIP3   OH219822   6.875   8.653   0.985
 6646TIP3    H119823   6.785   8.640   1.013
 6646TIP3    H219824   6.910   8.718   1.046
 6647TIP3   OH219825   7.202   8.676   0.927
 6647TIP3    H119826   7.126   8.707   0.877
 6647TIP3    H219827   7.276   8.723   0.888
 6648TIP3   OH219828   5.884   8.421   1.207
 6648TIP3    H119829   5.887   8.370   1.288
 6648TIP3    H219830   5.931   8.368   1.143
 6649TIP3   OH219831   6.026   8.217   1.076
 6649TIP3    H119832   6.044   8.171   1.158
 6649TIP3    H219833   6.100   8.277   1.067
 6650TIP3   OH219834   6.225   8.390   1.100
 6650TIP3    H119835   6.302   8.341   1.130
 6650TIP3    H219836   6.248   8.482   1.115
 6651TIP3   OH219837   6.930   6.966   1.261
 6651TIP3    H119838   6.841   6.930   1.264
 6651TIP3    H219839   6.961   6.947   1.173
 6652TIP3   OH219840   7.383   6.903   0.954
 6652TIP3    H119841   7.478   6.901   0.945
 6652TIP3    H219842   7.369   6.902   1.049
 6653TIP3   OH219843   7.587   7.025   0.699
 6653TIP3    H119844   7.625   6.970   0.768
 6653TIP3    H219845   7.550   7.099   0.745
 6654TIP3   OH219846   6.095   6.664   1.238
 6654TIP3    H119847   6.008   6.624   1.244
 6654TIP3    H219848   6.151   6.594   1.205
 6655TIP3   OH219849   5.905   6.641   0.942
 6655TIP3    H119850   5.918   6.708   0.875
 6655TIP3    H219851   5.875   6.690   1.019
 6656TIP3   OH219852   6.505   6.724   1.192
 6656TIP3    H119853   6.458   6.755   1.114
 6656TIP3    H219854   6.441   6.732   1.263
 6657TIP3   OH219855   7.076   6.943   1.028
 6657TIP3    H119856   7.122   6.983   0.954
 6657TIP3    H219857   7.135   6.875   1.059
 6658TIP3   OH219858   5.993   6.751   0.525
 6658TIP3    H119859   6.010   6.667   0.483
 6658TIP3    H219860   6.080   6.788   0.541
 6659TIP3   OH219861   6.479   6.870   0.680
 6659TIP3    H119862   6.540   6.828   0.741
 6659TIP3    H219863   6.535   6.911   0.614
 6660TIP3   OH219864   7.402   7.096   1.964
 6660TIP3    H119865   7.410   7.065   2.054
 6660TIP3    H219866   7.491   7.092   1.930
 6661TIP3   OH219867   7.355   8.620   1.398
 6661TIP3    H119868   7.290   8.621   1.328
 6661TIP3    H219869   7.344   8.705   1.441
 6662TIP3   OH219870   8.132   7.245   1.070
 6662TIP3    H119871   8.099   7.259   0.981
 6662TIP3    H219872   8.104   7.322   1.119
 6663TIP3   OH219873   8.046   7.985   1.250
 6663TIP3    H119874   8.021   8.071   1.284
 6663TIP3    H219875   8.011   7.984   1.161
 6664TIP3   OH219876   7.800   8.128   1.140
 6664TIP3    H119877   7.737   8.128   1.068
 6664TIP3    H219878   7.792   8.042   1.180
 6665TIP3   OH219879   7.972   8.338   1.075
 6665TIP3    H119880   8.051   8.343   1.130
 6665TIP3    H219881   7.929   8.257   1.102
 6666TIP3   OH219882   8.875   7.323   1.084
 6666TIP3    H119883   8.940   7.282   1.142
 6666TIP3    H219884   8.844   7.251   1.029
 6667TIP3   OH219885   7.970   7.740   1.099
 6667TIP3    H119886   8.047   7.735   1.156
 6667TIP3    H219887   7.956   7.650   1.070
 6668TIP3   OH219888   8.003   8.206   1.403
 6668TIP3    H119889   8.065   8.269   1.367
 6668TIP3    H219890   8.029   8.197   1.495
 6669TIP3   OH219891   7.764   7.865   1.226
 6669TIP3    H119892   7.803   7.855   1.313
 6669TIP3    H219893   7.818   7.809   1.169
 6670TIP3   OH219894   8.037   7.474   1.234
 6670TIP3    H119895   7.943   7.490   1.232
 6670TIP3    H219896   8.046   7.394   1.287
 6671TIP3   OH219897   7.870   7.063   0.846
 6671TIP3    H119898   7.864   7.046   0.752
 6671TIP3    H219899   7.964   7.060   0.865
 6672TIP3   OH219900   7.693   8.919   1.336
 6672TIP3    H119901   7.786   8.921   1.355
 6672TIP3    H219902   7.659   8.848   1.391
 6673TIP3   OH219903   7.843   8.238   1.678
 6673TIP3    H119904   7.846   8.143   1.678
 6673TIP3    H219905   7.760   8.259   1.634
 6674TIP3   OH219906   7.904   7.971   1.648
 6674TIP3    H119907   7.930   7.901   1.589
 6674TIP3    H219908   7.984   7.991   1.697
 6675TIP3   OH219909   8.252   7.894   1.042
 6675TIP3    H119910   8.229   7.893   1.135
 6675TIP3    H219911   8.168   7.904   0.997
 6676TIP3   OH219912   8.428   7.597   1.348
 6676TIP3    H119913   8.406   7.504   1.339
 6676TIP3    H219914   8.429   7.631   1.259
 6677TIP3   OH219915   8.551   7.423   1.082
 6677TIP3    H119916   8.617   7.489   1.104
 6677TIP3    H219917   8.468   7.470   1.089
 6678TIP3   OH219918   8.433   7.862   1.600
 6678TIP3    H119919   8.364   7.818   1.550
 6678TIP3    H219920   8.479   7.915   1.535
 6679TIP3   OH219921   8.554   7.221   1.273
 6679TIP3    H119922   8.569   7.281   1.200
 6679TIP3    H219923   8.583   7.136   1.242
 6680TIP3   OH219924   8.619   7.789   1.394
 6680TIP3    H119925   8.648   7.784   1.485
 6680TIP3    H219926   8.559   7.716   1.383
 6681TIP3   OH219927   8.063   7.496   1.782
 6681TIP3    H119928   8.112   7.474   1.703
 6681TIP3    H219929   8.127   7.488   1.853
 6682TIP3   OH219930   8.635   7.196   1.536
 6682TIP3    H119931   8.712   7.143   1.516
 6682TIP3    H219932   8.609   7.233   1.452
 6683TIP3   OH219933   8.590   7.343   1.765
 6683TIP3    H119934   8.618   7.287   1.692
 6683TIP3    H219935   8.586   7.431   1.727
 6684TIP3   OH219936   7.847   7.660   1.767
 6684TIP3    H119937   7.920   7.598   1.765
 6684TIP3    H219938   7.774   7.609   1.803
 6685TIP3   OH219939   7.766   7.377   0.720
 6685TIP3    H119940   7.812   7.317   0.779
 6685TIP3    H219941   7.834   7.408   0.660
 6686TIP3   OH219942   7.546   7.517   0.805
 6686TIP3    H119943   7.614   7.465   0.764
 6686TIP3    H219944   7.592   7.589   0.848
 6687TIP3   OH219945   7.798   7.127   1.377
 6687TIP3    H119946   7.753   7.102   1.457
 6687TIP3    H219947   7.732   7.173   1.325
 6688TIP3   OH219948   7.892   8.570   1.419
 6688TIP3    H119949   7.837   8.507   1.374
 6688TIP3    H219950   7.945   8.517   1.479
 6689TIP3   OH219951   8.121   7.196   1.614
 6689TIP3    H119952   8.084   7.124   1.664
 6689TIP3    H219953   8.210   7.206   1.648
 6690TIP3   OH219954   8.337   7.244   1.795
 6690TIP3    H119955   8.432   7.250   1.798
 6690TIP3    H219956   8.317   7.161   1.838
 6691TIP3   OH219957   9.289   7.257   1.435
 6691TIP3    H119958   9.213   7.212   1.470
 6691TIP3    H219959   9.333   7.294   1.512
 6692TIP3   OH219960   0.354   8.020   3.522
 6692TIP3    H119961   0.415   7.959   3.480
 6692TIP3    H219962   0.301   8.055   3.451
 6693TIP3   OH219963   0.189   8.117   3.321
 6693TIP3    H119964   0.105   8.135   3.363
 6693TIP3    H219965   0.173   8.038   3.269
 6694TIP3   OH219966   0.142   7.882   3.188
 6694TIP3    H119967   0.058   7.836   3.181
 6694TIP3    H219968   0.207   7.812   3.188
 6695TIP3   OH219969   1.897   8.325   2.335
 6695TIP3    H119970   1.920   8.408   2.378
 6695TIP3    H219971   1.917   8.339   2.243
 6696TIP3   OH219972   1.291   8.500   2.362
 6696TIP3    H119973   1.331   8.417   2.390
 6696TIP3    H219974   1.246   8.478   2.281
 6697TIP3   OH219975   1.346   8.248   1.946
 6697TIP3    H119976   1.401   8.221   2.019
 6697TIP3    H219977   1.407   8.267   1.875
 6698TIP3   OH219978   1.991   8.540   2.495
 6698TIP3    H119979   1.930   8.612   2.474
 6698TIP3    H219980   2.016   8.556   2.586
 6699TIP3   OH219981   0.600   8.151   2.730
 6699TIP3    H119982   0.538   8.167   2.659
 6699TIP3    H219983   0.547   8.155   2.810
 6700TIP3   OH219984   1.490   8.212   2.172
 6700TIP3    H119985   1.446   8.207   2.257
 6700TIP3    H219986   1.546   8.289   2.178
 6701TIP3   OH219987   0.500   8.243   2.477
 6701TIP3    H119988   0.545   8.323   2.505
 6701TIP3    H219989   0.512   8.241   2.382
 6702TIP3   OH219990   1.697   8.201   2.493
 6702TIP3    H119991   1.612   8.237   2.465
 6702TIP3    H219992   1.760   8.235   2.429
 6703TIP3   OH219993   0.961   7.852   2.506
 6703TIP3    H119994   0.953   7.758   2.523
 6703TIP3    H219995   0.880   7.889   2.539
 6704TIP3   OH219996   1.482   8.817   2.549
 6704TIP3    H119997   1.514   8.900   2.584
 6704TIP3    H219998   1.432   8.841   2.471
 6705TIP3   OH219999   1.584   7.810   1.547
 6705TIP3    H120000   1.511   7.835   1.605
 6705TIP3    H220001   1.601   7.889   1.496
 6706TIP3   OH220002   1.722   8.692   2.750
 6706TIP3    H120003   1.627   8.697   2.752
 6706TIP3    H220004   1.742   8.598   2.746
 6707TIP3   OH220005   0.712   7.931   2.603
 6707TIP3    H120006   0.632   7.889   2.571
 6707TIP3    H220007   0.682   8.013   2.643
 6708TIP3   OH220008   1.246   8.060   2.825
 6708TIP3    H120009   1.318   8.034   2.883
 6708TIP3    H220010   1.167   8.033   2.871
 6709TIP3   OH220011   1.504   8.425   2.778
 6709TIP3    H120012   1.475   8.431   2.869
 6709TIP3    H220013   1.451   8.489   2.731
 6710TIP3   OH220014   0.604   8.483   2.594
 6710TIP3    H120015   0.556   8.462   2.674
 6710TIP3    H220016   0.549   8.548   2.550
 6711TIP3   OH220017   1.224   8.664   2.916
 6711TIP3    H120018   1.225   8.599   2.985
 6711TIP3    H220019   1.317   8.683   2.900
 6712TIP3   OH220020   1.185   8.408   2.127
 6712TIP3    H120021   1.116   8.456   2.081
 6712TIP3    H220022   1.204   8.333   2.070
 6713TIP3   OH220023   0.492   8.447   2.847
 6713TIP3    H120024   0.419   8.497   2.885
 6713TIP3    H220025   0.486   8.361   2.888
 6714TIP3   OH220026   1.233   8.769   2.388
 6714TIP3    H120027   1.264   8.680   2.371
 6714TIP3    H220028   1.155   8.757   2.442
 6715TIP3   OH220029   0.932   8.136   2.216
 6715TIP3    H120030   0.854   8.164   2.263
 6715TIP3    H220031   0.998   8.123   2.284
 6716TIP3   OH220032   1.354   8.232   2.419
 6716TIP3    H120033   1.334   8.248   2.512
 6716TIP3    H220034   1.287   8.169   2.392
 6717TIP3   OH220035   0.956   8.484   2.340
 6717TIP3    H120036   1.008   8.428   2.284
 6717TIP3    H220037   0.930   8.428   2.413
 6718TIP3   OH220038   0.870   8.377   2.577
 6718TIP3    H120039   0.783   8.413   2.593
 6718TIP3    H220040   0.926   8.421   2.641
 6719TIP3   OH220041   1.023   8.820   3.029
 6719TIP3    H120042   0.959   8.827   2.958
 6719TIP3    H220043   1.096   8.772   2.990
 6720TIP3   OH220044   0.467   8.197   2.971
 6720TIP3    H120045   0.390   8.140   2.962
 6720TIP3    H220046   0.513   8.164   3.048
 6721TIP3   OH220047   1.284   8.286   2.679
 6721TIP3    H120048   1.365   8.318   2.718
 6721TIP3    H220049   1.263   8.206   2.728
 6722TIP3   OH220050   1.139   8.113   1.834
 6722TIP3    H120051   1.176   8.048   1.774
 6722TIP3    H220052   1.215   8.162   1.866
 6723TIP3   OH220053   1.083   8.481   2.725
 6723TIP3    H120054   1.116   8.526   2.803
 6723TIP3    H220055   1.148   8.413   2.707
 6724TIP3   OH220056   1.080   7.959   2.056
 6724TIP3    H120057   1.038   8.020   2.115
 6724TIP3    H220058   1.098   8.011   1.977
 6725TIP3   OH220059   1.763   8.421   2.705
 6725TIP3    H120060   1.676   8.406   2.741
 6725TIP3    H220061   1.755   8.400   2.612
 6726TIP3   OH220062   1.415   8.533   2.021
 6726TIP3    H120063   1.346   8.479   2.060
 6726TIP3    H220064   1.494   8.509   2.068
 6727TIP3   OH220065   0.460   7.820   2.556
 6727TIP3    H120066   0.448   7.765   2.478
 6727TIP3    H220067   0.442   7.761   2.629
 6728TIP3   OH220068   0.492   8.756   3.214
 6728TIP3    H120069   0.516   8.665   3.196
 6728TIP3    H220070   0.412   8.749   3.266
 6729TIP3   OH220071   0.743   8.557   2.841
 6729TIP3    H120072   0.658   8.516   2.852
 6729TIP3    H220073   0.744   8.588   2.750
 6730TIP3   OH220074   0.862   8.363   3.005
 6730TIP3    H120075   0.859   8.292   2.942
 6730TIP3    H220076   0.827   8.439   2.958
 6731TIP3   OH220077   0.861   8.191   2.786
 6731TIP3    H120078   0.887   8.234   2.705
 6731TIP3    H220079   0.768   8.172   2.774
 6732TIP3   OH220080   1.480   8.660   3.147
 6732TIP3    H120081   1.452   8.579   3.103
 6732TIP3    H220082   1.568   8.677   3.113
 6733TIP3   OH220083   0.629   8.528   3.173
 6733TIP3    H120084   0.612   8.440   3.208
 6733TIP3    H220085   0.725   8.536   3.173
 6734TIP3   OH220086   0.990   7.978   2.897
 6734TIP3    H120087   0.949   8.056   2.859
 6734TIP3    H220088   0.926   7.909   2.884
 6735TIP3   OH220089   1.130   8.399   3.041
 6735TIP3    H120090   1.124   8.452   3.121
 6735TIP3    H220091   1.040   8.372   3.024
 6736TIP3   OH220092   1.396   8.431   3.023
 6736TIP3    H120093   1.308   8.396   3.032
 6736TIP3    H220094   1.451   8.374   3.076
 6737TIP3   OH220095   1.641   8.371   3.152
 6737TIP3    H120096   1.645   8.275   3.156
 6737TIP3    H220097   1.626   8.397   3.243
 6738TIP3   OH220098   0.588   8.286   3.299
 6738TIP3    H120099   0.591   8.198   3.261
 6738TIP3    H220100   0.627   8.276   3.386
 6739TIP3   OH220101   1.056   7.963   3.161
 6739TIP3    H120102   1.125   7.898   3.153
 6739TIP3    H220103   1.022   7.974   3.072
 6740TIP3   OH220104   1.158   8.171   3.307
 6740TIP3    H120105   1.131   8.097   3.252
 6740TIP3    H220106   1.082   8.230   3.305
 6741TIP3   OH220107   1.554   8.568   1.745
 6741TIP3    H120108   1.524   8.478   1.734
 6741TIP3    H220109   1.520   8.594   1.831
 6742TIP3   OH220110   1.937   8.954   2.675
 6742TIP3    H120111   1.865   8.995   2.626
 6742TIP3    H220112   1.981   8.898   2.611
 6743TIP3   OH220113   1.466   8.314   1.698
 6743TIP3    H120114   1.515   8.232   1.697
 6743TIP3    H220115   1.438   8.327   1.607
 6744TIP3   OH220116   1.620   8.448   2.195
 6744TIP3    H120117   1.709   8.472   2.168
 6744TIP3    H220118   1.618   8.467   2.289
 6745TIP3   OH220119   1.606   8.522   2.460
 6745TIP3    H120120   1.538   8.534   2.527
 6745TIP3    H220121   1.616   8.609   2.421
 6746TIP3   OH220122   0.323   8.361   3.290
 6746TIP3    H120123   0.412   8.330   3.274
 6746TIP3    H220124   0.271   8.280   3.293
 6747TIP3   OH220125   2.165   8.254   3.007
 6747TIP3    H120126   2.224   8.192   2.964
 6747TIP3    H220127   2.120   8.298   2.935
 6748TIP3   OH220128   1.590   8.074   1.759
 6748TIP3    H120129   1.628   8.064   1.846
 6748TIP3    H220130   1.522   8.006   1.755
 6749TIP3   OH220131   0.337   8.068   2.626
 6749TIP3    H120132   0.367   7.981   2.598
 6749TIP3    H220133   0.367   8.127   2.557
 6750TIP3   OH220134   2.006   8.342   2.804
 6750TIP3    H120135   1.920   8.385   2.804
 6750TIP3    H220136   1.994   8.264   2.750
 6751TIP3   OH220137   1.660   8.012   1.366
 6751TIP3    H120138   1.704   7.954   1.304
 6751TIP3    H220139   1.721   8.084   1.380
 6752TIP3   OH220140   0.285   7.990   2.975
 6752TIP3    H120141   0.228   7.972   3.049
 6752TIP3    H220142   0.254   7.931   2.906
 6753TIP3   OH220143   1.920   8.108   2.692
 6753TIP3    H120144   1.831   8.107   2.655
 6753TIP3    H220145   1.949   8.017   2.687
 6754TIP3   OH220146   1.139   8.046   2.375
 6754TIP3    H120147   1.093   7.975   2.419
 6754TIP3    H220148   1.205   8.002   2.321
 6755TIP3   OH220149   1.628   7.949   2.210
 6755TIP3    H120150   1.664   8.009   2.145
 6755TIP3    H220151   1.536   7.973   2.217
 6756TIP3   OH220152   1.747   8.061   1.986
 6756TIP3    H120153   1.818   8.002   1.961
 6756TIP3    H220154   1.780   8.148   1.967
 6757TIP3   OH220155   0.841   7.768   2.260
 6757TIP3    H120156   0.808   7.836   2.201
 6757TIP3    H220157   0.892   7.816   2.326
 6758TIP3   OH220158   1.338   7.932   2.223
 6758TIP3    H120159   1.293   7.907   2.142
 6758TIP3    H220160   1.348   7.850   2.271
 6759TIP3   OH220161   1.397   7.876   1.747
 6759TIP3    H120162   1.305   7.876   1.721
 6759TIP3    H220163   1.405   7.802   1.807
 6760TIP3   OH220164   0.598   8.027   3.209
 6760TIP3    H120165   0.557   7.965   3.269
 6760TIP3    H220166   0.690   8.029   3.236
 6761TIP3   OH220167   0.843   8.026   3.333
 6761TIP3    H120168   0.920   8.002   3.283
 6761TIP3    H220169   0.832   7.956   3.398
 6762TIP3   OH220170   1.667   8.098   3.126
 6762TIP3    H120171   1.685   8.070   3.216
 6762TIP3    H220172   1.752   8.099   3.083
 6763TIP3   OH220173   1.809   8.460   1.653
 6763TIP3    H120174   1.740   8.527   1.657
 6763TIP3    H220175   1.803   8.415   1.737
 6764TIP3   OH220176   3.698   8.574   1.819
 6764TIP3    H120177   3.719   8.658   1.861
 6764TIP3    H220178   3.736   8.580   1.732
 6765TIP3   OH220179   3.067   8.769   1.830
 6765TIP3    H120180   3.099   8.682   1.853
 6765TIP3    H220181   3.021   8.756   1.747
 6766TIP3   OH220182   2.428   8.399   1.767
 6766TIP3    H120183   2.404   8.476   1.717
 6766TIP3    H220184   2.370   8.330   1.734
 6767TIP3   OH220185   3.112   8.509   1.441
 6767TIP3    H120186   3.177   8.498   1.511
 6767TIP3    H220187   3.161   8.546   1.368
 6768TIP3   OH220188   2.065   8.581   1.947
 6768TIP3    H120189   2.160   8.571   1.961
 6768TIP3    H220190   2.053   8.563   1.853
 6769TIP3   OH220191   2.471   8.773   1.791
 6769TIP3    H120192   2.562   8.758   1.765
 6769TIP3    H220193   2.420   8.731   1.722
 6770TIP3   OH220194   3.765   8.792   1.980
 6770TIP3    H120195   3.677   8.828   1.969
 6770TIP3    H220196   3.800   8.837   2.057
 6771TIP3   OH220197   2.408   8.394   2.239
 6771TIP3    H120198   2.352   8.426   2.168
 6771TIP3    H220199   2.355   8.407   2.318
 6772TIP3   OH220200   3.279   8.513   1.658
 6772TIP3    H120201   3.230   8.506   1.741
 6772TIP3    H220202   3.336   8.588   1.670
 6773TIP3   OH220203   2.324   8.501   1.999
 6773TIP3    H120204   2.399   8.559   2.014
 6773TIP3    H220205   2.350   8.448   1.924
 6774TIP3   OH220206   3.491   8.478   1.980
 6774TIP3    H120207   3.409   8.497   1.935
 6774TIP3    H220208   3.559   8.502   1.917
 6775TIP3   OH220209   2.755   8.104   1.976
 6775TIP3    H120210   2.749   8.012   2.000
 6775TIP3    H220211   2.676   8.144   2.014
 6776TIP3   OH220212   2.642   8.709   0.973
 6776TIP3    H120213   2.733   8.684   0.991
 6776TIP3    H220214   2.623   8.670   0.888
 6777TIP3   OH220215   3.322   9.046   2.065
 6777TIP3    H120216   3.309   9.140   2.079
 6777TIP3    H220217   3.233   9.011   2.054
 6778TIP3   OH220218   3.379   8.071   1.075
 6778TIP3    H120219   3.302   8.090   1.129
 6778TIP3    H220220   3.388   8.148   1.018
 6779TIP3   OH220221   3.514   8.957   2.248
 6779TIP3    H120222   3.452   8.975   2.178
 6779TIP3    H220223   3.534   8.864   2.239
 6780TIP3   OH220224   2.514   8.182   2.097
 6780TIP3    H120225   2.432   8.147   2.063
 6780TIP3    H220226   2.489   8.261   2.145
 6781TIP3   OH220227   3.049   8.323   2.302
 6781TIP3    H120228   3.121   8.303   2.362
 6781TIP3    H220229   2.970   8.297   2.350
 6782TIP3   OH220230   3.276   8.756   2.204
 6782TIP3    H120231   3.244   8.736   2.292
 6782TIP3    H220232   3.214   8.821   2.170
 6783TIP3   OH220233   2.656   8.242   1.060
 6783TIP3    H120234   2.626   8.249   1.151
 6783TIP3    H220235   2.622   8.158   1.029
 6784TIP3   OH220236   2.441   8.763   2.054
 6784TIP3    H120237   2.349   8.738   2.063
 6784TIP3    H220238   2.452   8.779   1.960
 6785TIP3   OH220239   2.321   8.610   1.627
 6785TIP3    H120240   2.230   8.589   1.648
 6785TIP3    H220241   2.334   8.576   1.539
 6786TIP3   OH220242   2.816   8.698   1.339
 6786TIP3    H120243   2.765   8.771   1.303
 6786TIP3    H220244   2.875   8.672   1.268
 6787TIP3   OH220245   3.035   8.921   2.410
 6787TIP3    H120246   3.019   8.886   2.497
 6787TIP3    H220247   3.123   8.957   2.414
 6788TIP3   OH220248   2.955   8.690   1.586
 6788TIP3    H120249   2.898   8.715   1.513
 6788TIP3    H220250   3.010   8.620   1.551
 6789TIP3   OH220251   2.285   8.712   2.346
 6789TIP3    H120252   2.225   8.765   2.400
 6789TIP3    H220253   2.279   8.624   2.384
 6790TIP3   OH220254   2.321   8.220   1.022
 6790TIP3    H120255   2.320   8.229   1.117
 6790TIP3    H220256   2.229   8.230   0.995
 6791TIP3   OH220257   1.862   8.292   1.879
 6791TIP3    H120258   1.933   8.303   1.942
 6791TIP3    H220259   1.897   8.233   1.813
 6792TIP3   OH220260   1.822   8.245   1.420
 6792TIP3    H120261   1.878   8.263   1.345
 6792TIP3    H220262   1.809   8.331   1.462
 6793TIP3   OH220263   3.074   8.923   2.058
 6793TIP3    H120264   3.075   8.885   1.970
 6793TIP3    H220265   3.002   8.879   2.103
 6794TIP3   OH220266   2.698   8.390   1.673
 6794TIP3    H120267   2.615   8.393   1.721
 6794TIP3    H220268   2.765   8.391   1.741
 6795TIP3   OH220269   2.085   8.480   1.687
 6795TIP3    H120270   1.994   8.474   1.658
 6795TIP3    H220271   2.120   8.392   1.672
 6796TIP3   OH220272   2.356   8.480   1.390
 6796TIP3    H120273   2.448   8.499   1.370
 6796TIP3    H220274   2.308   8.504   1.310
 6797TIP3   OH220275   3.126   8.505   1.894
 6797TIP3    H120276   3.110   8.520   1.987
 6797TIP3    H220277   3.060   8.440   1.869
 6798TIP3   OH220278   2.191   8.490   1.168
 6798TIP3    H120279   2.158   8.420   1.112
 6798TIP3    H220280   2.252   8.539   1.113
 6799TIP3   OH220281   2.735   8.700   1.768
 6799TIP3    H120282   2.813   8.692   1.713
 6799TIP3    H220283   2.761   8.663   1.852
 6800TIP3   OH220284   2.225   8.232   1.665
 6800TIP3    H120285   2.199   8.158   1.719
 6800TIP3    H220286   2.247   8.194   1.580
 6801TIP3   OH220287   2.708   8.637   2.056
 6801TIP3    H120288   2.630   8.692   2.044
 6801TIP3    H220289   2.769   8.692   2.104
 6802TIP3   OH220290   2.904   8.356   1.084
 6802TIP3    H120291   2.812   8.331   1.072
 6802TIP3    H220292   2.904   8.451   1.079
 6803TIP3   OH220293   2.979   8.631   1.118
 6803TIP3    H120294   3.065   8.611   1.155
 6803TIP3    H220295   2.997   8.667   1.031
 6804TIP3   OH220296   2.823   9.080   2.544
 6804TIP3    H120297   2.739   9.077   2.499
 6804TIP3    H220298   2.888   9.074   2.475
 6805TIP3   OH220299   3.372   8.708   0.993
 6805TIP3    H120300   3.330   8.678   0.912
 6805TIP3    H220301   3.366   8.803   0.989
 6806TIP3   OH220302   2.251   8.453   2.458
 6806TIP3    H120303   2.157   8.468   2.464
 6806TIP3    H220304   2.269   8.388   2.527
 6807TIP3   OH220305   3.072   8.556   2.161
 6807TIP3    H120306   3.153   8.591   2.197
 6807TIP3    H220307   3.058   8.474   2.209
 6808TIP3   OH220308   2.971   8.291   1.344
 6808TIP3    H120309   2.947   8.315   1.255
 6808TIP3    H220310   3.013   8.370   1.380
 6809TIP3   OH220311   2.641   8.495   1.420
 6809TIP3    H120312   2.702   8.565   1.396
 6809TIP3    H220313   2.661   8.476   1.511
 6810TIP3   OH220314   2.900   8.773   2.209
 6810TIP3    H120315   2.931   8.816   2.289
 6810TIP3    H220316   2.951   8.692   2.203
 6811TIP3   OH220317   2.788   8.181   1.518
 6811TIP3    H120318   2.762   8.258   1.569
 6811TIP3    H220319   2.857   8.213   1.460
 6812TIP3   OH220320   2.314   8.214   1.309
 6812TIP3    H120321   2.304   8.303   1.343
 6812TIP3    H220322   2.409   8.197   1.315
 6813TIP3   OH220323   3.535   8.674   2.189
 6813TIP3    H120324   3.442   8.698   2.199
 6813TIP3    H220325   3.536   8.610   2.118
 6814TIP3   OH220326   3.223   8.841   1.537
 6814TIP3    H120327   3.136   8.826   1.574
 6814TIP3    H220328   3.283   8.813   1.606
 6815TIP3   OH220329   2.250   8.106   2.056
 6815TIP3    H120330   2.221   8.074   1.971
 6815TIP3    H220331   2.240   8.031   2.115
 6816TIP3   OH220332   2.310   9.020   2.652
 6816TIP3    H120333   2.340   8.931   2.668
 6816TIP3    H220334   2.251   9.040   2.725
 6817TIP3   OH220335   2.539   8.800   2.313
 6817TIP3    H120336   2.455   8.763   2.341
 6817TIP3    H220337   2.536   8.797   2.218
 6818TIP3   OH220338   2.383   8.605   1.016
 6818TIP3    H120339   2.350   8.603   0.926
 6818TIP3    H220340   2.468   8.648   1.009
 6819TIP3   OH220341   2.690   8.617   2.468
 6819TIP3    H120342   2.682   8.549   2.402
 6819TIP3    H220343   2.647   8.693   2.430
 6820TIP3   OH220344   2.674   8.445   2.256
 6820TIP3    H120345   2.695   8.495   2.177
 6820TIP3    H220346   2.581   8.427   2.248
 6821TIP3   OH220347   3.260   8.887   2.636
 6821TIP3    H120348   3.303   8.806   2.609
 6821TIP3    H220349   3.287   8.952   2.571
 6822TIP3   OH220350   2.417   8.773   2.674
 6822TIP3    H120351   2.403   8.683   2.703
 6822TIP3    H220352   2.512   8.783   2.674
 6823TIP3   OH220353   2.802   8.241   2.389
 6823TIP3    H120354   2.760   8.315   2.345
 6823TIP3    H220355   2.736   8.172   2.389
 6824TIP3   OH220356   2.947   8.585   2.553
 6824TIP3    H120357   2.950   8.671   2.594
 6824TIP3    H220358   2.859   8.579   2.515
 6825TIP3   OH220359   3.189   8.648   2.435
 6825TIP3    H120360   3.109   8.612   2.473
 6825TIP3    H220361   3.257   8.629   2.500
 6826TIP3   OH220362   3.402   8.640   2.621
 6826TIP3    H120363   3.425   8.547   2.615
 6826TIP3    H220364   3.400   8.658   2.715
 6827TIP3   OH220365   2.354   8.528   2.786
 6827TIP3    H120366   2.363   8.441   2.748
 6827TIP3    H220367   2.406   8.525   2.867
 6828TIP3   OH220368   2.925   8.392   2.772
 6828TIP3    H120369   2.941   8.407   2.679
 6828TIP3    H220370   2.858   8.457   2.795
 6829TIP3   OH220371   3.252   8.614   0.770
 6829TIP3    H120372   3.252   8.655   0.684
 6829TIP3    H220373   3.224   8.524   0.754
 6830TIP3   OH220374   3.355   8.831   1.295
 6830TIP3    H120375   3.311   8.747   1.278
 6830TIP3    H220376   3.317   8.862   1.377
 6831TIP3   OH220377   3.748   9.103   2.272
 6831TIP3    H120378   3.661   9.067   2.256
 6831TIP3    H220379   3.808   9.033   2.246
 6832TIP3   OH220380   3.191   8.334   0.732
 6832TIP3    H120381   3.260   8.310   0.794
 6832TIP3    H220382   3.112   8.294   0.768
 6833TIP3   OH220383   3.245   8.582   1.203
 6833TIP3    H120384   3.292   8.500   1.220
 6833TIP3    H220385   3.291   8.621   1.129
 6834TIP3   OH220386   3.417   8.745   1.717
 6834TIP3    H120387   3.492   8.777   1.667
 6834TIP3    H220388   3.433   8.776   1.806
 6835TIP3   OH220389   3.514   8.903   1.928
 6835TIP3    H120390   3.445   8.952   1.973
 6835TIP3    H220391   3.536   8.955   1.851
 6836TIP3   OH220392   2.092   8.594   2.749
 6836TIP3    H120393   2.186   8.581   2.737
 6836TIP3    H220394   2.060   8.510   2.782
 6837TIP3   OH220395   3.941   8.530   2.483
 6837TIP3    H120396   4.003   8.468   2.447
 6837TIP3    H220397   3.903   8.574   2.407
 6838TIP3   OH220398   3.370   8.346   1.267
 6838TIP3    H120399   3.418   8.331   1.348
 6838TIP3    H220400   3.309   8.272   1.260
 6839TIP3   OH220401   2.063   8.310   2.073
 6839TIP3    H120402   2.130   8.243   2.077
 6839TIP3    H220403   2.110   8.390   2.050
 6840TIP3   OH220404   1.863   8.565   2.132
 6840TIP3    H120405   1.936   8.562   2.070
 6840TIP3    H220406   1.799   8.622   2.090
 6841TIP3   OH220407   3.795   8.623   2.271
 6841TIP3    H120408   3.707   8.661   2.264
 6841TIP3    H220409   3.787   8.539   2.226
 6842TIP3   OH220410   3.420   8.273   0.886
 6842TIP3    H120411   3.473   8.216   0.831
 6842TIP3    H220412   3.473   8.351   0.899
 6843TIP3   OH220413   1.853   8.110   1.658
 6843TIP3    H120414   1.764   8.088   1.687
 6843TIP3    H220415   1.839   8.161   1.578
 6844TIP3   OH220416   2.077   8.157   2.462
 6844TIP3    H120417   2.025   8.142   2.541
 6844TIP3    H220418   2.020   8.207   2.404
 6845TIP3   OH220419   3.718   8.368   2.184
 6845TIP3    H120420   3.628   8.355   2.153
 6845TIP3    H220421   3.757   8.281   2.180
 6846TIP3   OH220422   2.925   8.314   1.829
 6846TIP3    H120423   2.883   8.242   1.876
 6846TIP3    H220424   2.992   8.273   1.775
 6847TIP3   OH220425   3.421   8.229   1.716
 6847TIP3    H120426   3.460   8.278   1.644
 6847TIP3    H220427   3.328   8.253   1.714
 6848TIP3   OH220428   3.541   8.295   1.478
 6848TIP3    H120429   3.610   8.236   1.447
 6848TIP3    H220430   3.578   8.383   1.467
 6849TIP3   OH220431   2.159   8.008   1.815
 6849TIP3    H120432   2.070   7.974   1.826
 6849TIP3    H220433   2.214   7.930   1.806
 6850TIP3   OH220434   1.994   7.921   1.497
 6850TIP3    H120435   2.016   7.970   1.417
 6850TIP3    H220436   1.950   7.986   1.553
 6851TIP3   OH220437   2.641   8.045   1.719
 6851TIP3    H120438   2.688   8.090   1.649
 6851TIP3    H220439   2.684   8.075   1.799
 6852TIP3   OH220440   3.132   8.192   1.693
 6852TIP3    H120441   3.145   8.158   1.604
 6852TIP3    H220442   3.139   8.115   1.749
 6853TIP3   OH220443   3.188   8.138   1.262
 6853TIP3    H120444   3.108   8.186   1.285
 6853TIP3    H220445   3.176   8.052   1.301
 6854TIP3   OH220446   2.095   8.051   1.262
 6854TIP3    H120447   2.122   7.981   1.203
 6854TIP3    H220448   2.177   8.096   1.285
 6855TIP3   OH220449   2.588   8.243   1.326
 6855TIP3    H120450   2.642   8.189   1.384
 6855TIP3    H220451   2.603   8.333   1.356
 6856TIP3   OH220452   2.373   8.263   2.697
 6856TIP3    H120453   2.336   8.196   2.755
 6856TIP3    H220454   2.464   8.273   2.727
 6857TIP3   OH220455   2.610   8.289   2.837
 6857TIP3    H120456   2.700   8.283   2.807
 6857TIP3    H220457   2.603   8.224   2.907
 6858TIP3   OH220458   3.468   8.373   2.617
 6858TIP3    H120459   3.496   8.347   2.704
 6858TIP3    H220460   3.548   8.370   2.565
 6859TIP3   OH220461   3.597   8.760   1.164
 6859TIP3    H120462   3.549   8.807   1.232
 6859TIP3    H220463   3.530   8.735   1.100
 6860TIP3   OH220464   5.397   8.932   1.328
 6860TIP3    H120465   5.453   8.974   1.392
 6860TIP3    H220466   5.402   8.988   1.250
 6861TIP3   OH220467   4.788   8.952   1.425
 6861TIP3    H120468   4.785   8.857   1.440
 6861TIP3    H220469   4.755   8.964   1.336
 6862TIP3   OH220470   4.150   8.656   1.333
 6862TIP3    H120471   4.187   8.702   1.258
 6862TIP3    H220472   4.088   8.594   1.294
 6863TIP3   OH220473   4.835   8.809   1.050
 6863TIP3    H120474   4.921   8.770   1.037
 6863TIP3    H220475   4.806   8.834   0.962
 6864TIP3   OH220476   3.817   8.858   1.434
 6864TIP3    H120477   3.904   8.848   1.472
 6864TIP3    H220478   3.828   8.830   1.343
 6865TIP3   OH220479   4.214   9.066   1.307
 6865TIP3    H120480   4.278   9.104   1.246
 6865TIP3    H220481   4.167   9.001   1.255
 6866TIP3   OH220482   5.545   9.080   1.515
 6866TIP3    H120483   5.498   9.163   1.523
 6866TIP3    H220484   5.502   9.022   1.577
 6867TIP3   OH220485   4.196   8.654   1.743
 6867TIP3    H120486   4.145   8.699   1.676
 6867TIP3    H220487   4.147   8.667   1.824
 6868TIP3   OH220488   5.124   8.794   1.226
 6868TIP3    H120489   5.059   8.752   1.283
 6868TIP3    H220490   5.115   8.749   1.142
 6869TIP3   OH220491   4.062   8.788   1.546
 6869TIP3    H120492   4.121   8.862   1.560
 6869TIP3    H220493   4.096   8.744   1.468
 6870TIP3   OH220494   5.252   8.749   1.490
 6870TIP3    H120495   5.159   8.745   1.472
 6870TIP3    H220496   5.289   8.799   1.418
 6871TIP3   OH220497   4.514   8.325   1.457
 6871TIP3    H120498   4.510   8.238   1.496
 6871TIP3    H220499   4.446   8.375   1.501
 6872TIP3   OH220500   8.260   0.017   1.781
 6872TIP3    H120501   8.303  -0.060   1.742
 6872TIP3    H220502   8.235   0.071   1.706
 6873TIP3   OH220503   5.259   8.378   0.522
 6873TIP3    H120504   5.184   8.368   0.463
 6873TIP3    H220505   5.273   8.472   0.527
 6874TIP3   OH220506   4.297   8.445   1.588
 6874TIP3    H120507   4.211   8.418   1.554
 6874TIP3    H220508   4.279   8.527   1.634
 6875TIP3   OH220509   4.836   8.544   1.784
 6875TIP3    H120510   4.904   8.527   1.849
 6875TIP3    H220511   4.754   8.525   1.830
 6876TIP3   OH220512   5.089   9.009   1.708
 6876TIP3    H120513   5.055   8.978   1.792
 6876TIP3    H220514   5.037   8.961   1.643
 6877TIP3   OH220515   4.635   8.475   0.536
 6877TIP3    H120516   4.560   8.505   0.484
 6877TIP3    H220517   4.674   8.405   0.483
 6878TIP3   OH220518   4.242   8.997   1.582
 6878TIP3    H120519   4.182   9.022   1.652
 6878TIP3    H220520   4.213   9.049   1.507
 6879TIP3   OH220521   4.109   8.871   1.135
 6879TIP3    H120522   4.021   8.848   1.165
 6879TIP3    H220523   4.116   8.831   1.048
 6880TIP3   OH220524   4.645   8.938   0.880
 6880TIP3    H120525   4.589   9.015   0.877
 6880TIP3    H220526   4.675   8.927   0.790
 6881TIP3   OH220527   4.748   9.206   1.905
 6881TIP3    H120528   4.763   9.147   1.979
 6881TIP3    H220529   4.835   9.235   1.879
 6882TIP3   OH220530   4.720   9.022   1.165
 6882TIP3    H120531   4.691   9.084   1.098
 6882TIP3    H220532   4.751   8.946   1.116
 6883TIP3   OH220533   4.090   8.980   1.815
 6883TIP3    H120534   4.102   9.045   1.884
 6883TIP3    H220535   4.069   8.899   1.863
 6884TIP3   OH220536   4.103   8.569   0.453
 6884TIP3    H120537   4.102   8.649   0.505
 6884TIP3    H220538   4.031   8.516   0.489
 6885TIP3   OH220539   3.665   8.526   1.420
 6885TIP3    H120540   3.733   8.566   1.474
 6885TIP3    H220541   3.693   8.541   1.330
 6886TIP3   OH220542   3.557   8.514   0.929
 6886TIP3    H120543   3.604   8.564   0.862
 6886TIP3    H220544   3.489   8.573   0.960
 6887TIP3   OH220545   4.791   9.219   1.490
 6887TIP3    H120546   4.795   9.125   1.477
 6887TIP3    H220547   4.706   9.235   1.530
 6888TIP3   OH220548   4.507   8.614   1.297
 6888TIP3    H120549   4.416   8.591   1.319
 6888TIP3    H220550   4.505   8.710   1.288
 6889TIP3   OH220551   3.869   8.747   1.187
 6889TIP3    H120552   3.777   8.750   1.162
 6889TIP3    H220553   3.896   8.657   1.168
 6890TIP3   OH220554   4.096   8.727   0.896
 6890TIP3    H120555   4.143   8.643   0.897
 6890TIP3    H220556   4.019   8.710   0.840
 6891TIP3   OH220557   4.979   8.723   1.468
 6891TIP3    H120558   4.946   8.756   1.552
 6891TIP3    H220559   4.914   8.659   1.440
 6892TIP3   OH220560   4.059   8.806   0.582
 6892TIP3    H120561   4.058   8.877   0.646
 6892TIP3    H220562   4.090   8.848   0.501
 6893TIP3   OH220563   4.505   8.884   1.274
 6893TIP3    H120564   4.571   8.947   1.246
 6893TIP3    H220565   4.497   8.897   1.369
 6894TIP3   OH220566   3.988   8.494   1.172
 6894TIP3    H120567   3.967   8.410   1.212
 6894TIP3    H220568   4.065   8.477   1.118
 6895TIP3   OH220569   4.490   8.896   1.549
 6895TIP3    H120570   4.403   8.934   1.561
 6895TIP3    H220571   4.547   8.947   1.606
 6896TIP3   OH220572   7.780   0.076   2.002
 6896TIP3    H120573   7.766   0.154   1.949
 6896TIP3    H220574   7.856   0.033   1.963
 6897TIP3   OH220575   4.038   8.723   1.956
 6897TIP3    H120576   3.943   8.736   1.959
 6897TIP3    H220577   4.057   8.671   2.034
 6898TIP3   OH220578   4.871   8.807   1.711
 6898TIP3    H120579   4.903   8.837   1.796
 6898TIP3    H220580   4.847   8.715   1.725
 6899TIP3   OH220581   4.579   8.713   0.683
 6899TIP3    H120582   4.582   8.636   0.626
 6899TIP3    H220583   4.670   8.730   0.705
 6900TIP3   OH220584   4.489   8.712   0.957
 6900TIP3    H120585   4.480   8.747   0.869
 6900TIP3    H220586   4.545   8.774   1.003
 6901TIP3   OH220587   4.657   9.010   1.733
 6901TIP3    H120588   4.695   9.082   1.783
 6901TIP3    H220589   4.731   8.951   1.717
 6902TIP3   OH220590   4.648   8.488   1.098
 6902TIP3    H120591   4.602   8.532   1.170
 6902TIP3    H220592   4.585   8.488   1.026
 6903TIP3   OH220593   3.973   8.409   0.825
 6903TIP3    H120594   3.933   8.493   0.801
 6903TIP3    H220595   4.067   8.429   0.833
 6904TIP3   OH220596   5.356   8.939   1.668
 6904TIP3    H120597   5.274   8.984   1.687
 6904TIP3    H220598   5.331   8.865   1.613
 6905TIP3   OH220599   4.985   9.275   1.058
 6905TIP3    H120600   4.938   9.235   0.985
 6905TIP3    H220601   5.022   9.201   1.107
 6906TIP3   OH220602   3.633   8.722   0.759
 6906TIP3    H120603   3.645   8.812   0.790
 6906TIP3    H220604   3.593   8.732   0.673
 6907TIP3   OH220605   4.033   8.369   1.548
 6907TIP3    H120606   4.003   8.339   1.463
 6907TIP3    H220607   4.025   8.293   1.605
 6908TIP3   OH220608   4.019   9.225   2.229
 6908TIP3    H120609   4.050   9.215   2.138
 6908TIP3    H220610   3.925   9.241   2.221
 6909TIP3   OH220611   4.165   9.186   1.989
 6909TIP3    H120612   4.243   9.166   2.042
 6909TIP3    H220613   4.193   9.259   1.934
 6910TIP3   OH220614   4.485   8.934   1.950
 6910TIP3    H120615   4.467   8.849   1.910
 6910TIP3    H220616   4.523   8.986   1.880
 6911TIP3   OH220617   4.458   8.723   1.770
 6911TIP3    H120618   4.479   8.766   1.687
 6911TIP3    H220619   4.365   8.702   1.762
 6912TIP3   OH220620   5.082   9.230   2.045
 6912TIP3    H120621   5.118   9.141   2.045
 6912TIP3    H220622   5.061   9.248   1.954
 6913TIP3   OH220623   4.338   9.021   2.169
 6913TIP3    H120624   4.269   8.958   2.190
 6913TIP3    H220625   4.379   8.986   2.090
 6914TIP3   OH220626   4.577   8.501   1.877
 6914TIP3    H120627   4.540   8.581   1.840
 6914TIP3    H220628   4.510   8.434   1.861
 6915TIP3   OH220629   4.735   8.991   2.078
 6915TIP3    H120630   4.734   8.986   2.173
 6915TIP3    H220631   4.647   8.963   2.052
 6916TIP3   OH220632   4.965   8.925   1.941
 6916TIP3    H120633   4.888   8.942   1.995
 6916TIP3    H220634   5.037   8.919   2.004
 6917TIP3   OH220635   5.199   8.945   2.097
 6917TIP3    H120636   5.214   8.850   2.103
 6917TIP3    H220637   5.186   8.972   2.188
 6918TIP3   OH220638   4.165   8.822   2.272
 6918TIP3    H120639   4.164   8.732   2.240
 6918TIP3    H220640   4.203   8.815   2.360
 6919TIP3   OH220641   4.637   8.490   2.143
 6919TIP3    H120642   4.712   8.430   2.139
 6919TIP3    H220643   4.607   8.497   2.053
 6920TIP3   OH220644   4.745   8.714   2.262
 6920TIP3    H120645   4.707   8.640   2.214
 6920TIP3    H220646   4.673   8.777   2.269
 6921TIP3   OH220647   5.165   9.137   0.798
 6921TIP3    H120648   5.151   9.099   0.885
 6921TIP3    H220649   5.191   9.227   0.816
 6922TIP3   OH220650   8.747   0.067   1.797
 6922TIP3    H120651   8.697   0.072   1.716
 6922TIP3    H220652   8.834   0.037   1.770
 6923TIP3   OH220653   5.032   8.887   0.786
 6923TIP3    H120654   5.089   8.854   0.717
 6923TIP3    H220655   5.050   8.981   0.789
 6924TIP3   OH220656   5.148   9.025   1.046
 6924TIP3    H120657   5.228   9.064   1.081
 6924TIP3    H220658   5.106   8.985   1.122
 6925TIP3   OH220659   8.647   0.057   1.539
 6925TIP3    H120660   8.679   0.141   1.504
 6925TIP3    H220661   8.580   0.029   1.477
 6926TIP3   OH220662   3.896   8.877   2.212
 6926TIP3    H120663   3.989   8.883   2.231
 6926TIP3    H220664   3.869   8.793   2.249
 6927TIP3   OH220665   5.725   8.793   1.985
 6927TIP3    H120666   5.788   8.726   1.957
 6927TIP3    H220667   5.696   8.835   1.904
 6928TIP3   OH220668   5.143   8.660   0.663
 6928TIP3    H120669   5.237   8.658   0.645
 6928TIP3    H220670   5.126   8.581   0.713
 6929TIP3   OH220671   3.870   8.589   1.600
 6929TIP3    H120672   3.929   8.515   1.587
 6929TIP3    H220673   3.925   8.667   1.587
 6930TIP3   OH220674   3.639   8.893   1.638
 6930TIP3    H120675   3.685   8.858   1.561
 6930TIP3    H220676   3.678   8.980   1.651
 6931TIP3   OH220677   5.609   8.914   1.772
 6931TIP3    H120678   5.514   8.927   1.768
 6931TIP3    H220679   5.630   8.867   1.692
 6932TIP3   OH220680   3.627   8.369   1.153
 6932TIP3    H120681   3.541   8.364   1.193
 6932TIP3    H220682   3.615   8.427   1.077
 6933TIP3   OH220683   3.872   8.402   1.948
 6933TIP3    H120684   3.820   8.398   2.029
 6933TIP3    H220685   3.820   8.457   1.889
 6934TIP3   OH220686   5.489   8.590   1.702
 6934TIP3    H120687   5.402   8.561   1.676
 6934TIP3    H220688   5.545   8.514   1.691
 6935TIP3   OH220689   4.759   8.576   1.404
 6935TIP3    H120690   4.667   8.579   1.379
 6935TIP3    H220691   4.804   8.545   1.325
 6936TIP3   OH220692   5.231   8.445   1.202
 6936TIP3    H120693   5.275   8.503   1.140
 6936TIP3    H220694   5.150   8.490   1.224
 6937TIP3   OH220695   5.345   8.591   1.007
 6937TIP3    H120696   5.425   8.585   0.956
 6937TIP3    H220697   5.322   8.684   1.004
 6938TIP3   OH220698   3.948   8.258   1.311
 6938TIP3    H120699   3.861   8.223   1.326
 6938TIP3    H220700   4.004   8.180   1.301
 6939TIP3   OH220701   3.765   8.170   1.032
 6939TIP3    H120702   3.735   8.200   0.946
 6939TIP3    H220703   3.724   8.230   1.094
 6940TIP3   OH220704   4.404   8.342   1.200
 6940TIP3    H120705   4.463   8.296   1.140
 6940TIP3    H220706   4.450   8.343   1.284
 6941TIP3   OH220707   4.961   8.509   1.218
 6941TIP3    H120708   4.943   8.499   1.124
 6941TIP3    H220709   4.952   8.420   1.253
 6942TIP3   OH220710   4.900   8.454   0.622
 6942TIP3    H120711   4.826   8.481   0.569
 6942TIP3    H220712   4.862   8.396   0.689
 6943TIP3   OH220713   3.728   8.287   0.783
 6943TIP3    H120714   3.760   8.217   0.726
 6943TIP3    H220715   3.808   8.333   0.810
 6944TIP3   OH220716   4.225   8.491   0.832
 6944TIP3    H120717   4.293   8.457   0.891
 6944TIP3    H220718   4.272   8.513   0.752
 6945TIP3   OH220719   4.169   8.550   2.187
 6945TIP3    H120720   4.134   8.483   2.246
 6945TIP3    H220721   4.261   8.558   2.212
 6946TIP3   OH220722   4.416   8.556   2.313
 6946TIP3    H120723   4.495   8.532   2.265
 6946TIP3    H220724   4.407   8.489   2.381
 6947TIP3   OH220725   5.245   8.666   2.103
 6947TIP3    H120726   5.258   8.633   2.192
 6947TIP3    H220727   5.330   8.654   2.061
 6948TIP3   OH220728   5.545   9.142   0.882
 6948TIP3    H120729   5.557   9.232   0.852
 6948TIP3    H220730   5.634   9.110   0.898
 6949TIP3   OH220731   6.051   8.902   1.367
 6949TIP3    H120732   5.993   8.856   1.307
 6949TIP3    H220733   5.995   8.929   1.439
 6950TIP3   OH220734   5.804   9.084   0.993
 6950TIP3    H120735   5.849   9.168   0.997
 6950TIP3    H220736   5.862   9.028   0.942
 6951TIP3   OH220737   6.407   8.648   0.898
 6951TIP3    H120738   6.343   8.600   0.846
 6951TIP3    H220739   6.370   8.736   0.907
 6952TIP3   OH220740   6.044   8.765   1.099
 6952TIP3    H120741   5.979   8.710   1.056
 6952TIP3    H220742   6.071   8.827   1.032
 6953TIP3   OH220743   6.731   8.895   1.244
 6953TIP3    H120744   6.771   8.885   1.330
 6953TIP3    H220745   6.653   8.841   1.248
 6954TIP3   OH220746   0.416   0.174   1.079
 6954TIP3    H120747   0.386   0.139   1.163
 6954TIP3    H220748   0.378   0.261   1.074
 6955TIP3   OH220749   9.243   0.084   1.020
 6955TIP3    H120750   9.278   0.022   1.084
 6955TIP3    H220751   9.270   0.170   1.053
 6956TIP3   OH220752   0.017   0.242   1.481
 6956TIP3    H120753  -0.005   0.168   1.538
 6956TIP3    H220754   0.092   0.213   1.431
 6957TIP3   OH220755   9.076   0.061   1.279
 6957TIP3    H120756   9.093   0.057   1.373
 6957TIP3    H220757   9.142   0.005   1.240
 6958TIP3   OH220758   5.572   8.685   0.862
 6958TIP3    H120759   5.540   8.772   0.886
 6958TIP3    H220760   5.603   8.694   0.772
 6959TIP3   OH220761   9.528   0.027   1.131
 6959TIP3    H120762   9.533   0.015   1.037
 6959TIP3    H220763   9.601   0.085   1.152
 6960TIP3   OH220764   9.549   0.243   1.553
 6960TIP3    H120765   9.490   0.317   1.539
 6960TIP3    H220766   9.633   0.271   1.516
 6961TIP3   OH220767   5.846   8.986   1.544
 6961TIP3    H120768   5.756   8.968   1.519
 6961TIP3    H220769   5.869   8.915   1.604
 6962TIP3   OH220770   6.562   9.109   1.181
 6962TIP3    H120771   6.589   9.172   1.114
 6962TIP3    H220772   6.640   9.055   1.197
 6963TIP3   OH220773   9.721   0.188   1.213
 6963TIP3    H120774   9.767   0.238   1.282
 6963TIP3    H220775   9.788   0.171   1.147
 6964TIP3   OH220776   0.646   0.002   1.172
 6964TIP3    H120777   0.573   0.022   1.230
 6964TIP3    H220778   0.638   0.064   1.100
 6965TIP3   OH220779   5.778   8.660   1.055
 6965TIP3    H120780   5.713   8.644   0.986
 6965TIP3    H220781   5.798   8.573   1.089
 6966TIP3   OH220782   9.106   0.227   1.719
 6966TIP3    H120783   9.201   0.215   1.713
 6966TIP3    H220784   9.086   0.289   1.649
 6967TIP3   OH220785   9.373   0.255   1.207
 6967TIP3    H120786   9.368   0.283   1.298
 6967TIP3    H220787   9.432   0.180   1.207
 6968TIP3   OH220788   6.200   9.047   1.598
 6968TIP3    H120789   6.231   8.965   1.561
 6968TIP3    H220790   6.206   9.109   1.525
 6969TIP3   OH220791   6.281   8.960   1.212
 6969TIP3    H120792   6.304   9.042   1.254
 6969TIP3    H220793   6.202   8.931   1.257
 6970TIP3   OH220794   0.283   0.314   1.582
 6970TIP3    H120795   0.361   0.263   1.603
 6970TIP3    H220796   0.299   0.348   1.494
 6971TIP3   OH220797   9.360   0.123   1.730
 6971TIP3    H120798   9.334   0.032   1.739
 6971TIP3    H220799   9.440   0.121   1.678
 6972TIP3   OH220800   6.283   8.783   1.474
 6972TIP3    H120801   6.200   8.792   1.426
 6972TIP3    H220802   6.317   8.698   1.446
 6973TIP3   OH220803   6.496   9.254   1.620
 6973TIP3    H120804   6.440   9.232   1.694
 6973TIP3    H220805   6.454   9.213   1.544
 6974TIP3   OH220806   6.753   9.198   1.512
 6974TIP3    H120807   6.670   9.203   1.559
 6974TIP3    H220808   6.819   9.185   1.580
 6975TIP3   OH220809   6.964   9.146   1.678
 6975TIP3    H120810   7.015   9.066   1.674
 6975TIP3    H220811   6.917   9.141   1.762
 6976TIP3   OH220812   5.989   9.111   1.799
 6976TIP3    H120813   6.018   9.045   1.737
 6976TIP3    H220814   6.019   9.080   1.885
 6977TIP3   OH220815   6.407   8.717   1.708
 6977TIP3    H120816   6.495   8.698   1.676
 6977TIP3    H220817   6.357   8.737   1.629
 6978TIP3   OH220818   6.532   8.981   1.784
 6978TIP3    H120819   6.515   8.948   1.695
 6978TIP3    H220820   6.465   9.048   1.798
 6979TIP3   OH220821   5.713   9.167   1.812
 6979TIP3    H120822   5.809   9.161   1.813
 6979TIP3    H220823   5.684   9.077   1.794
 6980TIP3   OH220824   7.452   9.033   1.384
 6980TIP3    H120825   7.530   8.991   1.347
 6980TIP3    H220826   7.447   9.118   1.340
 6981TIP3   OH220827   5.612   8.894   1.037
 6981TIP3    H120828   5.686   8.845   1.002
 6981TIP3    H220829   5.648   8.981   1.057
 6982TIP3   OH220830   5.391   9.121   1.111
 6982TIP3    H120831   5.436   9.117   1.027
 6982TIP3    H220832   5.422   9.203   1.150
 6983TIP3   OH220833   5.624   8.772   1.545
 6983TIP3    H120834   5.565   8.712   1.591
 6983TIP3    H220835   5.651   8.723   1.467
 6984TIP3   OH220836   7.282   8.867   1.156
 6984TIP3    H120837   7.238   8.895   1.076
 6984TIP3    H220838   7.352   8.810   1.126
 6985TIP3   OH220839   5.698   8.600   0.625
 6985TIP3    H120840   5.715   8.554   0.708
 6985TIP3    H220841   5.736   8.542   0.559
 6986TIP3   OH220842   5.964   8.799   1.709
 6986TIP3    H120843   5.929   8.742   1.778
 6986TIP3    H220844   6.054   8.817   1.736
 6987TIP3   OH220845   6.201   8.818   1.853
 6987TIP3    H120846   6.282   8.791   1.810
 6987TIP3    H220847   6.182   8.748   1.915
 6988TIP3   OH220848   7.041   8.876   1.641
 6988TIP3    H120849   7.061   8.857   1.733
 6988TIP3    H220850   7.127   8.887   1.600
 6989TIP3   OH220851   1.813   0.270   6.050
 6989TIP3    H120852   1.902   0.246   6.076
 6989TIP3    H220853   1.789   0.340   6.111
 6990TIP3   OH220854   1.418   0.655   6.076
 6990TIP3    H120855   1.453   0.580   6.028
 6990TIP3    H220856   1.407   0.623   6.165
 6991TIP3   OH220857   1.783   0.488   6.240
 6991TIP3    H120858   1.707   0.513   6.292
 6991TIP3    H220859   1.805   0.567   6.190
 6992TIP3   OH220860   1.547   0.479   5.907
 6992TIP3    H120861   1.585   0.397   5.877
 6992TIP3    H220862   1.610   0.546   5.879
 6993TIP3   OH220863   1.704   0.278   5.794
 6993TIP3    H120864   1.699   0.190   5.757
 6993TIP3    H220865   1.743   0.266   5.881
 6994TIP3   OH220866   2.078   0.364   6.596
 6994TIP3    H120867   2.061   0.281   6.551
 6994TIP3    H220868   2.049   0.431   6.535
 6995TIP3   OH220869   2.284   0.020   6.436
 6995TIP3    H120870   2.193   0.048   6.448
 6995TIP3    H220871   2.299   0.025   6.342
 6996TIP3   OH220872   1.931   0.351   5.227
 6996TIP3    H120873   1.923   0.446   5.239
 6996TIP3    H220874   2.018   0.330   5.259
 6997TIP3   OH220875   2.300   0.729   6.641
 6997TIP3    H120876   2.308   0.633   6.644
 6997TIP3    H220877   2.219   0.747   6.688
 6998TIP3   OH220878   1.153   0.659   5.747
 6998TIP3    H120879   1.118   0.663   5.658
 6998TIP3    H220880   1.129   0.744   5.786
 6999TIP3   OH220881   1.317   0.622   5.352
 6999TIP3    H120882   1.390   0.577   5.395
 6999TIP3    H220883   1.258   0.646   5.423
 7000TIP3   OH220884   1.408   0.590   5.698
 7000TIP3    H120885   1.316   0.605   5.717
 7000TIP3    H220886   1.443   0.549   5.777
 7001TIP3   OH220887   2.003   1.056   6.733
 7001TIP3    H120888   1.995   1.067   6.638
 7001TIP3    H220889   2.083   1.105   6.755
 7002TIP3   OH220890   2.037   0.155   6.416
 7002TIP3    H120891   2.072   0.205   6.342
 7002TIP3    H220892   1.953   0.122   6.385
 7003TIP3   OH220893   2.328   0.455   6.649
 7003TIP3    H120894   2.238   0.424   6.660
 7003TIP3    H220895   2.357   0.415   6.567
 7004TIP3   OH220896   1.848   0.395   5.582
 7004TIP3    H120897   1.811   0.361   5.664
 7004TIP3    H220898   1.806   0.344   5.513
 7005TIP3   OH220899   1.431   0.194   5.508
 7005TIP3    H120900   1.526   0.194   5.513
 7005TIP3    H220901   1.405   0.109   5.544
 7006TIP3   OH220902   1.839   0.741   6.554
 7006TIP3    H120903   1.751   0.703   6.562
 7006TIP3    H220904   1.828   0.813   6.492
 7007TIP3   OH220905   1.923   0.630   5.248
 7007TIP3    H120906   1.973   0.707   5.220
 7007TIP3    H220907   1.844   0.665   5.287
 7008TIP3   OH220908   1.733   0.028   5.665
 7008TIP3    H120909   1.728  -0.037   5.735
 7008TIP3    H220910   1.827   0.037   5.648
 7009TIP3   OH220911   1.855   0.735   6.141
 7009TIP3    H120912   1.812   0.785   6.072
 7009TIP3    H220913   1.949   0.743   6.122
 7010TIP3   OH220914   1.728   0.701   6.860
 7010TIP3    H120915   1.738   0.607   6.849
 7010TIP3    H220916   1.804   0.728   6.913
 7011TIP3   OH220917   1.411   0.289   5.249
 7011TIP3    H120918   1.422   0.258   5.339
 7011TIP3    H220919   1.467   0.367   5.243
 7012TIP3   OH220920   8.321   9.113   5.192
 7012TIP3    H120921   8.324   9.039   5.131
 7012TIP3    H220922   8.239   9.159   5.172
 7013TIP3   OH220923   2.128   0.782   6.133
 7013TIP3    H120924   2.146   0.797   6.226
 7013TIP3    H220925   2.164   0.859   6.089
 7014TIP3   OH220926   2.148   0.793   6.412
 7014TIP3    H120927   2.100   0.710   6.408
 7014TIP3    H220928   2.215   0.778   6.479
 7015TIP3   OH220929   2.202   0.502   6.979
 7015TIP3    H120930   2.133   0.510   7.045
 7015TIP3    H220931   2.245   0.587   6.979
 7016TIP3   OH220932   2.012   0.036   5.661
 7016TIP3    H120933   2.069   0.110   5.640
 7016TIP3    H220934   2.058  -0.012   5.729
 7017TIP3   OH220935   8.679   9.124   5.853
 7017TIP3    H120936   8.648   9.100   5.941
 7017TIP3    H220937   8.765   9.162   5.868
 7018TIP3   OH220938   2.160   0.287   6.211
 7018TIP3    H120939   2.226   0.224   6.181
 7018TIP3    H220940   2.178   0.366   6.161
 7019TIP3   OH220941   1.993   0.560   6.418
 7019TIP3    H120942   1.932   0.614   6.468
 7019TIP3    H220943   1.940   0.521   6.349
 7020TIP3   OH220944   8.631   9.152   5.420
 7020TIP3    H120945   8.553   9.097   5.417
 7020TIP3    H220946   8.609   9.221   5.482
 7021TIP3   OH220947   1.703   0.673   5.803
 7021TIP3    H120948   1.753   0.677   5.721
 7021TIP3    H220949   1.725   0.754   5.849
 7022TIP3   OH220950   1.595   0.909   6.731
 7022TIP3    H120951   1.629   0.827   6.766
 7022TIP3    H220952   1.646   0.977   6.775
 7023TIP3   OH220953   1.357   0.794   6.374
 7023TIP3    H120954   1.301   0.826   6.304
 7023TIP3    H220955   1.358   0.865   6.438
 7024TIP3   OH220956   1.608   0.681   6.392
 7024TIP3    H120957   1.514   0.699   6.395
 7024TIP3    H220958   1.647   0.762   6.361
 7025TIP3   OH220959   1.795   0.915   6.341
 7025TIP3    H120960   1.774   0.998   6.297
 7025TIP3    H220961   1.815   0.855   6.269
 7026TIP3   OH220962   1.078   0.468   5.304
 7026TIP3    H120963   1.158   0.521   5.309
 7026TIP3    H220964   1.102   0.386   5.348
 7027TIP3   OH220965   1.841   0.664   5.563
 7027TIP3    H120966   1.849   0.569   5.563
 7027TIP3    H220967   1.785   0.684   5.488
 7028TIP3   OH220968   2.046   0.784   6.738
 7028TIP3    H120969   1.976   0.752   6.681
 7028TIP3    H220970   2.030   0.879   6.744
 7029TIP3   OH220971   3.325   0.173   5.474
 7029TIP3    H120972   3.292   0.258   5.445
 7029TIP3    H220973   3.258   0.110   5.448
 7030TIP3   OH220974   3.330   0.162   5.892
 7030TIP3    H120975   3.372   0.138   5.975
 7030TIP3    H220976   3.278   0.085   5.868
 7031TIP3   OH220977   2.611   0.047   6.240
 7031TIP3    H120978   2.642  -0.010   6.310
 7031TIP3    H220979   2.686   0.057   6.182
 7032TIP3   OH220980   3.593   0.467   5.570
 7032TIP3    H120981   3.571   0.403   5.637
 7032TIP3    H220982   3.609   0.548   5.618
 7033TIP3   OH220983   2.639   0.438   5.997
 7033TIP3    H120984   2.611   0.350   5.972
 7033TIP3    H220985   2.626   0.491   5.919
 7034TIP3   OH220986   8.833   8.894   5.793
 7034TIP3    H120987   8.769   8.965   5.804
 7034TIP3    H220988   8.780   8.816   5.779
 7035TIP3   OH220989   8.926   9.211   5.929
 7035TIP3    H120990   8.974   9.133   5.958
 7035TIP3    H220991   8.994   9.277   5.915
 7036TIP3   OH220992   3.238   0.893   5.583
 7036TIP3    H120993   3.270   0.833   5.516
 7036TIP3    H220994   3.233   0.841   5.663
 7037TIP3   OH220995   3.133   0.388   5.933
 7037TIP3    H120996   3.164   0.319   5.874
 7037TIP3    H220997   3.213   0.437   5.956
 7038TIP3   OH220998   0.279   9.103   5.956
 7038TIP3    H120999   0.357   9.048   5.953
 7038TIP3    H221000   0.236   9.088   5.872
 7039TIP3   OH221001   9.051   8.982   6.029
 7039TIP3    H121002   9.134   8.964   6.072
 7039TIP3    H221003   9.050   8.923   5.953
 7040TIP3   OH221004   9.467   9.183   5.849
 7040TIP3    H121005   9.561   9.168   5.849
 7040TIP3    H221006   9.429   9.098   5.824
 7041TIP3   OH221007   0.890   9.116   6.045
 7041TIP3    H121008   0.811   9.169   6.054
 7041TIP3    H221009   0.943   9.140   6.121
 7042TIP3   OH221010   3.224   0.387   5.331
 7042TIP3    H121011   3.183   0.357   5.250
 7042TIP3    H221012   3.170   0.461   5.360
 7043TIP3   OH221013   2.968   0.294   6.125
 7043TIP3    H121014   2.911   0.363   6.160
 7043TIP3    H221015   3.017   0.336   6.054
 7044TIP3   OH221016   9.301   8.906   6.107
 7044TIP3    H121017   9.368   8.960   6.150
 7044TIP3    H221018   9.347   8.865   6.034
 7045TIP3   OH221019   2.792   0.487   6.217
 7045TIP3    H121020   2.742   0.475   6.137
 7045TIP3    H221021   2.726   0.486   6.287
 7046TIP3   OH221022   2.202   0.211   5.551
 7046TIP3    H121023   2.175   0.227   5.460
 7046TIP3    H221024   2.226   0.297   5.584
 7047TIP3   OH221025   3.625   0.713   5.708
 7047TIP3    H121026   3.540   0.706   5.750
 7047TIP3    H221027   3.623   0.796   5.660
 7048TIP3   OH221028   3.334   0.749   5.366
 7048TIP3    H121029   3.387   0.670   5.356
 7048TIP3    H221030   3.391   0.820   5.338
 7049TIP3   OH221031   3.472   0.517   5.325
 7049TIP3    H121032   3.397   0.457   5.324
 7049TIP3    H221033   3.522   0.491   5.403
 7050TIP3   OH221034   3.852   0.612   6.054
 7050TIP3    H121035   3.829   0.539   5.996
 7050TIP3    H221036   3.837   0.690   6.001
 7051TIP3   OH221037   3.156   0.006   5.331
 7051TIP3    H121038   3.074   0.053   5.316
 7051TIP3    H221039   3.193  -0.005   5.243
 7052TIP3   OH221040   9.650   9.067   5.035
 7052TIP3    H121041   9.732   9.099   5.072
 7052TIP3    H221042   9.675   8.987   4.988
 7053TIP3   OH221043   4.017   0.281   5.933
 7053TIP3    H121044   3.933   0.327   5.926
 7053TIP3    H221045   4.055   0.288   5.845
 7054TIP3   OH221046   3.508   0.102   5.283
 7054TIP3    H121047   3.451   0.130   5.355
 7054TIP3    H221048   3.590   0.077   5.325
 7055TIP3   OH221049   3.716   0.136   6.233
 7055TIP3    H121050   3.709   0.220   6.278
 7055TIP3    H221051   3.634   0.128   6.184
 7056TIP3   OH221052   2.748   0.085   5.696
 7056TIP3    H121053   2.717   0.023   5.630
 7056TIP3    H221054   2.819   0.039   5.741
 7057TIP3   OH221055   2.829   0.066   6.070
 7057TIP3    H121056   2.868   0.028   5.991
 7057TIP3    H221057   2.881   0.144   6.087
 7058TIP3   OH221058   3.393   0.708   5.847
 7058TIP3    H121059   3.373   0.788   5.897
 7058TIP3    H221060   3.379   0.637   5.909
 7059TIP3   OH221061   2.988   0.617   6.372
 7059TIP3    H121062   2.923   0.664   6.424
 7059TIP3    H221063   2.936   0.561   6.314
 7060TIP3   OH221064   0.086   9.185   5.116
 7060TIP3    H121065   0.140   9.247   5.166
 7060TIP3    H221066   0.118   9.193   5.026
 7061TIP3   OH221067   2.774   0.182   6.505
 7061TIP3    H121068   2.774   0.271   6.541
 7061TIP3    H221069   2.681   0.159   6.502
 7062TIP3   OH221070   3.088   0.623   5.376
 7062TIP3    H121071   3.167   0.677   5.379
 7062TIP3    H221072   3.024   0.678   5.331
 7063TIP3   OH221073   2.755   0.745   6.465
 7063TIP3    H121074   2.703   0.680   6.417
 7063TIP3    H221075   2.707   0.758   6.547
 7064TIP3   OH221076   9.175   9.159   5.501
 7064TIP3    H121077   9.090   9.202   5.490
 7064TIP3    H221078   9.154   9.066   5.508
 7065TIP3   OH221079   3.667   0.562   4.736
 7065TIP3    H121080   3.660   0.655   4.716
 7065TIP3    H221081   3.757   0.539   4.713
 7066TIP3   OH221082   2.398   0.330   6.413
 7066TIP3    H121083   2.327   0.302   6.354
 7066TIP3    H221084   2.437   0.248   6.443
 7067TIP3   OH221085   2.230   0.527   6.082
 7067TIP3    H121086   2.322   0.546   6.101
 7067TIP3    H221087   2.184   0.608   6.104
 7068TIP3   OH221088   4.081   0.943   6.130
 7068TIP3    H121089   4.084   0.850   6.153
 7068TIP3    H221090   4.002   0.976   6.173
 7069TIP3   OH221091   3.187   0.754   6.239
 7069TIP3    H121092   3.179   0.845   6.268
 7069TIP3    H221093   3.118   0.708   6.285
 7070TIP3   OH221094   2.974   0.855   5.203
 7070TIP3    H121095   2.928   0.836   5.122
 7070TIP3    H221096   2.937   0.939   5.232
 7071TIP3   OH221097   2.432   0.715   5.613
 7071TIP3    H121098   2.505   0.711   5.674
 7071TIP3    H221099   2.398   0.625   5.611
 7072TIP3   OH221100   3.178   0.789   4.831
 7072TIP3    H121101   3.227   0.715   4.795
 7072TIP3    H221102   3.211   0.799   4.920
 7073TIP3   OH221103   3.227   0.824   5.102
 7073TIP3    H121104   3.141   0.830   5.142
 7073TIP3    H221105   3.283   0.786   5.171
 7074TIP3   OH221106   3.963   0.077   6.407
 7074TIP3    H121107   3.884   0.108   6.364
 7074TIP3    H221108   3.982  -0.007   6.365
 7075TIP3   OH221109   2.593   0.524   6.406
 7075TIP3    H121110   2.638   0.499   6.486
 7075TIP3    H221111   2.521   0.461   6.398
 7076TIP3   OH221112   0.402   9.143   6.379
 7076TIP3    H121113   0.437   9.070   6.328
 7076TIP3    H221114   0.415   9.219   6.323
 7077TIP3   OH221115   0.168   9.167   4.851
 7077TIP3    H121116   0.106   9.173   4.778
 7077TIP3    H221117   0.239   9.226   4.826
 7078TIP3   OH221118   9.464   9.097   6.230
 7078TIP3    H121119   9.406   9.102   6.306
 7078TIP3    H221120   9.436   9.169   6.174
 7079TIP3   OH221121   9.340   8.954   5.768
 7079TIP3    H121122   9.254   8.919   5.790
 7079TIP3    H221123   9.357   8.921   5.680
 7080TIP3   OH221124   0.014   9.052   5.483
 7080TIP3    H121125  -0.038   9.120   5.440
 7080TIP3    H221126   0.072   9.019   5.414
 7081TIP3   OH221127   3.449   0.115   6.525
 7081TIP3    H121128   3.429   0.057   6.598
 7081TIP3    H221129   3.544   0.129   6.530
 7082TIP3   OH221130   0.179   9.052   5.703
 7082TIP3    H121131   0.116   9.077   5.636
 7082TIP3    H221132   0.212   8.967   5.674
 7083TIP3   OH221133   9.276   9.134   6.431
 7083TIP3    H121134   9.305   9.204   6.489
 7083TIP3    H221135   9.257   9.061   6.490
 7084TIP3   OH221136   3.467   0.065   6.120
 7084TIP3    H121137   3.494  -0.004   6.060
 7084TIP3    H221138   3.419   0.020   6.189
 7085TIP3   OH221139   9.093   8.830   5.795
 7085TIP3    H121140   9.004   8.862   5.784
 7085TIP3    H221141   9.091   8.740   5.762
 7086TIP3   OH221142   9.372   8.848   5.520
 7086TIP3    H121143   9.461   8.822   5.494
 7086TIP3    H221144   9.326   8.863   5.437
 7087TIP3   OH221145   9.236   8.902   5.289
 7087TIP3    H121146   9.187   8.845   5.230
 7087TIP3    H221147   9.298   8.949   5.232
 7088TIP3   OH221148   3.800   1.310   6.214
 7088TIP3    H121149   3.795   1.328   6.120
 7088TIP3    H221150   3.878   1.356   6.243
 7089TIP3   OH221151   2.744   0.435   6.627
 7089TIP3    H121152   2.825   0.448   6.676
 7089TIP3    H221153   2.675   0.435   6.694
 7090TIP3   OH221154   9.743   9.141   5.882
 7090TIP3    H121155   9.809   9.086   5.840
 7090TIP3    H221156   9.741   9.112   5.973
 7091TIP3   OH221157   9.731   9.069   6.146
 7091TIP3    H121158   9.643   9.072   6.183
 7091TIP3    H221159   9.788   9.092   6.219
 7092TIP3   OH221160   2.925   0.154   5.290
 7092TIP3    H121161   2.850   0.100   5.263
 7092TIP3    H221162   2.895   0.200   5.368
 7093TIP3   OH221163   3.784   0.415   5.874
 7093TIP3    H121164   3.816   0.467   5.799
 7093TIP3    H221165   3.707   0.370   5.840
 7094TIP3   OH221166   3.325   0.490   6.290
 7094TIP3    H121167   3.366   0.480   6.376
 7094TIP3    H221168   3.282   0.576   6.294
 7095TIP3   OH221169   0.184   8.978   5.286
 7095TIP3    H121170   0.280   8.979   5.293
 7095TIP3    H221171   0.165   9.039   5.214
 7096TIP3   OH221172   2.605   0.161   5.920
 7096TIP3    H121173   2.644   0.147   5.834
 7096TIP3    H221174   2.670   0.127   5.982
 7097TIP3   OH221175   3.061   0.311   5.114
 7097TIP3    H121176   3.014   0.394   5.114
 7097TIP3    H221177   3.011   0.255   5.174
 7098TIP3   OH221178   2.512   0.116   6.555
 7098TIP3    H121179   2.517   0.108   6.651
 7098TIP3    H221180   2.436   0.063   6.531
 7099TIP3   OH221181   3.217   0.255   6.582
 7099TIP3    H121182   3.149   0.195   6.553
 7099TIP3    H221183   3.298   0.220   6.545
 7100TIP3   OH221184   3.462   0.777   6.176
 7100TIP3    H121185   3.367   0.764   6.178
 7100TIP3    H221186   3.483   0.812   6.263
 7101TIP3   OH221187   0.578   9.039   5.087
 7101TIP3    H121188   0.626   8.964   5.050
 7101TIP3    H221189   0.566   9.098   5.013
 7102TIP3   OH221190   4.103   0.647   6.154
 7102TIP3    H121191   4.009   0.651   6.135
 7102TIP3    H221192   4.143   0.625   6.070
 7103TIP3   OH221193   3.590   0.631   5.003
 7103TIP3    H121194   3.559   0.563   5.064
 7103TIP3    H221195   3.606   0.585   4.921
 7104TIP3   OH221196   3.564   0.272   5.775
 7104TIP3    H121197   3.475   0.250   5.803
 7104TIP3    H221198   3.596   0.193   5.733
 7105TIP3   OH221199   2.714   0.530   5.565
 7105TIP3    H121200   2.724   0.583   5.644
 7105TIP3    H221201   2.691   0.593   5.497
 7106TIP3   OH221202   8.871   9.052   5.332
 7106TIP3    H121203   8.922   9.125   5.367
 7106TIP3    H221204   8.782   9.068   5.364
 7107TIP3   OH221205   2.795   0.277   5.493
 7107TIP3    H121206   2.773   0.366   5.522
 7107TIP3    H221207   2.780   0.222   5.570
 7108TIP3   OH221208   3.038   0.783   5.986
 7108TIP3    H121209   3.065   0.865   5.946
 7108TIP3    H221210   3.104   0.766   6.053
 7109TIP3   OH221211   2.615   0.744   5.409
 7109TIP3    H121212   2.540   0.745   5.469
 7109TIP3    H221213   2.655   0.830   5.420
 7110TIP3   OH221214   3.377   0.487   6.019
 7110TIP3    H121215   3.365   0.484   6.114
 7110TIP3    H221216   3.452   0.430   6.002
 7111TIP3   OH221217   3.351   0.368   4.880
 7111TIP3    H121218   3.401   0.336   4.955
 7111TIP3    H221219   3.266   0.325   4.888
 7112TIP3   OH221220   3.616   0.983   6.056
 7112TIP3    H121221   3.546   0.921   6.077
 7112TIP3    H221222   3.580   1.036   5.985
 7113TIP3   OH221223   3.664   0.833   4.692
 7113TIP3    H121224   3.683   0.894   4.621
 7113TIP3    H221225   3.593   0.875   4.741
 7114TIP3   OH221226   3.526   0.270   5.065
 7114TIP3    H121227   3.512   0.221   5.146
 7114TIP3    H221228   3.621   0.282   5.060
 7115TIP3   OH221229   2.441   0.707   6.202
 7115TIP3    H121230   2.490   0.651   6.262
 7115TIP3    H221231   2.444   0.793   6.242
 7116TIP3   OH221232   2.721   0.352   4.919
 7116TIP3    H121233   2.734   0.264   4.883
 7116TIP3    H221234   2.715   0.339   5.013
 7117TIP3   OH221235   2.674   0.350   5.198
 7117TIP3    H121236   2.730   0.335   5.274
 7117TIP3    H221237   2.668   0.446   5.192
 7118TIP3   OH221238   2.413   0.057   5.432
 7118TIP3    H121239   2.350   0.102   5.488
 7118TIP3    H221240   2.432   0.121   5.362
 7119TIP3   OH221241   2.922   0.543   5.110
 7119TIP3    H121242   2.834   0.565   5.142
 7119TIP3    H221243   2.946   0.617   5.055
 7120TIP3   OH221244   9.649   8.836   5.535
 7120TIP3    H121245   9.711   8.904   5.508
 7120TIP3    H221246   9.619   8.865   5.621
 7121TIP3   OH221247   0.116   9.157   6.340
 7121TIP3    H121248   0.100   9.231   6.398
 7121TIP3    H221249   0.202   9.124   6.366
 7122TIP3   OH221250   2.664   0.622   5.173
 7122TIP3    H121251   2.647   0.689   5.107
 7122TIP3    H221252   2.644   0.665   5.256
 7123TIP3   OH221253   0.378   9.258   5.684
 7123TIP3    H121254   0.306   9.196   5.695
 7123TIP3    H221255   0.447   9.225   5.742
 7124TIP3   OH221256   2.431   0.224   5.197
 7124TIP3    H121257   2.504   0.284   5.209
 7124TIP3    H221258   2.463   0.159   5.134
 7125TIP3   OH221259   8.817   8.715   5.403
 7125TIP3    H121260   8.795   8.729   5.311
 7125TIP3    H221261   8.767   8.782   5.450
 7126TIP3   OH221262   3.642   0.978   5.623
 7126TIP3    H121263   3.599   1.032   5.557
 7126TIP3    H221264   3.735   0.995   5.611
 7127TIP3   OH221265   2.253   0.483   5.590
 7127TIP3    H121266   2.212   0.533   5.661
 7127TIP3    H221267   2.227   0.529   5.510
 7128TIP3   OH221268   2.428   1.018   6.637
 7128TIP3    H121269   2.513   1.017   6.680
 7128TIP3    H221270   2.404   0.926   6.629
 7129TIP3   OH221271   2.890   0.922   6.647
 7129TIP3    H121272   2.980   0.892   6.663
 7129TIP3    H221273   2.862   0.872   6.570
 7130TIP3   OH221274   2.867   0.542   4.786
 7130TIP3    H121275   2.823   0.475   4.839
 7130TIP3    H221276   2.939   0.495   4.744
 7131TIP3   OH221277   3.514   0.873   6.428
 7131TIP3    H121278   3.530   0.804   6.492
 7131TIP3    H221279   3.587   0.934   6.438
 7132TIP3   OH221280   3.303   0.577   4.712
 7132TIP3    H121281   3.334   0.512   4.774
 7132TIP3    H221282   3.362   0.569   4.637
 7133TIP3   OH221283   2.543   0.428   6.819
 7133TIP3    H121284   2.557   0.334   6.833
 7133TIP3    H221285   2.460   0.433   6.772
 7134TIP3   OH221286   2.570   0.065   5.026
 7134TIP3    H121287   2.625   0.043   5.101
 7134TIP3    H221288   2.631   0.085   4.956
 7135TIP3   OH221289   3.148   0.523   6.585
 7135TIP3    H121290   3.104   0.537   6.501
 7135TIP3    H221291   3.183   0.434   6.579
 7136TIP3   OH221292   3.097   0.255   4.849
 7136TIP3    H121293   3.075   0.267   4.942
 7136TIP3    H221294   3.084   0.161   4.833
 7137TIP3   OH221295   3.632   0.552   6.212
 7137TIP3    H121296   3.709   0.580   6.162
 7137TIP3    H221297   3.566   0.620   6.194
 7138TIP3   OH221298   2.642   0.163   6.817
 7138TIP3    H121299   2.720   0.126   6.776
 7138TIP3    H221300   2.666   0.172   6.909
 7139TIP3   OH221301   9.249   9.224   5.240
 7139TIP3    H121302   9.230   9.197   5.330
 7139TIP3    H221303   9.295   9.149   5.202
 7140TIP3   OH221304   3.030   0.082   6.474
 7140TIP3    H121305   2.944   0.123   6.469
 7140TIP3    H221306   3.070   0.100   6.389
 7141TIP3   OH221307   9.386   9.033   5.100
 7141TIP3    H121308   9.356   9.036   5.009
 7141TIP3    H221309   9.481   9.043   5.095
 7142TIP3   OH221310   3.515   0.431   6.570
 7142TIP3    H121311   3.577   0.386   6.513
 7142TIP3    H221312   3.509   0.374   6.647
 7143TIP3   OH221313   3.634   0.075   4.731
 7143TIP3    H121314   3.613   0.037   4.646
 7143TIP3    H221315   3.610   0.167   4.724
 7144TIP3   OH221316   9.535   9.085   6.608
 7144TIP3    H121317   9.584   9.021   6.556
 7144TIP3    H221318   9.551   9.169   6.565
 7145TIP3   OH221319   3.171   0.162   6.254
 7145TIP3    H121320   3.252   0.197   6.218
 7145TIP3    H221321   3.102   0.208   6.205
 7146TIP3   OH221322   3.714   0.130   6.611
 7146TIP3    H121323   3.749   0.045   6.584
 7146TIP3    H221324   3.791   0.185   6.622
 7147TIP3   OH221325   3.744   0.375   6.383
 7147TIP3    H121326   3.689   0.438   6.335
 7147TIP3    H221327   3.832   0.388   6.348
 7148TIP3   OH221328   9.490   9.218   6.847
 7148TIP3    H121329   9.419   9.182   6.899
 7148TIP3    H221330   9.499   9.158   6.773
 7149TIP3   OH221331   0.144   9.194   6.740
 7149TIP3    H121332   0.094   9.232   6.812
 7149TIP3    H221333   0.158   9.103   6.765
 7150TIP3   OH221334   2.663   0.828   4.991
 7150TIP3    H121335   2.754   0.813   4.968
 7150TIP3    H221336   2.626   0.875   4.916
 7151TIP3   OH221337   2.171   0.238   5.279
 7151TIP3    H121338   2.265   0.245   5.258
 7151TIP3    H221339   2.143   0.158   5.235
 7152TIP3   OH221340   2.049   0.810   5.655
 7152TIP3    H121341   1.981   0.758   5.612
 7152TIP3    H221342   2.092   0.748   5.714
 7153TIP3   OH221343   2.191   0.637   5.818
 7153TIP3    H121344   2.179   0.576   5.891
 7153TIP3    H221345   2.263   0.694   5.846
 7154TIP3   OH221346   3.911   1.038   5.621
 7154TIP3    H121347   3.931   1.065   5.711
 7154TIP3    H221348   3.961   1.099   5.566
 7155TIP3   OH221349   3.931   1.066   5.902
 7155TIP3    H121350   3.883   0.983   5.896
 7155TIP3    H221351   4.001   1.048   5.965
 7156TIP3   OH221352   3.988   0.781   6.461
 7156TIP3    H121353   3.915   0.787   6.522
 7156TIP3    H221354   4.037   0.862   6.473
 7157TIP3   OH221355   3.805   0.280   5.065
 7157TIP3    H121356   3.857   0.354   5.036
 7157TIP3    H221357   3.841   0.257   5.151
 7158TIP3   OH221358   3.912   0.183   5.298
 7158TIP3    H121359   3.850   0.137   5.355
 7158TIP3    H221360   3.976   0.222   5.358
 7159TIP3   OH221361   3.972   0.555   5.714
 7159TIP3    H121362   4.009   0.487   5.659
 7159TIP3    H221363   3.972   0.634   5.660
 7160TIP3   OH221364   3.788   0.829   5.902
 7160TIP3    H121365   3.720   0.874   5.953
 7160TIP3    H221366   3.741   0.788   5.830
 7161TIP3   OH221367   3.812   0.037   4.935
 7161TIP3    H121368   3.750   0.050   4.863
 7161TIP3    H221369   3.803   0.116   4.988
 7162TIP3   OH221370   0.474   8.997   4.798
 7162TIP3    H121371   0.417   9.051   4.855
 7162TIP3    H221372   0.416   8.928   4.766
 7163TIP3   OH221373   0.465   9.252   5.422
 7163TIP3    H121374   0.464   9.158   5.403
 7163TIP3    H221375   0.437   9.257   5.514
 7164TIP3   OH221376   2.352   0.097   6.174
 7164TIP3    H121377   2.344   0.046   6.094
 7164TIP3    H221378   2.444   0.089   6.199
 7165TIP3   OH221379   3.997   0.417   6.286
 7165TIP3    H121380   4.074   0.359   6.292
 7165TIP3    H221381   4.025   0.486   6.226
 7166TIP3   OH221382   4.190   0.232   6.361
 7166TIP3    H121383   4.113   0.182   6.388
 7166TIP3    H221384   4.240   0.245   6.442
 7167TIP3   OH221385   0.464   8.984   5.329
 7167TIP3    H121386   0.510   8.907   5.361
 7167TIP3    H221387   0.503   9.002   5.243
 7168TIP3   OH221388   0.590   9.173   5.835
 7168TIP3    H121389   0.662   9.200   5.777
 7168TIP3    H221390   0.622   9.193   5.923
 7169TIP3   OH221391   3.940   0.057   6.077
 7169TIP3    H121392   3.860   0.084   6.122
 7169TIP3    H221393   3.967   0.134   6.027
 7170TIP3   OH221394   8.831   9.023   6.195
 7170TIP3    H121395   8.904   9.000   6.137
 7170TIP3    H221396   8.870   9.027   6.282
 7171TIP3   OH221397   3.476   0.951   5.262
 7171TIP3    H121398   3.531   0.940   5.185
 7171TIP3    H221399   3.516   1.024   5.310
 7172TIP3   OH221400   2.577   0.742   6.676
 7172TIP3    H121401   2.484   0.727   6.658
 7172TIP3    H221402   2.587   0.719   6.769
 7173TIP3   OH221403   2.791   0.789   6.142
 7173TIP3    H121404   2.741   0.870   6.128
 7173TIP3    H221405   2.806   0.786   6.236
 7174TIP3   OH221406   3.174   1.018   6.330
 7174TIP3    H121407   3.212   1.011   6.418
 7174TIP3    H221408   3.236   1.072   6.281
 7175TIP3   OH221409   3.364   1.174   6.205
 7175TIP3    H121410   3.425   1.124   6.151
 7175TIP3    H221411   3.421   1.231   6.258
 7176TIP3   OH221412   2.436   1.026   6.241
 7176TIP3    H121413   2.345   1.042   6.216
 7176TIP3    H221414   2.456   1.094   6.305
 7177TIP3   OH221415   2.667   1.024   6.090
 7177TIP3    H121416   2.583   1.026   6.136
 7177TIP3    H221417   2.646   1.048   6.000
 7178TIP3   OH221418   3.080   1.032   5.872
 7178TIP3    H121419   3.007   1.043   5.811
 7178TIP3    H221420   3.090   1.118   5.913
 7179TIP3   OH221421   3.344   0.970   5.932
 7179TIP3    H121422   3.254   0.992   5.907
 7179TIP3    H221423   3.398   1.032   5.884
 7180TIP3   OH221424   3.546   1.133   5.829
 7180TIP3    H121425   3.549   1.222   5.793
 7180TIP3    H221426   3.576   1.077   5.758
 7181TIP3   OH221427   2.404   0.788   5.934
 7181TIP3    H121428   2.414   0.760   6.025
 7181TIP3    H221429   2.491   0.775   5.895
 7182TIP3   OH221430   2.176   0.620   5.364
 7182TIP3    H121431   2.088   0.593   5.339
 7182TIP3    H221432   2.182   0.712   5.335
 7183TIP3   OH221433   2.923   0.763   4.933
 7183TIP3    H121434   3.007   0.792   4.896
 7183TIP3    H221435   2.894   0.693   4.876
 7184TIP3   OH221436   3.624   0.900   5.033
 7184TIP3    H121437   3.617   0.805   5.027
 7184TIP3    H221438   3.579   0.932   4.955
 7185TIP3   OH221439   2.274   0.609   5.019
 7185TIP3    H121440   2.288   0.616   5.113
 7185TIP3    H221441   2.351   0.562   4.987
 7186TIP3   OH221442   3.836   1.035   6.221
 7186TIP3    H121443   3.762   1.007   6.168
 7186TIP3    H221444   3.827   1.130   6.227
 7187TIP3   OH221445   5.106   0.444   4.993
 7187TIP3    H121446   5.090   0.532   4.961
 7187TIP3    H221447   5.041   0.390   4.949
 7188TIP3   OH221448   5.087   0.438   5.357
 7188TIP3    H121449   5.134   0.434   5.440
 7188TIP3    H221450   5.061   0.347   5.340
 7189TIP3   OH221451   4.400   0.368   5.745
 7189TIP3    H121452   4.442   0.283   5.753
 7189TIP3    H221453   4.448   0.413   5.675
 7190TIP3   OH221454   5.378   0.727   5.069
 7190TIP3    H121455   5.365   0.664   5.140
 7190TIP3    H221456   5.401   0.809   5.113
 7191TIP3   OH221457   4.402   0.711   5.423
 7191TIP3    H121458   4.383   0.617   5.421
 7191TIP3    H221459   4.496   0.716   5.408
 7192TIP3   OH221460   0.769   9.207   5.184
 7192TIP3    H121461   0.735   9.287   5.223
 7192TIP3    H221462   0.691   9.160   5.155
 7193TIP3   OH221463   4.153   0.262   5.423
 7193TIP3    H121464   4.190   0.174   5.423
 7193TIP3    H221465   4.226   0.319   5.396
 7194TIP3   OH221466   5.052   1.144   5.082
 7194TIP3    H121467   5.072   1.083   5.011
 7194TIP3    H221468   5.068   1.093   5.162
 7195TIP3   OH221469   4.913   0.656   5.389
 7195TIP3    H121470   4.954   0.575   5.357
 7195TIP3    H221471   4.987   0.710   5.416
 7196TIP3   OH221472   5.364   0.191   5.458
 7196TIP3    H121473   5.452   0.189   5.495
 7196TIP3    H221474   5.348   0.101   5.428
 7197TIP3   OH221475   0.968   9.243   5.467
 7197TIP3    H121476   1.054   9.233   5.507
 7197TIP3    H221477   0.974   9.194   5.385
 7198TIP3   OH221478   4.709   0.270   5.342
 7198TIP3    H121479   4.799   0.236   5.345
 7198TIP3    H221480   4.655   0.194   5.321
 7199TIP3   OH221481   5.934   0.113   5.504
 7199TIP3    H121482   5.900   0.194   5.543
 7199TIP3    H221483   5.964   0.062   5.579
 7200TIP3   OH221484   5.019   0.651   4.832
 7200TIP3    H121485   4.981   0.618   4.751
 7200TIP3    H221486   4.964   0.726   4.856
 7201TIP3   OH221487   4.778   0.594   5.622
 7201TIP3    H121488   4.714   0.662   5.644
 7201TIP3    H221489   4.817   0.624   5.540
 7202TIP3   OH221490   1.227   9.225   5.544
 7202TIP3    H121491   1.253   9.285   5.614
 7202TIP3    H221492   1.306   9.212   5.492
 7203TIP3   OH221493   4.592   0.776   5.708
 7203TIP3    H121494   4.582   0.866   5.676
 7203TIP3    H221495   4.512   0.759   5.757
 7204TIP3   OH221496   3.968   0.482   4.961
 7204TIP3    H121497   3.936   0.504   4.873
 7204TIP3    H221498   3.993   0.567   4.999
 7205TIP3   OH221499   5.412   0.977   5.202
 7205TIP3    H121500   5.322   0.972   5.234
 7205TIP3    H221501   5.416   1.060   5.155
 7206TIP3   OH221502   5.126   1.004   4.853
 7206TIP3    H121503   5.181   0.925   4.844
 7206TIP3    H221504   5.182   1.076   4.825
 7207TIP3   OH221505   5.269   0.775   4.820
 7207TIP3    H121506   5.195   0.715   4.818
 7207TIP3    H221507   5.318   0.751   4.898
 7208TIP3   OH221508   5.658   0.874   5.548
 7208TIP3    H121509   5.636   0.805   5.485
 7208TIP3    H221510   5.645   0.956   5.499
 7209TIP3   OH221511   4.939   0.295   4.823
 7209TIP3    H121512   4.849   0.323   4.805
 7209TIP3    H221513   4.985   0.307   4.740
 7210TIP3   OH221514   4.894   0.104   4.537
 7210TIP3    H121515   4.962   0.162   4.571
 7210TIP3    H221516   4.912   0.020   4.578
 7211TIP3   OH221517   5.825   0.567   5.412
 7211TIP3    H121518   5.733   0.594   5.409
 7211TIP3    H221519   5.856   0.578   5.322
 7212TIP3   OH221520   5.307   0.382   4.784
 7212TIP3    H121521   5.260   0.393   4.866
 7212TIP3    H221522   5.388   0.337   4.808
 7213TIP3   OH221523   5.532   0.478   5.621
 7213TIP3    H121524   5.561   0.548   5.681
 7213TIP3    H221525   5.437   0.490   5.615
 7214TIP3   OH221526   4.513   0.376   5.162
 7214TIP3    H121527   4.477   0.306   5.108
 7214TIP3    H221528   4.586   0.336   5.209
 7215TIP3   OH221529   4.660   0.756   5.324
 7215TIP3    H121530   4.640   0.746   5.231
 7215TIP3    H221531   4.748   0.721   5.333
 7216TIP3   OH221532   4.610   0.388   5.563
 7216TIP3    H121533   4.651   0.346   5.487
 7216TIP3    H221534   4.674   0.454   5.590
 7217TIP3   OH221535   5.163   0.975   5.317
 7217TIP3    H121536   5.158   1.053   5.372
 7217TIP3    H221537   5.156   0.902   5.378
 7218TIP3   OH221538   4.796   0.874   5.871
 7218TIP3    H121539   4.735   0.931   5.916
 7218TIP3    H221540   4.741   0.821   5.813
 7219TIP3   OH221541   5.117   0.272   4.615
 7219TIP3    H121542   5.183   0.312   4.671
 7219TIP3    H221543   5.147   0.291   4.526
 7220TIP3   OH221544   4.510   0.423   5.992
 7220TIP3    H121545   4.510   0.512   6.027
 7220TIP3    H221546   4.477   0.431   5.903
 7221TIP3   OH221547   4.876   0.887   4.862
 7221TIP3    H121548   4.959   0.935   4.868
 7221TIP3    H221549   4.818   0.945   4.812
 7222TIP3   OH221550   4.583   1.025   5.959
 7222TIP3    H121551   4.563   1.041   5.867
 7222TIP3    H221552   4.497   1.015   6.001
 7223TIP3   OH221553   4.392   0.202   4.974
 7223TIP3    H121554   4.318   0.252   4.941
 7223TIP3    H221555   4.354   0.117   4.997
 7224TIP3   OH221556   5.464   0.820   4.223
 7224TIP3    H121557   5.457   0.913   4.201
 7224TIP3    H221558   5.554   0.797   4.201
 7225TIP3   OH221559   4.178   0.567   5.900
 7225TIP3    H121560   4.100   0.574   5.846
 7225TIP3    H221561   4.218   0.484   5.874
 7226TIP3   OH221562   4.023   0.788   5.570
 7226TIP3    H121563   4.113   0.814   5.587
 7226TIP3    H221564   3.971   0.865   5.592
 7227TIP3   OH221565   5.879   1.234   5.611
 7227TIP3    H121566   5.888   1.140   5.624
 7227TIP3    H221567   5.800   1.258   5.660
 7228TIP3   OH221568   4.993   1.012   5.737
 7228TIP3    H121569   4.984   1.102   5.767
 7228TIP3    H221570   4.925   0.965   5.785
 7229TIP3   OH221571   4.768   1.104   4.694
 7229TIP3    H121572   4.726   1.087   4.609
 7229TIP3    H221573   4.731   1.188   4.721
 7230TIP3   OH221574   4.203   0.965   5.071
 7230TIP3    H121575   4.249   0.956   5.154
 7230TIP3    H221576   4.154   0.883   5.062
 7231TIP3   OH221577   4.971   1.046   4.318
 7231TIP3    H121578   5.020   0.972   4.281
 7231TIP3    H221579   5.007   1.056   4.406
 7232TIP3   OH221580   5.022   1.080   4.589
 7232TIP3    H121581   4.937   1.084   4.632
 7232TIP3    H221582   5.081   1.043   4.655
 7233TIP3   OH221583   4.371   0.765   5.872
 7233TIP3    H121584   4.418   0.756   5.954
 7233TIP3    H221585   4.298   0.704   5.879
 7234TIP3   OH221586   5.438   0.303   5.826
 7234TIP3    H121587   5.495   0.248   5.881
 7234TIP3    H221588   5.495   0.334   5.756
 7235TIP3   OH221589   5.220   0.302   4.367
 7235TIP3    H121590   5.168   0.306   4.287
 7235TIP3    H221591   5.292   0.363   4.352
 7236TIP3   OH221592   4.580   0.160   5.747
 7236TIP3    H121593   4.642   0.096   5.781
 7236TIP3    H221594   4.635   0.225   5.703
 7237TIP3   OH221595   4.520   0.091   5.265
 7237TIP3    H121596   4.461   0.016   5.271
 7237TIP3    H221597   4.578   0.070   5.192
 7238TIP3   OH221598   5.156   0.153   4.912
 7238TIP3    H121599   5.075   0.192   4.880
 7238TIP3    H221600   5.148   0.060   4.894
 7239TIP3   OH221601   5.257   0.438   5.979
 7239TIP3    H121602   5.289   0.405   6.063
 7239TIP3    H221603   5.327   0.417   5.917
 7240TIP3   OH221604   5.181   0.236   5.167
 7240TIP3    H121605   5.154   0.327   5.149
 7240TIP3    H221606   5.199   0.199   5.081
 7241TIP3   OH221607   5.252   0.409   5.573
 7241TIP3    H121608   5.297   0.335   5.531
 7241TIP3    H221609   5.207   0.370   5.648
 7242TIP3   OH221610   1.084   9.108   5.248
 7242TIP3    H121611   1.062   9.143   5.162
 7242TIP3    H221612   1.023   9.035   5.261
 7243TIP3   OH221613   1.334   9.051   4.967
 7243TIP3    H121614   1.429   9.056   4.968
 7243TIP3    H221615   1.307   9.117   4.902
 7244TIP3   OH221616   1.141   9.184   4.774
 7244TIP3    H121617   1.091   9.169   4.854
 7244TIP3    H221618   1.093   9.252   4.728
 7245TIP3   OH221619   5.596   1.570   5.702
 7245TIP3    H121620   5.595   1.584   5.608
 7245TIP3    H221621   5.675   1.614   5.732
 7246TIP3   OH221622   4.506   0.674   6.106
 7246TIP3    H121623   4.591   0.695   6.144
 7246TIP3    H221624   4.443   0.689   6.177
 7247TIP3   OH221625   4.955   0.151   5.381
 7247TIP3    H121626   4.962   0.072   5.328
 7247TIP3    H221627   4.963   0.121   5.471
 7248TIP3   OH221628   4.958   0.050   5.639
 7248TIP3    H121629   4.881  -0.005   5.651
 7248TIP3    H221630   5.014   0.031   5.715
 7249TIP3   OH221631   4.695   0.402   4.746
 7249TIP3    H121632   4.617   0.354   4.720
 7249TIP3    H221633   4.669   0.450   4.825
 7250TIP3   OH221634   5.585   0.695   5.362
 7250TIP3    H121635   5.623   0.740   5.287
 7250TIP3    H221636   5.506   0.653   5.328
 7251TIP3   OH221637   5.126   0.747   5.782
 7251TIP3    H121638   5.185   0.745   5.857
 7251TIP3    H221639   5.093   0.837   5.779
 7252TIP3   OH221640   5.166   0.006   4.655
 7252TIP3    H121641   5.245  -0.009   4.707
 7252TIP3    H221642   5.159   0.101   4.649
 7253TIP3   OH221643   4.384   0.426   5.402
 7253TIP3    H121644   4.416   0.416   5.312
 7253TIP3    H221645   4.460   0.404   5.457
 7254TIP3   OH221646   4.863   0.574   4.616
 7254TIP3    H121647   4.813   0.655   4.614
 7254TIP3    H221648   4.804   0.511   4.658
 7255TIP3   OH221649   4.244   0.279   6.091
 7255TIP3    H121650   4.212   0.258   6.179
 7255TIP3    H221651   4.166   0.279   6.037
 7256TIP3   OH221652   5.016   0.528   6.083
 7256TIP3    H121653   4.948   0.471   6.046
 7256TIP3    H221654   5.097   0.500   6.039
 7257TIP3   OH221655   5.257   1.032   5.648
 7257TIP3    H121656   5.162   1.023   5.656
 7257TIP3    H221657   5.283   1.076   5.730
 7258TIP3   OH221658   5.783   0.098   4.557
 7258TIP3    H121659   5.778   0.009   4.523
 7258TIP3    H221660   5.692   0.127   4.562
 7259TIP3   OH221661   5.902   0.961   5.635
 7259TIP3    H121662   5.810   0.938   5.634
 7259TIP3    H221663   5.936   0.929   5.551
 7260TIP3   OH221664   5.382   0.887   4.487
 7260TIP3    H121665   5.360   0.815   4.547
 7260TIP3    H221666   5.405   0.844   4.405
 7261TIP3   OH221667   5.358   0.549   5.291
 7261TIP3    H121668   5.270   0.511   5.295
 7261TIP3    H221669   5.417   0.477   5.314
 7262TIP3   OH221670   4.528   0.773   5.077
 7262TIP3    H121671   4.522   0.850   5.020
 7262TIP3    H221672   4.437   0.752   5.099
 7263TIP3   OH221673   4.047   0.072   4.799
 7263TIP3    H121674   4.097   0.151   4.821
 7263TIP3    H221675   3.970   0.074   4.855
 7264TIP3   OH221676   4.598   0.538   4.956
 7264TIP3    H121677   4.597   0.626   4.992
 7264TIP3    H221678   4.571   0.482   5.029
 7265TIP3   OH221679   4.806   1.081   5.531
 7265TIP3    H121680   4.840   1.155   5.480
 7265TIP3    H221681   4.882   1.049   5.580
 7266TIP3   OH221682   4.436   0.988   4.925
 7266TIP3    H121683   4.349   0.993   4.965
 7266TIP3    H221684   4.471   1.076   4.931
 7267TIP3   OH221685   5.157   0.750   5.493
 7267TIP3    H121686   5.157   0.743   5.588
 7267TIP3    H221687   5.229   0.694   5.464
 7268TIP3   OH221688   5.144   0.626   4.368
 7268TIP3    H121689   5.194   0.599   4.444
 7268TIP3    H221690   5.055   0.593   4.384
 7269TIP3   OH221691   5.409   1.246   5.541
 7269TIP3    H121692   5.339   1.183   5.555
 7269TIP3    H221693   5.378   1.301   5.469
 7270TIP3   OH221694   5.460   1.090   4.176
 7270TIP3    H121695   5.481   1.150   4.105
 7270TIP3    H221696   5.390   1.134   4.225
 7271TIP3   OH221697   5.321   0.542   4.557
 7271TIP3    H121698   5.311   0.498   4.642
 7271TIP3    H221699   5.415   0.554   4.547
 7272TIP3   OH221700   4.230   0.981   5.689
 7272TIP3    H121701   4.284   0.924   5.744
 7272TIP3    H221702   4.245   1.069   5.724
 7273TIP3   OH221703   4.492   0.616   4.403
 7273TIP3    H121704   4.505   0.527   4.371
 7273TIP3    H221705   4.485   0.607   4.498
 7274TIP3   OH221706   4.442   0.609   4.677
 7274TIP3    H121707   4.504   0.585   4.746
 7274TIP3    H221708   4.441   0.705   4.678
 7275TIP3   OH221709   4.165   0.314   4.865
 7275TIP3    H121710   4.102   0.365   4.916
 7275TIP3    H221711   4.186   0.371   4.790
 7276TIP3   OH221712   4.709   0.794   4.597
 7276TIP3    H121713   4.624   0.819   4.633
 7276TIP3    H221714   4.733   0.867   4.541
 7277TIP3   OH221715   1.607   9.035   5.009
 7277TIP3    H121716   1.634   9.119   5.047
 7277TIP3    H221717   1.657   8.969   5.057
 7278TIP3   OH221718   5.168   0.246   5.792
 7278TIP3    H121719   5.142   0.323   5.842
 7278TIP3    H221720   5.262   0.239   5.805
 7279TIP3   OH221721   4.459   0.881   4.675
 7279TIP3    H121722   4.442   0.952   4.614
 7279TIP3    H221723   4.450   0.921   4.762
 7280TIP3   OH221724   5.464   0.240   5.157
 7280TIP3    H121725   5.376   0.251   5.195
 7280TIP3    H221726   5.523   0.280   5.221
 7281TIP3   OH221727   4.194   0.488   4.649
 7281TIP3    H121728   4.269   0.546   4.663
 7281TIP3    H221729   4.224   0.426   4.582
 7282TIP3   OH221730   0.758   9.031   4.795
 7282TIP3    H121731   0.768   9.126   4.804
 7282TIP3    H221732   0.664   9.016   4.802
 7283TIP3   OH221733   5.442   1.240   5.114
 7283TIP3    H121734   5.401   1.293   5.045
 7283TIP3    H221735   5.536   1.252   5.101
 7284TIP3   OH221736   4.026   0.745   5.047
 7284TIP3    H121737   3.984   0.783   5.125
 7284TIP3    H221738   3.982   0.788   4.974
 7285TIP3   OH221739   4.237   1.281   6.116
 7285TIP3    H121740   4.316   1.293   6.169
 7285TIP3    H221741   4.236   1.188   6.094
 7286TIP3   OH221742   4.691   1.183   6.158
 7286TIP3    H121743   4.783   1.160   6.167
 7286TIP3    H221744   4.660   1.131   6.084
 7287TIP3   OH221745   4.659   0.795   4.277
 7287TIP3    H121746   4.609   0.731   4.328
 7287TIP3    H221747   4.733   0.745   4.241
 7288TIP3   OH221748   5.317   1.151   5.886
 7288TIP3    H121749   5.323   1.083   5.953
 7288TIP3    H221750   5.392   1.209   5.904
 7289TIP3   OH221751   5.096   0.835   4.197
 7289TIP3    H121752   5.128   0.770   4.259
 7289TIP3    H221753   5.155   0.828   4.122
 7290TIP3   OH221754   4.331   0.699   6.318
 7290TIP3    H121755   4.353   0.627   6.377
 7290TIP3    H221756   4.244   0.677   6.285
 7291TIP3   OH221757   4.309   0.297   4.492
 7291TIP3    H121758   4.360   0.270   4.569
 7291TIP3    H221759   4.375   0.319   4.427
 7292TIP3   OH221760   4.940   0.791   6.089
 7292TIP3    H121761   4.902   0.809   6.003
 7292TIP3    H221762   4.986   0.708   6.078
 7293TIP3   OH221763   4.872   0.542   4.345
 7293TIP3    H121764   4.859   0.553   4.439
 7293TIP3    H221765   4.868   0.448   4.331
 7294TIP3   OH221766   5.420   0.807   5.675
 7294TIP3    H121767   5.502   0.836   5.635
 7294TIP3    H221768   5.359   0.879   5.658
 7295TIP3   OH221769   4.482   0.333   6.275
 7295TIP3    H121770   4.575   0.353   6.283
 7295TIP3    H221771   4.442   0.374   6.352
 7296TIP3   OH221772   4.475   0.233   4.704
 7296TIP3    H121773   4.471   0.211   4.797
 7296TIP3    H221774   4.531   0.165   4.666
 7297TIP3   OH221775   4.790   0.382   6.003
 7297TIP3    H121776   4.697   0.403   5.993
 7297TIP3    H221777   4.819   0.358   5.915
 7298TIP3   OH221778   4.623   0.053   4.548
 7298TIP3    H121779   4.589   0.065   4.459
 7298TIP3    H221780   4.716   0.075   4.541
 7299TIP3   OH221781   5.296   0.722   6.036
 7299TIP3    H121782   5.366   0.684   5.984
 7299TIP3    H221783   5.296   0.671   6.117
 7300TIP3   OH221784   5.452   0.355   4.205
 7300TIP3    H121785   5.418   0.304   4.131
 7300TIP3    H221786   5.423   0.444   4.188
 7301TIP3   OH221787   4.786   0.079   5.964
 7301TIP3    H121788   4.869   0.038   5.939
 7301TIP3    H221789   4.789   0.165   5.923
 7302TIP3   OH221790   4.996   0.501   5.760
 7302TIP3    H121791   5.056   0.575   5.772
 7302TIP3    H221792   4.922   0.538   5.712
 7303TIP3   OH221793   5.517   0.663   5.882
 7303TIP3    H121794   5.472   0.714   5.815
 7303TIP3    H221795   5.606   0.652   5.847
 7304TIP3   OH221796   4.745   0.402   6.276
 7304TIP3    H121797   4.809   0.366   6.337
 7304TIP3    H221798   4.783   0.386   6.189
 7305TIP3   OH221799   5.146   0.222   6.141
 7305TIP3    H121800   5.203   0.195   6.212
 7305TIP3    H221801   5.191   0.194   6.062
 7306TIP3   OH221802   4.463   1.089   4.494
 7306TIP3    H121803   4.553   1.068   4.468
 7306TIP3    H221804   4.426   1.134   4.418
 7307TIP3   OH221805   3.922   0.482   4.671
 7307TIP3    H121806   4.017   0.494   4.665
 7307TIP3    H221807   3.906   0.395   4.632
 7308TIP3   OH221808   3.830   1.052   5.130
 7308TIP3    H121809   3.765   0.999   5.084
 7308TIP3    H221810   3.873   0.991   5.189
 7309TIP3   OH221811   3.973   0.883   5.297
 7309TIP3    H121812   3.963   0.816   5.364
 7309TIP3    H221813   4.026   0.951   5.338
 7310TIP3   OH221814   5.714   1.292   5.107
 7310TIP3    H121815   5.734   1.321   5.196
 7310TIP3    H221816   5.772   1.344   5.051
 7311TIP3   OH221817   5.730   1.325   5.388
 7311TIP3    H121818   5.684   1.241   5.382
 7311TIP3    H221819   5.798   1.310   5.453
 7312TIP3   OH221820   5.776   1.031   5.954
 7312TIP3    H121821   5.711   1.038   6.024
 7312TIP3    H221822   5.824   1.114   5.958
 7313TIP3   OH221823   5.595   0.559   4.542
 7313TIP3    H121824   5.655   0.629   4.514
 7313TIP3    H221825   5.626   0.535   4.629
 7314TIP3   OH221826   5.689   0.470   4.780
 7314TIP3    H121827   5.635   0.414   4.836
 7314TIP3    H221828   5.757   0.503   4.838
 7315TIP3   OH221829   5.765   0.822   5.198
 7315TIP3    H121830   5.814   0.748   5.159
 7315TIP3    H221831   5.777   0.893   5.136
 7316TIP3   OH221832   5.585   1.089   5.394
 7316TIP3    H121833   5.517   1.135   5.442
 7316TIP3    H221834   5.538   1.045   5.322
 7317TIP3   OH221835   5.617   0.319   4.416
 7317TIP3    H121836   5.564   0.330   4.337
 7317TIP3    H221837   5.609   0.402   4.463
 7318TIP3   OH221838   5.594   0.020   4.285
 7318TIP3    H121839   5.507   0.058   4.271
 7318TIP3    H221840   5.581  -0.043   4.356
 7319TIP3   OH221841   5.542   0.261   4.895
 7319TIP3    H121842   5.585   0.178   4.874
 7319TIP3    H221843   5.518   0.253   4.988
 7320TIP3   OH221844   4.138   0.315   5.686
 7320TIP3    H121845   4.132   0.305   5.591
 7320TIP3    H221846   4.230   0.336   5.703
 7321TIP3   OH221847   5.748   0.676   5.740
 7321TIP3    H121848   5.828   0.623   5.731
 7321TIP3    H221849   5.748   0.733   5.664
 7322TIP3   OH221850   5.987   0.545   5.773
 7322TIP3    H121851   5.972   0.465   5.824
 7322TIP3    H221852   6.076   0.571   5.796
 7323TIP3   OH221853   2.121   9.199   4.795
 7323TIP3    H121854   2.181   9.126   4.807
 7323TIP3    H221855   2.176   9.271   4.764
 7324TIP3   OH221856   5.732   0.144   5.324
 7324TIP3    H121857   5.782   0.200   5.266
 7324TIP3    H221858   5.793   0.119   5.393
 7325TIP3   OH221859   5.829   0.351   5.590
 7325TIP3    H121860   5.759   0.371   5.651
 7325TIP3    H221861   5.826   0.422   5.525
 7326TIP3   OH221862   4.068   0.040   5.687
 7326TIP3    H121863   4.112   0.016   5.606
 7326TIP3    H221864   4.080   0.135   5.694
 7327TIP3   OH221865   5.263   1.210   4.750
 7327TIP3    H121866   5.320   1.197   4.674
 7327TIP3    H221867   5.308   1.277   4.802
 7328TIP3   OH221868   4.349   1.006   6.114
 7328TIP3    H121869   4.259   0.975   6.114
 7328TIP3    H221870   4.378   0.998   6.205
 7329TIP3   OH221871   4.577   1.051   5.679
 7329TIP3    H121872   4.528   1.127   5.646
 7329TIP3    H221873   4.662   1.057   5.635
 7330TIP3   OH221874   4.974   1.278   5.818
 7330TIP3    H121875   5.013   1.272   5.906
 7330TIP3    H221876   5.036   1.331   5.768
 7331TIP3   OH221877   5.166   1.431   5.691
 7331TIP3    H121878   5.229   1.375   5.646
 7331TIP3    H221879   5.220   1.489   5.744
 7332TIP3   OH221880   4.237   1.274   5.731
 7332TIP3    H121881   4.146   1.292   5.706
 7332TIP3    H221882   4.259   1.344   5.793
 7333TIP3   OH221883   4.467   1.280   5.577
 7333TIP3    H121884   4.383   1.282   5.623
 7333TIP3    H221885   4.445   1.304   5.487
 7334TIP3   OH221886   4.878   1.294   5.371
 7334TIP3    H121887   4.808   1.306   5.307
 7334TIP3    H221888   4.889   1.381   5.411
 7335TIP3   OH221889   5.142   1.231   5.418
 7335TIP3    H121890   5.051   1.251   5.397
 7335TIP3    H221891   5.193   1.298   5.371
 7336TIP3   OH221892   5.343   1.400   5.316
 7336TIP3    H121893   5.345   1.488   5.278
 7336TIP3    H221894   5.375   1.343   5.246
 7337TIP3   OH221895   4.146   1.063   5.437
 7337TIP3    H121896   4.169   1.041   5.527
 7337TIP3    H221897   4.219   1.031   5.384
 7338TIP3   OH221898   4.352   0.950   5.302
 7338TIP3    H121899   4.363   0.866   5.348
 7338TIP3    H221900   4.439   0.991   5.305
 7339TIP3   OH221901   4.620   1.034   5.328
 7339TIP3    H121902   4.638   0.942   5.312
 7339TIP3    H221903   4.676   1.057   5.401
 7340TIP3   OH221904   3.908   0.862   4.828
 7340TIP3    H121905   3.824   0.830   4.796
 7340TIP3    H221906   3.913   0.952   4.795
 7341TIP3   OH221907   4.718   1.016   4.423
 7341TIP3    H121908   4.802   1.045   4.386
 7341TIP3    H221909   4.689   0.946   4.365
 7342TIP3   OH221910   5.415   1.156   4.523
 7342TIP3    H121911   5.409   1.061   4.516
 7342TIP3    H221912   5.374   1.188   4.443
 7343TIP3   OH221913   4.020   0.857   4.482
 7343TIP3    H121914   4.024   0.866   4.577
 7343TIP3    H221915   4.101   0.811   4.460
 7344TIP3   OH221916   5.628   1.295   5.710
 7344TIP3    H121917   5.555   1.267   5.656
 7344TIP3    H221918   5.618   1.390   5.717
 7345TIP3   OH221919   6.902   0.680   4.467
 7345TIP3    H121920   6.886   0.772   4.442
 7345TIP3    H221921   6.823   0.634   4.438
 7346TIP3   OH221922   6.877   0.701   4.837
 7346TIP3    H121923   6.906   0.666   4.921
 7346TIP3    H221924   6.879   0.626   4.777
 7347TIP3   OH221925   6.180   0.617   5.206
 7347TIP3    H121926   6.221   0.564   5.274
 7347TIP3    H221927   6.253   0.645   5.151
 7348TIP3   OH221928   7.170   0.986   4.558
 7348TIP3    H121929   7.155   0.925   4.630
 7348TIP3    H221930   7.199   1.067   4.600
 7349TIP3   OH221931   6.185   0.970   4.906
 7349TIP3    H121932   6.163   0.877   4.902
 7349TIP3    H221933   6.281   0.972   4.901
 7350TIP3   OH221934   5.844   0.239   4.789
 7350TIP3    H121935   5.804   0.324   4.775
 7350TIP3    H221936   5.821   0.188   4.712
 7351TIP3   OH221937   5.938   0.525   4.896
 7351TIP3    H121938   5.982   0.442   4.915
 7351TIP3    H221939   6.008   0.585   4.872
 7352TIP3   OH221940   6.849   1.408   4.569
 7352TIP3    H121941   6.868   1.348   4.498
 7352TIP3    H221942   6.868   1.359   4.649
 7353TIP3   OH221943   6.707   0.917   4.880
 7353TIP3    H121944   6.746   0.835   4.850
 7353TIP3    H221945   6.782   0.973   4.901
 7354TIP3   OH221946   7.218   0.435   4.884
 7354TIP3    H121947   7.282   0.413   4.952
 7354TIP3    H221948   7.137   0.393   4.912
 7355TIP3   OH221949   6.055   0.291   4.987
 7355TIP3    H121950   6.142   0.266   5.018
 7355TIP3    H221951   6.046   0.246   4.903
 7356TIP3   OH221952   6.507   0.555   4.810
 7356TIP3    H121953   6.593   0.523   4.835
 7356TIP3    H221954   6.453   0.476   4.805
 7357TIP3   OH221955   7.733   0.365   5.079
 7357TIP3    H121956   7.720   0.458   5.057
 7357TIP3    H221957   7.824   0.360   5.108
 7358TIP3   OH221958   6.812   0.899   4.315
 7358TIP3    H121959   6.776   0.871   4.231
 7358TIP3    H221960   6.759   0.975   4.340
 7359TIP3   OH221961   6.571   0.844   5.109
 7359TIP3    H121962   6.511   0.912   5.138
 7359TIP3    H221963   6.612   0.881   5.031
 7360TIP3   OH221964   6.310   0.210   5.022
 7360TIP3    H121965   6.356   0.280   5.069
 7360TIP3    H221966   6.380   0.161   4.978
 7361TIP3   OH221967   6.390   1.030   5.195
 7361TIP3    H121968   6.377   1.119   5.164
 7361TIP3    H221969   6.313   1.011   5.248
 7362TIP3   OH221970   5.773   0.746   4.442
 7362TIP3    H121971   5.743   0.768   4.354
 7362TIP3    H221972   5.797   0.830   4.481
 7363TIP3   OH221973   7.210   1.237   4.687
 7363TIP3    H121974   7.119   1.233   4.719
 7363TIP3    H221975   7.215   1.322   4.643
 7364TIP3   OH221976   6.921   1.263   4.342
 7364TIP3    H121977   6.975   1.185   4.334
 7364TIP3    H221978   6.977   1.335   4.313
 7365TIP3   OH221979   7.060   1.031   4.309
 7365TIP3    H121980   6.986   0.971   4.309
 7365TIP3    H221981   7.108   1.010   4.389
 7366TIP3   OH221982   7.462   1.129   5.048
 7366TIP3    H121983   7.431   1.062   4.987
 7366TIP3    H221984   7.449   1.212   5.001
 7367TIP3   OH221985   6.710   0.544   4.288
 7367TIP3    H121986   6.633   0.598   4.269
 7367TIP3    H221987   6.766   0.556   4.211
 7368TIP3   OH221988   6.689   0.371   4.008
 7368TIP3    H121989   6.768   0.409   4.048
 7368TIP3    H221990   6.718   0.287   3.974
 7369TIP3   OH221991   7.093   0.624   4.272
 7369TIP3    H121992   7.040   0.647   4.349
 7369TIP3    H221993   7.175   0.591   4.308
 7370TIP3   OH221994   7.223   0.745   5.109
 7370TIP3    H121995   7.217   0.840   5.119
 7370TIP3    H221996   7.282   0.732   5.035
 7371TIP3   OH221997   6.304   0.636   4.638
 7371TIP3    H121998   6.274   0.555   4.597
 7371TIP3    H221999   6.381   0.610   4.689
 7372TIP3   OH222000   6.451   1.012   4.814
 7372TIP3    H122001   6.434   1.001   4.721
 7372TIP3    H222002   6.540   0.979   4.827
 7373TIP3   OH222003   6.392   0.658   5.031
 7373TIP3    H122004   6.435   0.630   4.951
 7373TIP3    H222005   6.451   0.722   5.070
 7374TIP3   OH222006   6.956   1.243   4.794
 7374TIP3    H122007   6.955   1.317   4.854
 7374TIP3    H222008   6.950   1.165   4.850
 7375TIP3   OH222009   6.591   1.136   5.355
 7375TIP3    H122010   6.529   1.192   5.400
 7375TIP3    H222011   6.537   1.078   5.301
 7376TIP3   OH222012   6.907   0.534   4.093
 7376TIP3    H122013   6.970   0.573   4.153
 7376TIP3    H222014   6.933   0.564   4.007
 7377TIP3   OH222015   6.326   0.715   5.500
 7377TIP3    H122016   6.331   0.805   5.530
 7377TIP3    H222017   6.233   0.693   5.506
 7378TIP3   OH222018   6.675   1.139   4.344
 7378TIP3    H122019   6.755   1.190   4.354
 7378TIP3    H222020   6.615   1.198   4.296
 7379TIP3   OH222021   6.379   1.287   5.443
 7379TIP3    H122022   6.354   1.295   5.351
 7379TIP3    H222023   6.296   1.274   5.489
 7380TIP3   OH222024   6.187   0.436   4.447
 7380TIP3    H122025   6.121   0.500   4.419
 7380TIP3    H222026   6.138   0.370   4.496
 7381TIP3   OH222027   7.252   1.074   3.706
 7381TIP3    H122028   7.244   1.167   3.688
 7381TIP3    H222029   7.345   1.054   3.692
 7382TIP3   OH222030   5.972   0.858   5.392
 7382TIP3    H122031   5.901   0.840   5.331
 7382TIP3    H222032   6.007   0.772   5.414
 7383TIP3   OH222033   5.841   1.033   5.038
 7383TIP3    H122034   5.937   1.040   5.041
 7383TIP3    H222035   5.810   1.113   5.080
 7384TIP3   OH222036   7.679   1.496   5.096
 7384TIP3    H122037   7.688   1.402   5.107
 7384TIP3    H222038   7.598   1.518   5.144
 7385TIP3   OH222039   6.781   1.276   5.215
 7385TIP3    H122040   6.780   1.366   5.250
 7385TIP3    H222041   6.717   1.229   5.268
 7386TIP3   OH222042   6.564   1.362   4.179
 7386TIP3    H122043   6.524   1.341   4.095
 7386TIP3    H222044   6.525   1.445   4.205
 7387TIP3   OH222045   6.000   1.223   4.557
 7387TIP3    H122046   6.045   1.216   4.641
 7387TIP3    H222047   5.951   1.141   4.549
 7388TIP3   OH222048   6.768   1.301   3.805
 7388TIP3    H122049   6.818   1.228   3.769
 7388TIP3    H222050   6.803   1.313   3.893
 7389TIP3   OH222051   6.819   1.340   4.075
 7389TIP3    H122052   6.734   1.342   4.118
 7389TIP3    H222053   6.879   1.306   4.141
 7390TIP3   OH222054   7.509   0.590   5.273
 7390TIP3    H122055   7.563   0.625   5.202
 7390TIP3    H222056   7.509   0.659   5.339
 7391TIP3   OH222057   6.172   1.044   5.365
 7391TIP3    H122058   6.220   1.035   5.447
 7391TIP3    H222059   6.102   0.979   5.371
 7392TIP3   OH222060   7.242   0.558   5.320
 7392TIP3    H122061   7.337   0.544   5.319
 7392TIP3    H222062   7.227   0.623   5.251
 7393TIP3   OH222063   7.009   0.568   3.845
 7393TIP3    H122064   6.963   0.564   3.761
 7393TIP3    H222065   7.092   0.612   3.824
 7394TIP3   OH222066   6.439   0.412   5.148
 7394TIP3    H122067   6.399   0.419   5.235
 7394TIP3    H222068   6.419   0.496   5.106
 7395TIP3   OH222069   6.312   0.370   4.763
 7395TIP3    H122070   6.264   0.294   4.796
 7395TIP3    H222071   6.365   0.335   4.691
 7396TIP3   OH222072   6.880   0.373   4.413
 7396TIP3    H122073   6.816   0.434   4.376
 7396TIP3    H222074   6.932   0.344   4.338
 7397TIP3   OH222075   7.042   0.752   5.429
 7397TIP3    H122076   7.092   0.708   5.498
 7397TIP3    H222077   7.107   0.802   5.380
 7398TIP3   OH222078   6.970   0.496   4.673
 7398TIP3    H122079   6.962   0.555   4.598
 7398TIP3    H222080   7.040   0.436   4.649
 7399TIP3   OH222081   6.319   0.460   5.388
 7399TIP3    H122082   6.330   0.536   5.445
 7399TIP3    H222083   6.275   0.395   5.443
 7400TIP3   OH222084   6.988   0.604   5.065
 7400TIP3    H122085   7.073   0.647   5.074
 7400TIP3    H222086   6.981   0.547   5.142
 7401TIP3   OH222087   6.123   0.151   4.761
 7401TIP3    H122088   6.088   0.194   4.683
 7401TIP3    H222089   6.189   0.090   4.727
 7402TIP3   OH222090   6.441   0.066   4.404
 7402TIP3    H122091   6.532   0.064   4.436
 7402TIP3    H222092   6.435   0.147   4.354
 7403TIP3   OH222093   6.192   0.206   4.280
 7403TIP3    H122094   6.109   0.224   4.235
 7403TIP3    H222095   6.205   0.282   4.337
 7404TIP3   OH222096   7.393   1.826   5.191
 7404TIP3    H122097   7.391   1.838   5.096
 7404TIP3    H222098   7.473   1.870   5.219
 7405TIP3   OH222099   6.313   0.968   5.607
 7405TIP3    H122100   6.397   0.982   5.652
 7405TIP3    H222101   6.249   0.966   5.678
 7406TIP3   OH222102   6.729   0.424   4.898
 7406TIP3    H122103   6.730   0.350   4.837
 7406TIP3    H222104   6.747   0.384   4.984
 7407TIP3   OH222105   6.766   0.302   5.139
 7407TIP3    H122106   6.684   0.252   5.146
 7407TIP3    H222107   6.812   0.285   5.220
 7408TIP3   OH222108   6.482   0.676   4.222
 7408TIP3    H122109   6.408   0.620   4.199
 7408TIP3    H222110   6.457   0.719   4.303
 7409TIP3   OH222111   7.353   0.964   4.868
 7409TIP3    H122112   7.410   0.991   4.795
 7409TIP3    H222113   7.297   0.896   4.830
 7410TIP3   OH222114   6.942   1.018   5.233
 7410TIP3    H122115   6.902   0.932   5.248
 7410TIP3    H222116   6.882   1.080   5.274
 7411TIP3   OH222117   7.016   0.289   4.197
 7411TIP3    H122118   7.110   0.276   4.208
 7411TIP3    H222119   7.008   0.362   4.136
 7412TIP3   OH222120   6.162   0.690   4.871
 7412TIP3    H122121   6.202   0.676   4.785
 7412TIP3    H222122   6.231   0.668   4.933
 7413TIP3   OH222123   6.660   0.829   4.089
 7413TIP3    H122124   6.616   0.914   4.085
 7413TIP3    H222125   6.597   0.771   4.132
 7414TIP3   OH222126   6.067   0.628   5.522
 7414TIP3    H122127   6.063   0.606   5.615
 7414TIP3    H222128   5.992   0.584   5.484
 7415TIP3   OH222129   6.796   0.801   5.550
 7415TIP3    H122130   6.733   0.730   5.538
 7415TIP3    H222131   6.870   0.778   5.494
 7416TIP3   OH222132   7.055   1.287   5.129
 7416TIP3    H122133   6.961   1.270   5.140
 7416TIP3    H222134   7.084   1.321   5.213
 7417TIP3   OH222135   7.497   0.357   4.105
 7417TIP3    H122136   7.517   0.281   4.050
 7417TIP3    H222137   7.465   0.423   4.043
 7418TIP3   OH222138   7.710   1.223   5.122
 7418TIP3    H122139   7.618   1.197   5.127
 7418TIP3    H222140   7.741   1.186   5.039
 7419TIP3   OH222141   7.174   1.143   3.974
 7419TIP3    H122142   7.150   1.073   4.034
 7419TIP3    H222143   7.193   1.098   3.891
 7420TIP3   OH222144   7.134   0.800   4.766
 7420TIP3    H122145   7.043   0.777   4.784
 7420TIP3    H222146   7.175   0.718   4.739
 7421TIP3   OH222147   6.323   1.033   4.565
 7421TIP3    H122148   6.314   1.109   4.507
 7421TIP3    H222149   6.233   1.012   4.591
 7422TIP3   OH222150   5.864   0.331   4.285
 7422TIP3    H122151   5.908   0.413   4.308
 7422TIP3    H222152   5.784   0.331   4.338
 7423TIP3   OH222153   6.397   0.800   4.441
 7423TIP3    H122154   6.394   0.889   4.478
 7423TIP3    H222155   6.366   0.744   4.511
 7424TIP3   OH222156   6.600   1.341   5.013
 7424TIP3    H122157   6.639   1.414   4.963
 7424TIP3    H222158   6.672   1.309   5.067
 7425TIP3   OH222159   6.231   1.247   4.410
 7425TIP3    H122160   6.144   1.251   4.451
 7425TIP3    H222161   6.264   1.336   4.416
 7426TIP3   OH222162   6.958   1.016   4.957
 7426TIP3    H122163   6.957   1.018   5.052
 7426TIP3    H222164   7.037   0.965   4.935
 7427TIP3   OH222165   6.942   0.884   3.856
 7427TIP3    H122166   6.992   0.856   3.933
 7427TIP3    H222167   6.856   0.843   3.868
 7428TIP3   OH222168   7.207   1.499   5.029
 7428TIP3    H122169   7.141   1.433   5.049
 7428TIP3    H222170   7.169   1.551   4.958
 7429TIP3   OH222171   7.255   1.346   3.666
 7429TIP3    H122172   7.278   1.406   3.596
 7429TIP3    H222173   7.185   1.390   3.714
 7430TIP3   OH222174   7.115   0.800   4.053
 7430TIP3    H122175   7.105   0.755   4.137
 7430TIP3    H222176   7.209   0.814   4.044
 7431TIP3   OH222177   6.028   1.237   5.185
 7431TIP3    H122178   6.077   1.175   5.238
 7431TIP3    H222179   6.043   1.322   5.226
 7432TIP3   OH222180   6.296   0.866   3.883
 7432TIP3    H122181   6.306   0.775   3.853
 7432TIP3    H222182   6.284   0.858   3.978
 7433TIP3   OH222183   6.239   0.869   4.156
 7433TIP3    H122184   6.305   0.845   4.221
 7433TIP3    H222185   6.237   0.965   4.158
 7434TIP3   OH222186   5.973   0.578   4.352
 7434TIP3    H122187   5.909   0.626   4.405
 7434TIP3    H222188   5.990   0.634   4.277
 7435TIP3   OH222189   6.508   1.051   4.080
 7435TIP3    H122190   6.423   1.075   4.118
 7435TIP3    H222191   6.530   1.125   4.023
 7436TIP3   OH222192   6.705   0.060   4.488
 7436TIP3    H122193   6.790   0.081   4.450
 7436TIP3    H222194   6.723  -0.003   4.557
 7437TIP3   OH222195   6.961   0.508   5.325
 7437TIP3    H122196   6.962   0.600   5.350
 7437TIP3    H222197   7.052   0.479   5.332
 7438TIP3   OH222198   6.259   1.140   4.160
 7438TIP3    H122199   6.240   1.211   4.099
 7438TIP3    H222200   6.248   1.179   4.247
 7439TIP3   OH222201   7.295   0.575   4.667
 7439TIP3    H122202   7.261   0.513   4.731
 7439TIP3    H222203   7.360   0.626   4.714
 7440TIP3   OH222204   5.992   0.747   4.133
 7440TIP3    H122205   6.066   0.806   4.145
 7440TIP3    H222206   6.022   0.684   4.068
 7441TIP3   OH222207   5.865   0.057   4.268
 7441TIP3    H122208   5.875   0.152   4.278
 7441TIP3    H222209   5.771   0.042   4.278
 7442TIP3   OH222210   7.237   1.500   4.601
 7442TIP3    H122211   7.197   1.552   4.531
 7442TIP3    H222212   7.331   1.512   4.589
 7443TIP3   OH222213   5.823   1.006   4.534
 7443TIP3    H122214   5.781   1.042   4.613
 7443TIP3    H222215   5.778   1.049   4.462
 7444TIP3   OH222216   6.031   1.543   5.605
 7444TIP3    H122217   6.111   1.552   5.658
 7444TIP3    H222218   6.023   1.449   5.590
 7445TIP3   OH222219   6.485   1.452   5.637
 7445TIP3    H122220   6.574   1.421   5.653
 7445TIP3    H222221   6.453   1.397   5.565
 7446TIP3   OH222222   6.455   1.054   3.763
 7446TIP3    H122223   6.407   0.986   3.810
 7446TIP3    H222224   6.527   1.008   3.720
 7447TIP3   OH222225   7.128   1.391   5.368
 7447TIP3    H122226   7.123   1.336   5.445
 7447TIP3    H222227   7.195   1.456   5.389
 7448TIP3   OH222228   6.894   1.091   3.684
 7448TIP3    H122229   6.927   1.026   3.746
 7448TIP3    H222230   6.952   1.083   3.608
 7449TIP3   OH222231   6.118   0.960   5.804
 7449TIP3    H122232   6.110   0.892   5.870
 7449TIP3    H222233   6.036   0.956   5.754
 7450TIP3   OH222234   6.111   0.555   3.981
 7450TIP3    H122235   6.161   0.524   4.057
 7450TIP3    H222236   6.177   0.576   3.915
 7451TIP3   OH222237   6.741   1.064   5.571
 7451TIP3    H122238   6.696   1.080   5.488
 7451TIP3    H222239   6.773   0.974   5.564
 7452TIP3   OH222240   6.677   0.778   3.821
 7452TIP3    H122241   6.660   0.789   3.915
 7452TIP3    H222242   6.653   0.688   3.802
 7453TIP3   OH222243   7.217   1.025   5.148
 7453TIP3    H122244   7.280   1.085   5.107
 7453TIP3    H222245   7.138   1.078   5.161
 7454TIP3   OH222246   6.238   0.640   5.805
 7454TIP3    H122247   6.323   0.612   5.770
 7454TIP3    H222248   6.258   0.717   5.859
 7455TIP3   OH222249   6.285   0.489   4.187
 7455TIP3    H122250   6.275   0.466   4.280
 7455TIP3    H222251   6.333   0.415   4.150
 7456TIP3   OH222252   6.582   0.627   5.527
 7456TIP3    H122253   6.496   0.665   5.510
 7456TIP3    H222254   6.611   0.592   5.442
 7457TIP3   OH222255   6.418   0.309   4.020
 7457TIP3    H122256   6.391   0.322   3.930
 7457TIP3    H222257   6.510   0.335   4.021
 7458TIP3   OH222258   7.155   1.008   5.580
 7458TIP3    H122259   7.187   0.963   5.501
 7458TIP3    H222260   7.126   0.938   5.638
 7459TIP3   OH222261   7.308   0.649   3.677
 7459TIP3    H122262   7.262   0.568   3.654
 7459TIP3    H222263   7.244   0.718   3.659
 7460TIP3   OH222264   6.590   0.307   5.464
 7460TIP3    H122265   6.675   0.277   5.431
 7460TIP3    H222266   6.570   0.384   5.411
 7461TIP3   OH222267   6.818   0.775   5.215
 7461TIP3    H122268   6.857   0.720   5.148
 7461TIP3    H222269   6.726   0.782   5.190
 7462TIP3   OH222270   7.426   0.560   5.697
 7462TIP3    H122271   7.338   0.566   5.659
 7462TIP3    H222272   7.418   0.603   5.782
 7463TIP3   OH222273   7.295   0.900   5.373
 7463TIP3    H122274   7.271   0.951   5.295
 7463TIP3    H222275   7.382   0.866   5.353
 7464TIP3   OH222276   6.505   0.592   5.790
 7464TIP3    H122277   6.523   0.500   5.811
 7464TIP3    H222278   6.548   0.606   5.706
 7465TIP3   OH222279   6.882   0.516   5.616
 7465TIP3    H122280   6.948   0.477   5.674
 7465TIP3    H222281   6.903   0.482   5.529
 7466TIP3   OH222282   6.259   1.349   3.979
 7466TIP3    H122283   6.348   1.328   3.952
 7466TIP3    H222284   6.220   1.390   3.903
 7467TIP3   OH222285   5.721   0.743   4.157
 7467TIP3    H122286   5.815   0.756   4.150
 7467TIP3    H222287   5.704   0.658   4.116
 7468TIP3   OH222288   5.622   1.309   4.619
 7468TIP3    H122289   5.558   1.254   4.573
 7468TIP3    H222290   5.667   1.248   4.678
 7469TIP3   OH222291   5.770   1.144   4.784
 7469TIP3    H122292   5.764   1.075   4.850
 7469TIP3    H222293   5.821   1.213   4.826
 7470TIP3   OH222294   7.506   1.551   4.592
 7470TIP3    H122295   7.529   1.581   4.680
 7470TIP3    H222296   7.570   1.596   4.535
 7471TIP3   OH222297   7.523   1.583   4.874
 7471TIP3    H122298   7.477   1.500   4.868
 7471TIP3    H222299   7.593   1.568   4.937
 7472TIP3   OH222300   7.556   1.301   5.419
 7472TIP3    H122301   7.492   1.302   5.490
 7472TIP3    H222302   7.610   1.378   5.434
 7473TIP3   OH222303   7.390   0.816   4.045
 7473TIP3    H122304   7.450   0.885   4.015
 7473TIP3    H222305   7.424   0.790   4.131
 7474TIP3   OH222306   7.485   0.706   4.272
 7474TIP3    H122307   7.429   0.655   4.330
 7474TIP3    H222308   7.553   0.742   4.330
 7475TIP3   OH222309   7.551   1.063   4.700
 7475TIP3    H122310   7.602   0.992   4.660
 7475TIP3    H222311   7.557   1.135   4.637
 7476TIP3   OH222312   7.385   1.341   4.885
 7476TIP3    H122313   7.316   1.386   4.933
 7476TIP3    H222314   7.340   1.294   4.815
 7477TIP3   OH222315   7.424   0.576   3.917
 7477TIP3    H122316   7.393   0.608   3.833
 7477TIP3    H222317   7.417   0.651   3.976
 7478TIP3   OH222318   7.263   0.397   3.786
 7478TIP3    H122319   7.315   0.443   3.852
 7478TIP3    H222320   7.191   0.358   3.835
 7479TIP3   OH222321   7.317   0.522   4.403
 7479TIP3    H122322   7.366   0.440   4.403
 7479TIP3    H222323   7.307   0.544   4.495
 7480TIP3   OH222324   5.919   0.600   5.155
 7480TIP3    H122325   5.914   0.578   5.062
 7480TIP3    H222326   6.012   0.612   5.172
 7481TIP3   OH222327   7.584   0.918   5.209
 7481TIP3    H122328   7.610   0.852   5.145
 7481TIP3    H222329   7.543   0.987   5.157
 7482TIP3   OH222330   7.798   0.799   5.385
 7482TIP3    H122331   7.724   0.832   5.335
 7482TIP3    H222332   7.874   0.818   5.330
 7483TIP3   OH222333   7.264   0.196   4.226
 7483TIP3    H122334   7.292   0.110   4.258
 7483TIP3    H222335   7.285   0.195   4.133
 7484TIP3   OH222336   7.539   0.400   4.830
 7484TIP3    H122337   7.578   0.485   4.810
 7484TIP3    H222338   7.535   0.398   4.926
 7485TIP3   OH222339   5.903   0.326   5.212
 7485TIP3    H122340   5.956   0.310   5.135
 7485TIP3    H222341   5.890   0.421   5.213
 7486TIP3   OH222342   7.062   1.464   4.235
 7486TIP3    H122343   7.119   1.452   4.159
 7486TIP3    H222344   7.106   1.531   4.287
 7487TIP3   OH222345   6.153   1.268   5.606
 7487TIP3    H122346   6.060   1.244   5.604
 7487TIP3    H222347   6.181   1.248   5.695
 7488TIP3   OH222348   6.371   1.302   5.161
 7488TIP3    H122349   6.320   1.377   5.129
 7488TIP3    H222350   6.456   1.311   5.119
 7489TIP3   OH222351   6.778   1.537   5.310
 7489TIP3    H122352   6.821   1.524   5.395
 7489TIP3    H222353   6.839   1.591   5.260
 7490TIP3   OH222354   6.962   1.691   5.172
 7490TIP3    H122355   7.022   1.630   5.129
 7490TIP3    H222356   7.019   1.745   5.226
 7491TIP3   OH222357   6.033   1.542   5.216
 7491TIP3    H122358   5.942   1.560   5.194
 7491TIP3    H222359   6.055   1.608   5.282
 7492TIP3   OH222360   6.260   1.532   5.062
 7492TIP3    H122361   6.178   1.536   5.111
 7492TIP3    H222362   6.235   1.556   4.973
 7493TIP3   OH222363   6.676   1.555   4.854
 7493TIP3    H122364   6.601   1.565   4.795
 7493TIP3    H222365   6.685   1.640   4.897
 7494TIP3   OH222366   6.941   1.495   4.904
 7494TIP3    H122367   6.849   1.513   4.881
 7494TIP3    H222368   6.991   1.562   4.857
 7495TIP3   OH222369   7.140   1.661   4.802
 7495TIP3    H122370   7.143   1.748   4.762
 7495TIP3    H222371   7.173   1.602   4.735
 7496TIP3   OH222372   5.945   1.322   4.933
 7496TIP3    H122373   5.971   1.299   5.022
 7496TIP3    H222374   6.016   1.289   4.878
 7497TIP3   OH222375   6.147   1.211   4.789
 7497TIP3    H122376   6.155   1.126   4.833
 7497TIP3    H222377   6.234   1.249   4.794
 7498TIP3   OH222378   6.415   1.290   4.814
 7498TIP3    H122379   6.430   1.197   4.800
 7498TIP3    H222380   6.472   1.313   4.887
 7499TIP3   OH222381   5.701   1.121   4.317
 7499TIP3    H122382   5.619   1.087   4.282
 7499TIP3    H222383   5.708   1.210   4.282
 7500TIP3   OH222384   6.514   1.275   3.909
 7500TIP3    H122385   6.598   1.303   3.872
 7500TIP3    H222386   6.484   1.205   3.851
 7501TIP3   OH222387   7.213   1.411   4.009
 7501TIP3    H122388   7.206   1.316   4.001
 7501TIP3    H222389   7.172   1.445   3.929
 7502TIP3   OH222390   5.820   1.114   3.966
 7502TIP3    H122391   5.823   1.123   4.061
 7502TIP3    H222392   5.900   1.067   3.943
 7503TIP3   OH222393   7.427   1.552   5.195
 7503TIP3    H122394   7.353   1.522   5.142
 7503TIP3    H222395   7.413   1.647   5.203
 7504TIP3   OH222396   8.705   0.916   3.948
 7504TIP3    H122397   8.685   1.009   3.937
 7504TIP3    H222398   8.631   0.870   3.909
 7505TIP3   OH222399   8.648   0.935   4.330
 7505TIP3    H122400   8.701   0.908   4.406
 7505TIP3    H222401   8.593   0.859   4.311
 7506TIP3   OH222402   7.973   0.871   4.687
 7506TIP3    H122403   8.009   0.816   4.756
 7506TIP3    H222404   8.051   0.909   4.644
 7507TIP3   OH222405   8.954   1.228   4.026
 7507TIP3    H122406   8.934   1.165   4.095
 7507TIP3    H222407   8.979   1.308   4.073
 7508TIP3   OH222408   7.985   1.226   4.392
 7508TIP3    H122409   7.963   1.133   4.391
 7508TIP3    H222410   8.080   1.229   4.387
 7509TIP3   OH222411   7.696   0.522   4.202
 7509TIP3    H122412   7.680   0.611   4.233
 7509TIP3    H222413   7.609   0.485   4.185
 7510TIP3   OH222414   7.750   0.767   4.354
 7510TIP3    H122415   7.799   0.695   4.393
 7510TIP3    H222416   7.816   0.834   4.337
 7511TIP3   OH222417   8.629   1.663   4.057
 7511TIP3    H122418   8.659   1.592   4.000
 7511TIP3    H222419   8.628   1.625   4.145
 7512TIP3   OH222420   8.505   1.172   4.373
 7512TIP3    H122421   8.544   1.089   4.345
 7512TIP3    H222422   8.579   1.225   4.401
 7513TIP3   OH222423   9.027   0.827   4.329
 7513TIP3    H122424   9.077   0.779   4.395
 7513TIP3    H222425   8.979   0.760   4.280
 7514TIP3   OH222426   7.858   0.556   4.486
 7514TIP3    H122427   7.951   0.531   4.487
 7514TIP3    H222428   7.811   0.473   4.481
 7515TIP3   OH222429   8.296   0.783   4.309
 7515TIP3    H122430   8.379   0.737   4.318
 7515TIP3    H222431   8.231   0.714   4.297
 7516TIP3   OH222432   8.609   1.154   3.810
 7516TIP3    H122433   8.572   1.127   3.726
 7516TIP3    H222434   8.556   1.228   3.837
 7517TIP3   OH222435   8.380   1.104   4.609
 7517TIP3    H122436   8.316   1.169   4.637
 7517TIP3    H222437   8.418   1.140   4.529
 7518TIP3   OH222438   8.116   0.467   4.493
 7518TIP3    H122439   8.152   0.536   4.549
 7518TIP3    H222440   8.192   0.426   4.453
 7519TIP3   OH222441   8.188   1.286   4.686
 7519TIP3    H122442   8.175   1.375   4.654
 7519TIP3    H222443   8.109   1.266   4.735
 7520TIP3   OH222444   7.568   0.999   3.938
 7520TIP3    H122445   7.536   1.021   3.850
 7520TIP3    H222446   7.591   1.084   3.976
 7521TIP3   OH222447   8.989   1.476   4.164
 7521TIP3    H122448   8.903   1.468   4.205
 7521TIP3    H222449   8.992   1.565   4.129
 7522TIP3   OH222450   8.726   1.493   3.859
 7522TIP3    H122451   8.785   1.420   3.839
 7522TIP3    H222452   8.770   1.570   3.823
 7523TIP3   OH222453   8.863   1.255   3.769
 7523TIP3    H122454   8.775   1.221   3.787
 7523TIP3    H222455   8.910   1.245   3.852
 7524TIP3   OH222456   8.537   0.778   3.762
 7524TIP3    H122457   8.461   0.835   3.750
 7524TIP3    H222458   8.588   0.788   3.682
 7525TIP3   OH222459   8.486   0.575   3.506
 7525TIP3    H122460   8.557   0.635   3.525
 7525TIP3    H222461   8.501   0.500   3.563
 7526TIP3   OH222462   8.881   0.842   3.746
 7526TIP3    H122463   8.827   0.868   3.821
 7526TIP3    H222464   8.965   0.817   3.784
 7527TIP3   OH222465   9.065   0.941   4.699
 7527TIP3    H122466   9.131   0.984   4.753
 7527TIP3    H222467   8.999   1.008   4.684
 7528TIP3   OH222468   8.116   0.894   4.129
 7528TIP3    H122469   8.075   0.809   4.110
 7528TIP3    H222470   8.192   0.871   4.183
 7529TIP3   OH222471   8.250   1.265   4.300
 7529TIP3    H122472   8.239   1.252   4.206
 7529TIP3    H222473   8.339   1.236   4.318
 7530TIP3   OH222474   8.195   0.920   4.522
 7530TIP3    H122475   8.240   0.884   4.445
 7530TIP3    H222476   8.258   0.982   4.559
 7531TIP3   OH222477   8.748   1.480   4.292
 7531TIP3    H122478   8.736   1.558   4.346
 7531TIP3    H222479   8.742   1.407   4.354
 7532TIP3   OH222480   8.387   1.383   4.855
 7532TIP3    H122481   8.324   1.444   4.894
 7532TIP3    H222482   8.335   1.330   4.795
 7533TIP3   OH222483   8.728   0.708   3.556
 7533TIP3    H122484   8.789   0.745   3.620
 7533TIP3    H222485   8.752   0.748   3.473
 7534TIP3   OH222486   8.127   1.005   4.944
 7534TIP3    H122487   8.130   1.090   4.987
 7534TIP3    H222488   8.035   0.978   4.950
 7535TIP3   OH222489   8.470   1.393   3.836
 7535TIP3    H122490   8.552   1.439   3.852
 7535TIP3    H222491   8.416   1.457   3.790
 7536TIP3   OH222492   8.178   1.546   4.928
 7536TIP3    H122493   8.155   1.554   4.836
 7536TIP3    H222494   8.095   1.531   4.973
 7537TIP3   OH222495   7.980   0.680   3.895
 7537TIP3    H122496   7.915   0.748   3.880
 7537TIP3    H222497   7.933   0.610   3.940
 7538TIP3   OH222498   7.767   1.104   4.882
 7538TIP3    H122499   7.694   1.084   4.825
 7538TIP3    H222500   7.802   1.019   4.909
 7539TIP3   OH222501   7.629   1.278   4.531
 7539TIP3    H122502   7.724   1.279   4.533
 7539TIP3    H222503   7.603   1.359   4.575
 7540TIP3   OH222504   8.537   1.553   4.689
 7540TIP3    H122505   8.553   1.631   4.742
 7540TIP3    H222506   8.507   1.487   4.752
 7541TIP3   OH222507   8.364   1.617   3.672
 7541TIP3    H122508   8.321   1.599   3.588
 7541TIP3    H222509   8.326   1.700   3.701
 7542TIP3   OH222510   7.792   1.479   4.040
 7542TIP3    H122511   7.836   1.472   4.124
 7542TIP3    H222512   7.744   1.397   4.031
 7543TIP3   OH222513   8.566   1.547   3.295
 7543TIP3    H122514   8.615   1.470   3.267
 7543TIP3    H222515   8.602   1.568   3.381
 7544TIP3   OH222516   8.617   1.606   3.561
 7544TIP3    H122517   8.534   1.599   3.610
 7544TIP3    H222518   8.685   1.602   3.629
 7545TIP3   OH222519   7.961   1.298   4.848
 7545TIP3    H122520   8.005   1.296   4.933
 7545TIP3    H222521   7.894   1.230   4.855
 7546TIP3   OH222522   8.803   0.809   3.310
 7546TIP3    H122523   8.729   0.801   3.249
 7546TIP3    H222524   8.817   0.903   3.318
 7547TIP3   OH222525   8.224   0.670   4.636
 7547TIP3    H122526   8.189   0.676   4.725
 7547TIP3    H222527   8.208   0.756   4.598
 7548TIP3   OH222528   8.082   0.627   4.228
 7548TIP3    H122529   8.037   0.547   4.257
 7548TIP3    H222530   8.141   0.597   4.159
 7549TIP3   OH222531   8.741   0.602   3.895
 7549TIP3    H122532   8.685   0.644   3.829
 7549TIP3    H222533   8.779   0.527   3.850
 7550TIP3   OH222534   8.807   0.993   4.959
 7550TIP3    H122535   8.846   0.919   5.007
 7550TIP3    H222536   8.875   1.023   4.900
 7551TIP3   OH222537   8.823   0.717   4.145
 7551TIP3    H122538   8.793   0.798   4.103
 7551TIP3    H222539   8.843   0.658   4.072
 7552TIP3   OH222540   8.103   0.716   4.876
 7552TIP3    H122541   8.112   0.788   4.938
 7552TIP3    H222542   8.067   0.644   4.928
 7553TIP3   OH222543   8.804   0.805   4.516
 7553TIP3    H122544   8.889   0.849   4.517
 7553TIP3    H222545   8.783   0.792   4.609
 7554TIP3   OH222546   7.932   0.390   4.244
 7554TIP3    H122547   7.859   0.453   4.240
 7554TIP3    H222548   7.890   0.304   4.236
 7555TIP3   OH222549   8.213   0.304   3.937
 7555TIP3    H122550   8.303   0.337   3.937
 7555TIP3    H222551   8.172   0.346   3.862
 7556TIP3   OH222552   8.069   0.438   3.742
 7556TIP3    H122553   8.012   0.495   3.794
 7556TIP3    H222554   8.142   0.495   3.715
 7557TIP3   OH222555   9.161   2.054   4.657
 7557TIP3    H122556   9.133   2.077   4.568
 7557TIP3    H222557   9.253   2.081   4.661
 7558TIP3   OH222558   8.109   1.228   5.099
 7558TIP3    H122559   8.193   1.240   5.143
 7558TIP3    H222560   8.045   1.221   5.171
 7559TIP3   OH222561   8.543   0.670   4.352
 7559TIP3    H122562   8.627   0.626   4.340
 7559TIP3    H222563   8.523   0.658   4.445
 7560TIP3   OH222564   8.571   0.582   4.609
 7560TIP3    H122565   8.500   0.523   4.636
 7560TIP3    H222566   8.636   0.576   4.678
 7561TIP3   OH222567   8.306   0.915   3.723
 7561TIP3    H122568   8.229   0.869   3.689
 7561TIP3    H222569   8.273   0.967   3.796
 7562TIP3   OH222570   7.965   0.946   4.359
 7562TIP3    H122571   8.011   0.937   4.276
 7562TIP3    H222572   8.031   0.927   4.425
 7563TIP3   OH222573   8.461   1.089   3.584
 7563TIP3    H122574   8.412   1.172   3.581
 7563TIP3    H222575   8.402   1.029   3.629
 7564TIP3   OH222576   7.891   0.898   5.022
 7564TIP3    H122577   7.929   0.894   5.110
 7564TIP3    H222578   7.831   0.823   5.019
 7565TIP3   OH222579   8.561   1.043   5.050
 7565TIP3    H122580   8.494   0.981   5.018
 7565TIP3    H222581   8.639   1.023   4.998
 7566TIP3   OH222582   8.934   1.383   3.502
 7566TIP3    H122583   8.920   1.338   3.585
 7566TIP3    H222584   8.911   1.317   3.436
 7567TIP3   OH222585   8.890   1.051   4.234
 7567TIP3    H122586   8.803   1.015   4.251
 7567TIP3    H222587   8.950   0.983   4.265
 7568TIP3   OH222588   8.119   1.286   4.048
 7568TIP3    H122589   8.109   1.362   3.991
 7568TIP3    H222590   8.034   1.278   4.091
 7569TIP3   OH222591   7.624   0.625   3.715
 7569TIP3    H122592   7.682   0.694   3.747
 7569TIP3    H222593   7.581   0.591   3.794
 7570TIP3   OH222594   8.184   1.055   3.917
 7570TIP3    H122595   8.180   1.143   3.956
 7570TIP3    H222596   8.159   0.997   3.988
 7571TIP3   OH222597   8.379   1.610   4.480
 7571TIP3    H122598   8.422   1.681   4.433
 7571TIP3    H222599   8.443   1.582   4.546
 7572TIP3   OH222600   8.025   1.499   3.895
 7572TIP3    H122601   7.938   1.505   3.935
 7572TIP3    H222602   8.061   1.588   3.903
 7573TIP3   OH222603   8.756   1.257   4.454
 7573TIP3    H122604   8.785   1.255   4.546
 7573TIP3    H222605   8.820   1.203   4.408
 7574TIP3   OH222606   8.750   1.085   3.332
 7574TIP3    H122607   8.787   1.083   3.420
 7574TIP3    H222608   8.656   1.080   3.344
 7575TIP3   OH222609   8.978   1.732   4.517
 7575TIP3    H122610   8.894   1.688   4.510
 7575TIP3    H222611   8.979   1.795   4.444
 7576TIP3   OH222612   8.868   1.060   3.574
 7576TIP3    H122613   8.881   0.980   3.625
 7576TIP3    H222614   8.878   1.131   3.639
 7577TIP3   OH222615   7.819   1.492   4.671
 7577TIP3    H122616   7.869   1.430   4.724
 7577TIP3    H222617   7.837   1.577   4.710
 7578TIP3   OH222618   8.092   1.123   3.375
 7578TIP3    H122619   8.106   1.033   3.344
 7578TIP3    H222620   8.085   1.115   3.470
 7579TIP3   OH222621   8.041   1.121   3.651
 7579TIP3    H122622   8.090   1.099   3.731
 7579TIP3    H222623   8.040   1.217   3.650
 7580TIP3   OH222624   7.764   0.837   3.830
 7580TIP3    H122625   7.702   0.881   3.888
 7580TIP3    H222626   7.780   0.899   3.760
 7581TIP3   OH222627   8.305   1.307   3.565
 7581TIP3    H122628   8.220   1.330   3.604
 7581TIP3    H222629   8.327   1.383   3.511
 7582TIP3   OH222630   8.488   0.340   3.979
 7582TIP3    H122631   8.508   0.424   4.022
 7582TIP3    H222632   8.532   0.275   4.032
 7583TIP3   OH222633   8.788   0.764   4.784
 7583TIP3    H122634   8.757   0.850   4.814
 7583TIP3    H222635   8.875   0.755   4.823
 7584TIP3   OH222636   8.055   1.393   3.646
 7584TIP3    H122637   8.036   1.464   3.584
 7584TIP3    H222638   8.044   1.433   3.732
 7585TIP3   OH222639   7.788   1.014   3.618
 7585TIP3    H122640   7.864   1.069   3.633
 7585TIP3    H222641   7.816   0.950   3.553
 7586TIP3   OH222642   7.736   0.337   3.727
 7586TIP3    H122643   7.772   0.389   3.800
 7586TIP3    H222644   7.646   0.317   3.755
 7587TIP3   OH222645   9.023   1.745   4.080
 7587TIP3    H122646   8.989   1.800   4.010
 7587TIP3    H222647   9.116   1.733   4.057
 7588TIP3   OH222648   7.618   1.260   4.024
 7588TIP3    H122649   7.578   1.297   4.103
 7588TIP3    H222650   7.571   1.303   3.952
 7589TIP3   OH222651   7.826   1.795   5.087
 7589TIP3    H122652   7.908   1.799   5.136
 7589TIP3    H222653   7.811   1.701   5.073
 7590TIP3   OH222654   8.288   1.702   5.126
 7590TIP3    H122655   8.379   1.674   5.135
 7590TIP3    H222656   8.254   1.651   5.052
 7591TIP3   OH222657   8.245   1.314   3.248
 7591TIP3    H122658   8.200   1.247   3.299
 7591TIP3    H222659   8.319   1.269   3.208
 7592TIP3   OH222660   8.896   1.680   4.882
 7592TIP3    H122661   8.918   1.605   4.938
 7592TIP3    H222662   8.978   1.700   4.836
 7593TIP3   OH222663   8.690   1.322   3.198
 7593TIP3    H122664   8.732   1.242   3.231
 7593TIP3    H222665   8.728   1.335   3.112
 7594TIP3   OH222666   7.918   1.214   5.300
 7594TIP3    H122667   7.891   1.179   5.385
 7594TIP3    H222668   7.839   1.212   5.247
 7595TIP3   OH222669   7.907   0.821   3.466
 7595TIP3    H122670   7.960   0.794   3.541
 7595TIP3    H222671   7.971   0.842   3.399
 7596TIP3   OH222672   8.544   1.313   5.063
 7596TIP3    H122673   8.502   1.334   4.980
 7596TIP3    H222674   8.568   1.221   5.055
 7597TIP3   OH222675   8.468   1.044   3.316
 7597TIP3    H122676   8.454   1.063   3.409
 7597TIP3    H222677   8.470   0.948   3.311
 7598TIP3   OH222678   8.030   0.896   5.265
 7598TIP3    H122679   8.122   0.870   5.258
 7598TIP3    H222680   8.031   0.971   5.325
 7599TIP3   OH222681   8.093   0.755   3.657
 7599TIP3    H122682   8.066   0.727   3.745
 7599TIP3    H222683   8.138   0.678   3.621
 7600TIP3   OH222684   8.346   0.866   5.011
 7600TIP3    H122685   8.275   0.925   4.986
 7600TIP3    H222686   8.379   0.832   4.928
 7601TIP3   OH222687   8.208   0.548   3.509
 7601TIP3    H122688   8.179   0.571   3.421
 7601TIP3    H222689   8.303   0.561   3.507
 7602TIP3   OH222690   8.903   1.246   5.035
 7602TIP3    H122691   8.895   1.249   4.940
 7602TIP3    H222692   8.862   1.163   5.059
 7603TIP3   OH222693   8.572   0.650   5.003
 7603TIP3    H122694   8.489   0.629   5.046
 7603TIP3    H222695   8.546   0.694   4.921
 7604TIP3   OH222696   8.616   0.997   4.720
 7604TIP3    H122697   8.686   1.062   4.724
 7604TIP3    H222698   8.540   1.046   4.687
 7605TIP3   OH222699   9.200   0.890   5.278
 7605TIP3    H122700   9.155   0.882   5.194
 7605TIP3    H222701   9.189   0.981   5.304
 7606TIP3   OH222702   9.183   1.182   4.822
 7606TIP3    H122703   9.091   1.196   4.797
 7606TIP3    H222704   9.233   1.228   4.754
 7607TIP3   OH222705   8.305   0.858   5.287
 7607TIP3    H122706   8.339   0.772   5.314
 7607TIP3    H222707   8.346   0.874   5.202
 7608TIP3   OH222708   8.819   0.760   5.095
 7608TIP3    H122709   8.833   0.715   5.178
 7608TIP3    H222710   8.736   0.726   5.063
 7609TIP3   OH222711   8.053   1.600   3.463
 7609TIP3    H122712   8.144   1.584   3.439
 7609TIP3    H222713   8.015   1.644   3.387
 7610TIP3   OH222714   7.517   1.013   3.657
 7610TIP3    H122715   7.611   1.030   3.646
 7610TIP3    H222716   7.502   0.932   3.609
 7611TIP3   OH222717   7.420   1.563   4.107
 7611TIP3    H122718   7.356   1.508   4.061
 7611TIP3    H222719   7.464   1.502   4.167
 7612TIP3   OH222720   7.564   1.395   4.274
 7612TIP3    H122721   7.556   1.327   4.341
 7612TIP3    H222722   7.616   1.464   4.317
 7613TIP3   OH222723   9.174   1.594   4.351
 7613TIP3    H122724   9.113   1.620   4.419
 7613TIP3    H222725   9.125   1.533   4.296
 7614TIP3   OH222726   7.716   0.872   4.608
 7614TIP3    H122727   7.722   0.849   4.516
 7614TIP3    H222728   7.806   0.878   4.638
 7615TIP3   OH222729   7.671   0.605   4.688
 7615TIP3    H122730   7.738   0.609   4.620
 7615TIP3    H222731   7.657   0.696   4.714
 7616TIP3   OH222732   8.825   1.713   3.737
 7616TIP3    H122733   8.881   1.700   3.661
 7616TIP3    H222734   8.870   1.779   3.789
 7617TIP3   OH222735   7.953   1.520   5.089
 7617TIP3    H122736   7.860   1.500   5.088
 7617TIP3    H222737   7.980   1.503   5.180
 7618TIP3   OH222738   8.164   1.560   4.647
 7618TIP3    H122739   8.113   1.637   4.619
 7618TIP3    H222740   8.246   1.567   4.599
 7619TIP3   OH222741   8.568   1.800   4.819
 7619TIP3    H122742   8.611   1.793   4.904
 7619TIP3    H222743   8.632   1.843   4.763
 7620TIP3   OH222744   8.760   1.935   4.671
 7620TIP3    H122745   8.821   1.869   4.639
 7620TIP3    H222746   8.813   1.992   4.727
 7621TIP3   OH222747   7.827   1.796   4.703
 7621TIP3    H122748   7.736   1.814   4.682
 7621TIP3    H222749   7.851   1.862   4.768
 7622TIP3   OH222750   8.057   1.795   4.551
 7622TIP3    H122751   7.973   1.797   4.598
 7622TIP3    H222752   8.034   1.816   4.461
 7623TIP3   OH222753   8.474   1.820   4.328
 7623TIP3    H122754   8.396   1.831   4.273
 7623TIP3    H222755   8.483   1.904   4.374
 7624TIP3   OH222756   8.726   1.733   4.393
 7624TIP3    H122757   8.637   1.761   4.371
 7624TIP3    H222758   8.783   1.797   4.351
 7625TIP3   OH222759   8.934   1.891   4.295
 7625TIP3    H122760   8.921   1.979   4.259
 7625TIP3    H222761   8.965   1.839   4.221
 7626TIP3   OH222762   7.737   1.575   4.420
 7626TIP3    H122763   7.765   1.551   4.508
 7626TIP3    H222764   7.808   1.543   4.363
 7627TIP3   OH222765   7.936   1.464   4.272
 7627TIP3    H122766   7.947   1.381   4.319
 7627TIP3    H222767   8.023   1.504   4.274
 7628TIP3   OH222768   8.201   1.543   4.285
 7628TIP3    H122769   8.221   1.450   4.275
 7628TIP3    H222770   8.256   1.572   4.359
 7629TIP3   OH222771   7.497   1.376   3.807
 7629TIP3    H122772   7.415   1.342   3.772
 7629TIP3    H222773   7.503   1.465   3.771
 7630TIP3   OH222774   8.311   1.533   3.397
 7630TIP3    H122775   8.397   1.557   3.362
 7630TIP3    H222776   8.279   1.465   3.338
 7631TIP3   OH222777   8.971   1.656   3.517
 7631TIP3    H122778   8.970   1.561   3.505
 7631TIP3    H222779   8.947   1.691   3.431
 7632TIP3   OH222780   7.613   1.367   3.452
 7632TIP3    H122781   7.615   1.382   3.547
 7632TIP3    H222782   7.695   1.322   3.433
 7633TIP3   OH222783   9.123   1.791   4.742
 7633TIP3    H122784   9.084   1.752   4.663
 7633TIP3    H222785   9.144   1.880   4.716
 7634TIP3   OH222786   1.166   1.732   5.635
 7634TIP3    H122787   1.134   1.817   5.605
 7634TIP3    H222788   1.098   1.670   5.608
 7635TIP3   OH222789   1.176   1.735   6.048
 7635TIP3    H122790   1.225   1.709   6.126
 7635TIP3    H222791   1.131   1.655   6.020
 7636TIP3   OH222792   0.516   1.655   6.439
 7636TIP3    H122793   0.437   1.607   6.411
 7636TIP3    H222794   0.575   1.649   6.364
 7637TIP3   OH222795   1.434   2.029   5.724
 7637TIP3    H122796   1.419   1.961   5.790
 7637TIP3    H222797   1.452   2.108   5.775
 7638TIP3   OH222798   0.466   2.025   6.102
 7638TIP3    H122799   0.451   1.931   6.105
 7638TIP3    H222800   0.559   2.034   6.081
 7639TIP3   OH222801   1.090   2.449   5.744
 7639TIP3    H122802   1.109   2.387   5.674
 7639TIP3    H222803   1.099   2.398   5.824
 7640TIP3   OH222804   0.963   1.941   6.054
 7640TIP3    H122805   1.009   1.864   6.020
 7640TIP3    H222806   1.032   1.999   6.085
 7641TIP3   OH222807   2.008   1.261   6.062
 7641TIP3    H122808   2.020   1.348   6.100
 7641TIP3    H222809   2.038   1.270   5.971
 7642TIP3   OH222810   1.386   1.428   6.087
 7642TIP3    H122811   1.418   1.342   6.117
 7642TIP3    H222812   1.343   1.410   6.004
 7643TIP3   OH222813   1.441   1.206   5.692
 7643TIP3    H122814   1.506   1.196   5.762
 7643TIP3    H222815   1.492   1.237   5.617
 7644TIP3   OH222816   0.791   1.508   5.993
 7644TIP3    H122817   0.886   1.509   5.988
 7644TIP3    H222818   0.768   1.416   5.981
 7645TIP3   OH222819   2.056   1.483   6.233
 7645TIP3    H122820   1.967   1.518   6.225
 7645TIP3    H222821   2.089   1.521   6.314
 7646TIP3   OH222822   1.058   1.940   5.488
 7646TIP3    H122823   1.019   1.914   5.405
 7646TIP3    H222824   1.006   2.015   5.517
 7647TIP3   OH222825   0.816   1.863   6.277
 7647TIP3    H122826   0.756   1.931   6.308
 7647TIP3    H222827   0.859   1.901   6.201
 7648TIP3   OH222828   1.595   1.211   5.916
 7648TIP3    H122829   1.552   1.189   5.998
 7648TIP3    H222830   1.647   1.289   5.935
 7649TIP3   OH222831   0.649   2.060   6.377
 7649TIP3    H122832   0.629   2.148   6.344
 7649TIP3    H222833   0.571   2.036   6.427
 7650TIP3   OH222834   0.063   1.792   5.628
 7650TIP3    H122835   0.005   1.810   5.554
 7650TIP3    H222836   0.077   1.877   5.669
 7651TIP3   OH222837   1.464   2.274   5.868
 7651TIP3    H122838   1.375   2.267   5.903
 7651TIP3    H222839   1.465   2.357   5.820
 7652TIP3   OH222840   1.792   1.171   6.224
 7652TIP3    H122841   1.707   1.187   6.185
 7652TIP3    H222842   1.855   1.194   6.155
 7653TIP3   OH222843   1.164   2.311   5.512
 7653TIP3    H122844   1.218   2.233   5.505
 7653TIP3    H222845   1.221   2.383   5.485
 7654TIP3   OH222846   1.320   2.093   5.480
 7654TIP3    H122847   1.272   2.015   5.453
 7654TIP3    H222848   1.367   2.066   5.559
 7655TIP3   OH222849   1.704   2.157   6.210
 7655TIP3    H122850   1.681   2.084   6.151
 7655TIP3    H222851   1.689   2.235   6.158
 7656TIP3   OH222852   0.994   1.574   5.483
 7656TIP3    H122853   0.910   1.619   5.468
 7656TIP3    H222854   1.038   1.575   5.398
 7657TIP3   OH222855   0.959   1.440   5.182
 7657TIP3    H122856   1.042   1.469   5.218
 7657TIP3    H222857   0.963   1.344   5.186
 7658TIP3   OH222858   1.874   1.825   6.077
 7658TIP3    H122859   1.790   1.870   6.073
 7658TIP3    H222860   1.911   1.835   5.989
 7659TIP3   OH222861   1.357   1.681   5.447
 7659TIP3    H122862   1.302   1.702   5.522
 7659TIP3    H222863   1.439   1.650   5.485
 7660TIP3   OH222864   1.578   1.686   6.380
 7660TIP3    H122865   1.571   1.768   6.428
 7660TIP3    H222866   1.497   1.681   6.329
 7661TIP3   OH222867   0.591   1.651   5.854
 7661TIP3    H122868   0.550   1.595   5.788
 7661TIP3    H222869   0.662   1.598   5.890
 7662TIP3   OH222870   0.717   2.065   5.983
 7662TIP3    H122871   0.688   2.046   5.894
 7662TIP3    H222872   0.801   2.020   5.992
 7663TIP3   OH222873   0.687   1.626   6.221
 7663TIP3    H122874   0.723   1.590   6.140
 7663TIP3    H222875   0.738   1.706   6.235
 7664TIP3   OH222876   1.219   2.271   5.989
 7664TIP3    H122877   1.209   2.350   6.043
 7664TIP3    H222878   1.206   2.199   6.051
 7665TIP3   OH222879   0.837   2.169   6.546
 7665TIP3    H122880   0.773   2.222   6.594
 7665TIP3    H222881   0.785   2.116   6.487
 7666TIP3   OH222882   1.197   1.533   5.282
 7666TIP3    H122883   1.253   1.591   5.334
 7666TIP3    H222884   1.223   1.550   5.191
 7667TIP3   OH222885   0.643   1.737   6.669
 7667TIP3    H122886   0.613   1.823   6.700
 7667TIP3    H222887   0.588   1.719   6.593
 7668TIP3   OH222888   0.920   2.180   5.526
 7668TIP3    H122889   1.000   2.232   5.527
 7668TIP3    H222890   0.860   2.229   5.470
 7669TIP3   OH222891   0.615   2.312   6.640
 7669TIP3    H122892   0.591   2.321   6.548
 7669TIP3    H222893   0.532   2.295   6.685
 7670TIP3   OH222894   1.691   0.743   5.346
 7670TIP3    H122895   1.612   0.761   5.396
 7670TIP3    H222896   1.701   0.819   5.289
 7671TIP3   OH222897   0.474   1.498   5.657
 7671TIP3    H122898   0.383   1.517   5.632
 7671TIP3    H222899   0.479   1.403   5.658
 7672TIP3   OH222900   1.516   2.117   4.885
 7672TIP3    H122901   1.511   2.209   4.861
 7672TIP3    H222902   1.606   2.091   4.862
 7673TIP3   OH222903   0.100   2.089   6.181
 7673TIP3    H122904   0.144   2.004   6.181
 7673TIP3    H222905   0.144   2.139   6.249
 7674TIP3   OH222906   1.928   2.532   6.275
 7674TIP3    H122907   1.934   2.437   6.285
 7674TIP3    H222908   1.848   2.556   6.322
 7675TIP3   OH222909   1.032   2.307   6.408
 7675TIP3    H122910   1.024   2.399   6.434
 7675TIP3    H222911   0.962   2.263   6.457
 7676TIP3   OH222912   0.803   2.405   5.340
 7676TIP3    H122913   0.752   2.383   5.262
 7676TIP3    H222914   0.766   2.489   5.370
 7677TIP3   OH222915   0.255   2.262   5.740
 7677TIP3    H122916   0.296   2.252   5.826
 7677TIP3    H222917   0.200   2.184   5.730
 7678TIP3   OH222918   1.004   2.339   4.984
 7678TIP3    H122919   1.055   2.267   4.949
 7678TIP3    H222920   1.037   2.351   5.073
 7679TIP3   OH222921   1.060   2.389   5.251
 7679TIP3    H122922   0.972   2.388   5.288
 7679TIP3    H222923   1.115   2.347   5.317
 7680TIP3   OH222924   1.813   1.634   6.545
 7680TIP3    H122925   1.734   1.648   6.493
 7680TIP3    H222926   1.834   1.542   6.533
 7681TIP3   OH222927   0.434   2.056   6.553
 7681TIP3    H122928   0.486   2.049   6.633
 7681TIP3    H222929   0.352   2.012   6.574
 7682TIP3   OH222930   1.386   0.991   6.574
 7682TIP3    H122931   1.465   0.960   6.619
 7682TIP3    H222932   1.318   0.990   6.641
 7683TIP3   OH222933   1.585   1.419   6.460
 7683TIP3    H122934   1.547   1.416   6.548
 7683TIP3    H222935   1.566   1.507   6.428
 7684TIP3   OH222936   1.264   1.575   5.024
 7684TIP3    H122937   1.220   1.555   4.942
 7684TIP3    H222938   1.353   1.600   4.998
 7685TIP3   OH222939   0.989   0.939   5.374
 7685TIP3    H122940   0.927   0.951   5.446
 7685TIP3    H222941   0.935   0.923   5.297
 7686TIP3   OH222942   0.812   1.422   6.374
 7686TIP3    H122943   0.808   1.455   6.464
 7686TIP3    H222944   0.755   1.481   6.325
 7687TIP3   OH222945   0.719   1.244   5.947
 7687TIP3    H122946   0.638   1.213   5.987
 7687TIP3    H222947   0.698   1.252   5.854
 7688TIP3   OH222948   1.128   1.373   5.609
 7688TIP3    H122949   1.077   1.444   5.570
 7688TIP3    H222950   1.186   1.345   5.539
 7689TIP3   OH222951   1.310   1.635   6.678
 7689TIP3    H122952   1.283   1.568   6.741
 7689TIP3    H222953   1.403   1.650   6.698
 7690TIP3   OH222954   1.280   1.379   5.838
 7690TIP3    H122955   1.218   1.400   5.769
 7690TIP3    H222956   1.334   1.308   5.801
 7691TIP3   OH222957   1.332   1.629   6.258
 7691TIP3    H122958   1.357   1.563   6.193
 7691TIP3    H222959   1.288   1.579   6.327
 7692TIP3   OH222960   0.983   1.141   5.950
 7692TIP3    H122961   0.891   1.166   5.962
 7692TIP3    H222962   1.025   1.164   6.033
 7693TIP3   OH222963   0.668   1.259   5.681
 7693TIP3    H122964   0.760   1.254   5.655
 7693TIP3    H222965   0.625   1.190   5.630
 7694TIP3   OH222966   1.459   1.170   6.157
 7694TIP3    H122967   1.434   1.186   6.249
 7694TIP3    H222968   1.393   1.109   6.125
 7695TIP3   OH222969   0.396   1.215   5.384
 7695TIP3    H122970   0.332   1.189   5.317
 7695TIP3    H222971   0.465   1.259   5.334
 7696TIP3   OH222972   1.642   2.869   6.366
 7696TIP3    H122973   1.639   2.884   6.272
 7696TIP3    H222974   1.722   2.914   6.395
 7697TIP3   OH222975   0.579   1.987   6.789
 7697TIP3    H122976   0.666   2.003   6.825
 7697TIP3    H222977   0.520   1.997   6.863
 7698TIP3   OH222978   1.068   1.478   6.011
 7698TIP3    H122979   1.132   1.429   5.958
 7698TIP3    H222980   1.067   1.432   6.095
 7699TIP3   OH222981   1.052   1.361   6.256
 7699TIP3    H122982   0.965   1.369   6.295
 7699TIP3    H222983   1.112   1.388   6.326
 7700TIP3   OH222984   0.765   1.723   5.432
 7700TIP3    H122985   0.684   1.678   5.410
 7700TIP3    H222986   0.747   1.765   5.517
 7701TIP3   OH222987   1.641   1.960   6.028
 7701TIP3    H122988   1.677   2.009   5.954
 7701TIP3    H222989   1.562   1.919   5.993
 7702TIP3   OH222990   1.243   1.034   5.345
 7702TIP3    H122991   1.149   1.016   5.352
 7702TIP3    H222992   1.250   1.129   5.353
 7703TIP3   OH222993   1.164   2.053   6.437
 7703TIP3    H122994   1.208   2.045   6.521
 7703TIP3    H222995   1.119   2.137   6.441
 7704TIP3   OH222996   1.295   1.298   5.399
 7704TIP3    H122997   1.390   1.306   5.408
 7704TIP3    H222998   1.270   1.370   5.341
 7705TIP3   OH222999   0.474   1.753   6.084
 7705TIP3    H123000   0.494   1.724   5.995
 7705TIP3    H223001   0.533   1.703   6.140
 7706TIP3   OH223002   0.910   1.869   5.256
 7706TIP3    H123003   0.863   1.953   5.252
 7706TIP3    H223004   0.856   1.815   5.314
 7707TIP3   OH223005   1.090   1.803   6.707
 7707TIP3    H123006   1.035   1.784   6.631
 7707TIP3    H223007   1.170   1.753   6.692
 7708TIP3   OH223008   1.304   2.334   6.328
 7708TIP3    H123009   1.210   2.318   6.331
 7708TIP3    H223010   1.326   2.368   6.415
 7709TIP3   OH223011   1.695   1.380   5.217
 7709TIP3    H123012   1.643   1.334   5.152
 7709TIP3    H223013   1.699   1.470   5.185
 7710TIP3   OH223014   1.948   2.256   6.295
 7710TIP3    H123015   1.855   2.233   6.295
 7710TIP3    H223016   1.981   2.221   6.212
 7711TIP3   OH223017   1.427   2.181   5.147
 7711TIP3    H123018   1.401   2.106   5.201
 7711TIP3    H223019   1.452   2.142   5.063
 7712TIP3   OH223020   1.418   1.825   5.921
 7712TIP3    H123021   1.329   1.804   5.948
 7712TIP3    H223022   1.451   1.744   5.882
 7713TIP3   OH223023   0.563   2.065   5.745
 7713TIP3    H123024   0.557   2.140   5.687
 7713TIP3    H223025   0.473   2.047   5.771
 7714TIP3   OH223026   0.679   1.830   5.663
 7714TIP3    H123027   0.647   1.917   5.688
 7714TIP3    H223028   0.649   1.773   5.733
 7715TIP3   OH223029   0.849   2.379   6.200
 7715TIP3    H123030   0.884   2.452   6.150
 7715TIP3    H223031   0.923   2.345   6.249
 7716TIP3   OH223032   0.483   2.286   5.591
 7716TIP3    H123033   0.397   2.286   5.634
 7716TIP3    H223034   0.512   2.377   5.595
 7717TIP3   OH223035   1.196   2.050   6.162
 7717TIP3    H123036   1.187   2.047   6.258
 7717TIP3    H223037   1.259   1.981   6.142
 7718TIP3   OH223038   1.197   1.927   5.035
 7718TIP3    H123039   1.245   1.907   5.115
 7718TIP3    H223040   1.117   1.876   5.042
 7719TIP3   OH223041   1.459   2.539   6.207
 7719TIP3    H123042   1.389   2.477   6.228
 7719TIP3    H223043   1.423   2.593   6.136
 7720TIP3   OH223044   1.509   2.387   4.835
 7720TIP3    H123045   1.518   2.443   4.757
 7720TIP3    H223046   1.442   2.432   4.888
 7721TIP3   OH223047   1.372   1.873   5.245
 7721TIP3    H123048   1.355   1.811   5.316
 7721TIP3    H223049   1.467   1.871   5.232
 7722TIP3   OH223050   0.260   2.258   6.348
 7722TIP3    H123051   0.323   2.204   6.396
 7722TIP3    H223052   0.278   2.347   6.376
 7723TIP3   OH223053   0.568   1.901   5.051
 7723TIP3    H123054   0.567   1.809   5.024
 7723TIP3    H223055   0.535   1.901   5.140
 7724TIP3   OH223056   0.481   1.907   5.315
 7724TIP3    H123057   0.535   1.865   5.382
 7724TIP3    H223058   0.492   2.001   5.330
 7725TIP3   OH223059   0.239   1.595   5.553
 7725TIP3    H123060   0.176   1.649   5.600
 7725TIP3    H223061   0.255   1.643   5.471
 7726TIP3   OH223062   1.390   1.223   6.420
 7726TIP3    H123063   1.471   1.270   6.443
 7726TIP3    H223064   1.392   1.145   6.475
 7727TIP3   OH223065   1.292   0.989   5.618
 7727TIP3    H123066   1.269   1.006   5.527
 7727TIP3    H223067   1.339   1.067   5.646
 7728TIP3   OH223068   0.769   2.102   5.249
 7728TIP3    H123069   0.686   2.117   5.294
 7728TIP3    H223070   0.777   2.175   5.188
 7729TIP3   OH223071   0.941   1.187   5.680
 7729TIP3    H123072   1.004   1.251   5.647
 7729TIP3    H223073   0.958   1.182   5.774
 7730TIP3   OH223074   1.234   1.460   6.451
 7730TIP3    H123075   1.250   1.502   6.535
 7730TIP3    H223076   1.281   1.377   6.456
 7731TIP3   OH223077   1.101   0.923   5.810
 7731TIP3    H123078   1.067   1.003   5.850
 7731TIP3    H223079   1.168   0.953   5.749
 7732TIP3   OH223080   0.522   2.175   5.345
 7732TIP3    H123081   0.488   2.241   5.284
 7732TIP3    H223082   0.509   2.214   5.432
 7733TIP3   OH223083   1.848   1.359   6.449
 7733TIP3    H123084   1.754   1.371   6.459
 7733TIP3    H223085   1.857   1.308   6.368
 7734TIP3   OH223086   1.508   1.565   5.836
 7734TIP3    H123087   1.430   1.512   5.848
 7734TIP3    H223088   1.573   1.525   5.894
 7735TIP3   OH223089   0.242   1.767   5.323
 7735TIP3    H123090   0.313   1.831   5.330
 7735TIP3    H223091   0.273   1.703   5.259
 7736TIP3   OH223092   1.488   2.539   5.781
 7736TIP3    H123093   1.447   2.594   5.714
 7736TIP3    H223094   1.582   2.550   5.768
 7737TIP3   OH223095   0.067   2.064   5.704
 7737TIP3    H123096   0.012   2.091   5.778
 7737TIP3    H223097   0.016   2.089   5.627
 7738TIP3   OH223098   0.260   2.620   6.755
 7738TIP3    H123099   0.337   2.614   6.811
 7738TIP3    H223100   0.205   2.547   6.782
 7739TIP3   OH223101   0.733   2.483   6.821
 7739TIP3    H123102   0.825   2.458   6.825
 7739TIP3    H223103   0.695   2.424   6.755
 7740TIP3   OH223104   0.685   2.103   4.918
 7740TIP3    H123105   0.648   2.033   4.971
 7740TIP3    H223106   0.764   2.064   4.879
 7741TIP3   OH223107   1.360   2.427   6.580
 7741TIP3    H123108   1.377   2.358   6.644
 7741TIP3    H223109   1.432   2.488   6.591
 7742TIP3   OH223110   1.137   2.133   4.864
 7742TIP3    H123111   1.173   2.069   4.925
 7742TIP3    H223112   1.194   2.127   4.787
 7743TIP3   OH223113   0.373   1.588   5.165
 7743TIP3    H123114   0.425   1.582   5.245
 7743TIP3    H223115   0.436   1.605   5.096
 7744TIP3   OH223116   1.008   2.070   6.740
 7744TIP3    H123117   0.957   2.088   6.661
 7744TIP3    H223118   1.045   1.983   6.725
 7745TIP3   OH223119   0.944   1.801   4.994
 7745TIP3    H123120   0.921   1.816   5.086
 7745TIP3    H223121   0.917   1.711   4.977
 7746TIP3   OH223122   1.477   2.111   6.367
 7746TIP3    H123123   1.553   2.137   6.314
 7746TIP3    H223124   1.410   2.176   6.347
 7747TIP3   OH223125   0.525   1.592   5.398
 7747TIP3    H123126   0.510   1.560   5.487
 7747TIP3    H223127   0.582   1.527   5.358
 7748TIP3   OH223128   0.841   1.557   6.618
 7748TIP3    H123129   0.767   1.609   6.650
 7748TIP3    H223130   0.892   1.618   6.565
 7749TIP3   OH223131   0.688   1.442   5.251
 7749TIP3    H123132   0.655   1.374   5.192
 7749TIP3    H223133   0.781   1.451   5.226
 7750TIP3   OH223134   1.361   1.985   6.716
 7750TIP3    H123135   1.420   1.941   6.654
 7750TIP3    H223136   1.350   1.922   6.787
 7751TIP3   OH223137   1.496   1.640   4.887
 7751TIP3    H123138   1.478   1.596   4.804
 7751TIP3    H223139   1.468   1.730   4.872
 7752TIP3   OH223140   0.997   1.378   6.757
 7752TIP3    H123141   0.959   1.299   6.720
 7752TIP3    H223142   0.945   1.449   6.720
 7753TIP3   OH223143   0.978   1.736   6.462
 7753TIP3    H123144   1.054   1.720   6.405
 7753TIP3    H223145   0.917   1.785   6.407
 7754TIP3   OH223146   1.574   1.671   6.783
 7754TIP3    H123147   1.619   1.588   6.765
 7754TIP3    H223148   1.641   1.737   6.769
 7755TIP3   OH223149   1.590   1.926   6.528
 7755TIP3    H123150   1.539   1.990   6.480
 7755TIP3    H223151   1.680   1.939   6.497
 7756TIP3   OH223152   1.253   1.426   6.843
 7756TIP3    H123153   1.267   1.404   6.935
 7756TIP3    H223154   1.161   1.406   6.827
 7757TIP3   OH223155   1.487   1.383   6.706
 7757TIP3    H123156   1.406   1.388   6.757
 7757TIP3    H223157   1.554   1.356   6.768
 7758TIP3   OH223158   1.702   1.336   6.872
 7758TIP3    H123159   1.717   1.242   6.880
 7758TIP3    H223160   1.685   1.365   6.962
 7759TIP3   OH223161   0.457   2.358   5.149
 7759TIP3    H123162   0.540   2.366   5.102
 7759TIP3    H223163   0.392   2.342   5.081
 7760TIP3   OH223164   9.772   1.777   5.356
 7760TIP3    H123165   9.867   1.782   5.349
 7760TIP3    H223166   9.755   1.686   5.381
 7761TIP3   OH223167   9.664   2.401   5.779
 7761TIP3    H123168   9.568   2.401   5.787
 7761TIP3    H223169   9.693   2.340   5.846
 7762TIP3   OH223170   9.777   2.219   5.959
 7762TIP3    H123171   9.778   2.149   6.024
 7762TIP3    H223172   9.842   2.282   5.989
 7763TIP3   OH223173   1.757   2.594   5.769
 7763TIP3    H123174   1.780   2.625   5.856
 7763TIP3    H223175   1.817   2.639   5.710
 7764TIP3   OH223176   1.771   2.624   6.052
 7764TIP3    H123177   1.726   2.540   6.044
 7764TIP3    H223178   1.841   2.607   6.115
 7765TIP3   OH223179   1.838   2.319   6.624
 7765TIP3    H123180   1.762   2.330   6.681
 7765TIP3    H223181   1.882   2.403   6.626
 7766TIP3   OH223182   1.649   1.844   5.232
 7766TIP3    H123183   1.707   1.913   5.200
 7766TIP3    H223184   1.696   1.805   5.306
 7767TIP3   OH223185   1.782   1.700   5.431
 7767TIP3    H123186   1.715   1.662   5.487
 7767TIP3    H223187   1.847   1.736   5.491
 7768TIP3   OH223188   1.829   2.093   5.868
 7768TIP3    H123189   1.878   2.022   5.826
 7768TIP3    H223190   1.833   2.165   5.804
 7769TIP3   OH223191   1.634   2.379   6.062
 7769TIP3    H123192   1.567   2.426   6.112
 7769TIP3    H223193   1.587   2.340   5.989
 7770TIP3   OH223194   1.689   1.618   5.080
 7770TIP3    H123195   1.622   1.618   5.011
 7770TIP3    H223196   1.670   1.697   5.132
 7771TIP3   OH223197   1.561   1.265   5.011
 7771TIP3    H123198   1.496   1.291   4.945
 7771TIP3    H223199   1.560   1.169   5.009
 7772TIP3   OH223200   1.580   1.562   5.568
 7772TIP3    H123201   1.585   1.468   5.550
 7772TIP3    H223202   1.560   1.567   5.662
 7773TIP3   OH223203   1.845   1.968   6.427
 7773TIP3    H123204   1.914   1.904   6.409
 7773TIP3    H223205   1.840   2.022   6.349
 7774TIP3   OH223206   2.028   1.759   6.426
 7774TIP3    H123207   1.954   1.720   6.471
 7774TIP3    H223208   2.102   1.703   6.448
 7775TIP3   OH223209   1.543   0.993   5.018
 7775TIP3    H123210   1.612   0.971   5.080
 7775TIP3    H223211   1.463   0.961   5.059
 7776TIP3   OH223212   1.581   1.287   5.458
 7776TIP3    H123213   1.622   1.201   5.469
 7776TIP3    H223214   1.621   1.323   5.379
 7777TIP3   OH223215   1.725   1.446   5.983
 7777TIP3    H123216   1.805   1.464   5.934
 7777TIP3    H223217   1.739   1.487   6.068
 7778TIP3   OH223218   1.797   1.596   6.209
 7778TIP3    H123219   1.721   1.625   6.261
 7778TIP3    H223220   1.826   1.676   6.165
 7779TIP3   OH223221   2.250   1.196   6.745
 7779TIP3    H123222   2.316   1.140   6.704
 7779TIP3    H223223   2.210   1.243   6.671
 7780TIP3   OH223224   1.682   1.031   5.512
 7780TIP3    H123225   1.731   1.017   5.594
 7780TIP3    H223226   1.621   0.957   5.509
 7781TIP3   OH223227   2.101   1.294   6.537
 7781TIP3    H123228   2.014   1.334   6.533
 7781TIP3    H223229   2.091   1.212   6.490
 7782TIP3   OH223230   1.765   0.945   5.173
 7782TIP3    H123231   1.823   0.892   5.119
 7782TIP3    H223232   1.806   1.032   5.173
 7783TIP3   OH223233   1.303   2.522   5.413
 7783TIP3    H123234   1.356   2.497   5.337
 7783TIP3    H223235   1.359   2.581   5.463
 7784TIP3   OH223236   0.383   2.275   6.813
 7784TIP3    H123237   0.288   2.291   6.818
 7784TIP3    H223238   0.407   2.251   6.902
 7785TIP3   OH223239   0.621   2.338   6.351
 7785TIP3    H123240   0.572   2.414   6.320
 7785TIP3    H223241   0.706   2.345   6.308
 7786TIP3   OH223242   1.020   2.575   6.480
 7786TIP3    H123243   1.057   2.569   6.569
 7786TIP3    H223244   1.082   2.629   6.432
 7787TIP3   OH223245   1.211   2.731   6.357
 7787TIP3    H123246   1.273   2.679   6.307
 7787TIP3    H223247   1.266   2.790   6.409
 7788TIP3   OH223248   2.027   1.040   6.445
 7788TIP3    H123249   1.938   1.021   6.413
 7788TIP3    H223250   2.073   0.957   6.438
 7789TIP3   OH223251   0.305   2.531   6.406
 7789TIP3    H123252   0.213   2.556   6.403
 7789TIP3    H223253   0.341   2.580   6.480
 7790TIP3   OH223254   0.523   2.572   6.239
 7790TIP3    H123255   0.438   2.564   6.282
 7790TIP3    H223256   0.502   2.594   6.148
 7791TIP3   OH223257   0.926   2.590   6.036
 7791TIP3    H123258   0.856   2.601   5.972
 7791TIP3    H223259   0.934   2.677   6.077
 7792TIP3   OH223260   1.190   2.530   6.086
 7792TIP3    H123261   1.098   2.548   6.066
 7792TIP3    H223262   1.239   2.597   6.038
 7793TIP3   OH223263   1.389   2.700   5.982
 7793TIP3    H123264   1.392   2.787   5.943
 7793TIP3    H223265   1.422   2.641   5.913
 7794TIP3   OH223266   0.181   2.367   6.092
 7794TIP3    H123267   0.178   2.336   6.182
 7794TIP3    H223268   0.257   2.324   6.053
 7795TIP3   OH223269   0.398   2.253   5.974
 7795TIP3    H123270   0.411   2.172   6.023
 7795TIP3    H223271   0.484   2.295   5.975
 7796TIP3   OH223272   0.668   2.338   5.990
 7796TIP3    H123273   0.687   2.246   5.973
 7796TIP3    H223274   0.718   2.358   6.069
 7797TIP3   OH223275   1.268   0.996   6.060
 7797TIP3    H123276   1.187   0.958   6.027
 7797TIP3    H223277   1.336   0.958   6.005
 7798TIP3   OH223278   1.731   0.902   5.965
 7798TIP3    H123279   1.768   0.951   5.892
 7798TIP3    H223280   1.636   0.914   5.957
 7799TIP3   OH223281   1.845   0.982   5.731
 7799TIP3    H123282   1.917   0.923   5.706
 7799TIP3    H223283   1.881   1.070   5.719
 7800TIP3   OH223284   1.459   0.867   5.913
 7800TIP3    H123285   1.454   0.831   5.825
 7800TIP3    H223286   1.445   0.792   5.971
 7801TIP3   OH223287   1.500   0.814   5.553
 7801TIP3    H123288   1.424   0.868   5.575
 7801TIP3    H223289   1.484   0.730   5.597
 7802TIP3   OH223290   9.717   2.138   5.480
 7802TIP3    H123291   9.653   2.089   5.429
 7802TIP3    H223292   9.714   2.226   5.443
 7803TIP3   OH223293   0.879   0.923   5.634
 7803TIP3    H123294   0.949   0.891   5.690
 7803TIP3    H223295   0.883   1.018   5.642
 7804TIP3   OH223296   0.738   2.323   5.070
 7804TIP3    H123297   0.824   2.347   5.037
 7804TIP3    H223298   0.710   2.251   5.013
 7805TIP3   OH223299   1.457   2.449   5.194
 7805TIP3    H123300   1.452   2.354   5.185
 7805TIP3    H223301   1.422   2.482   5.111
 7806TIP3   OH223302   0.007   2.183   5.117
 7806TIP3    H123303   0.028   2.156   5.207
 7806TIP3    H223304   0.091   2.199   5.076
 7807TIP3   OH223305   1.768   1.071   6.882
 7807TIP3    H123306   1.784   1.032   6.968
 7807TIP3    H223307   1.850   1.060   6.834
 7808TIP3   OH223308   1.677   2.595   6.373
 7808TIP3    H123309   1.604   2.565   6.319
 7808TIP3    H223310   1.665   2.690   6.379
 7809TIP3   OH223311   3.001   1.998   5.097
 7809TIP3    H123312   3.024   2.086   5.069
 7809TIP3    H223313   2.907   1.990   5.080
 7810TIP3   OH223314   2.928   1.968   5.550
 7810TIP3    H123315   2.989   1.952   5.622
 7810TIP3    H223316   2.891   1.882   5.530
 7811TIP3   OH223317   2.253   1.837   5.882
 7811TIP3    H123318   2.294   1.783   5.950
 7811TIP3    H223319   2.325   1.860   5.824
 7812TIP3   OH223320   3.250   2.253   5.254
 7812TIP3    H123321   3.216   2.246   5.165
 7812TIP3    H223322   3.259   2.347   5.269
 7813TIP3   OH223323   2.239   2.262   5.575
 7813TIP3    H123324   2.221   2.168   5.573
 7813TIP3    H223325   2.333   2.269   5.560
 7814TIP3   OH223326   1.930   1.472   5.355
 7814TIP3    H123327   1.893   1.557   5.377
 7814TIP3    H223328   1.858   1.425   5.313
 7815TIP3   OH223329   2.010   1.780   5.576
 7815TIP3    H123330   2.061   1.702   5.598
 7815TIP3    H223331   2.076   1.845   5.550
 7816TIP3   OH223332   2.892   2.697   5.214
 7816TIP3    H123333   2.900   2.632   5.145
 7816TIP3    H223334   2.901   2.648   5.296
 7817TIP3   OH223335   2.758   2.197   5.544
 7817TIP3    H123336   2.801   2.114   5.524
 7817TIP3    H223337   2.830   2.257   5.567
 7818TIP3   OH223338   3.801   1.514   5.559
 7818TIP3    H123339   3.814   1.599   5.601
 7818TIP3    H223340   3.821   1.530   5.467
 7819TIP3   OH223341   3.169   1.690   5.568
 7819TIP3    H123342   3.202   1.605   5.596
 7819TIP3    H223343   3.124   1.673   5.485
 7820TIP3   OH223344   2.525   1.339   5.532
 7820TIP3    H123345   2.504   1.413   5.475
 7820TIP3    H223346   2.471   1.267   5.500
 7821TIP3   OH223347   3.216   1.449   5.183
 7821TIP3    H123348   3.280   1.443   5.255
 7821TIP3    H223349   3.265   1.489   5.111
 7822TIP3   OH223350   2.148   1.555   5.666
 7822TIP3    H123351   2.232   1.536   5.707
 7822TIP3    H223352   2.150   1.504   5.585
 7823TIP3   OH223353   2.565   1.754   5.484
 7823TIP3    H123354   2.659   1.739   5.488
 7823TIP3    H223355   2.529   1.673   5.448
 7824TIP3   OH223356   3.848   1.735   5.725
 7824TIP3    H123357   3.764   1.780   5.713
 7824TIP3    H223358   3.885   1.775   5.804
 7825TIP3   OH223359   2.503   1.350   5.987
 7825TIP3    H123360   2.456   1.385   5.912
 7825TIP3    H223361   2.445   1.368   6.062
 7826TIP3   OH223362   2.595   2.121   5.753
 7826TIP3    H123363   2.542   2.193   5.786
 7826TIP3    H223364   2.645   2.158   5.680
 7827TIP3   OH223365   3.384   1.457   5.402
 7827TIP3    H123366   3.335   1.443   5.483
 7827TIP3    H223367   3.438   1.535   5.419
 7828TIP3   OH223368   2.398   1.451   5.753
 7828TIP3    H123369   2.452   1.527   5.773
 7828TIP3    H223370   2.443   1.408   5.680
 7829TIP3   OH223371   2.442   2.326   5.858
 7829TIP3    H123372   2.429   2.415   5.825
 7829TIP3    H223373   2.364   2.308   5.909
 7830TIP3   OH223374   1.821   2.030   5.112
 7830TIP3    H123375   1.789   2.047   5.023
 7830TIP3    H223376   1.843   2.116   5.146
 7831TIP3   OH223377   3.264   2.533   5.355
 7831TIP3    H123378   3.175   2.522   5.388
 7831TIP3    H223379   3.262   2.616   5.308
 7832TIP3   OH223380   3.602   1.393   5.723
 7832TIP3    H123381   3.516   1.418   5.688
 7832TIP3    H223382   3.664   1.424   5.657
 7833TIP3   OH223383   2.837   1.033   5.713
 7833TIP3    H123384   2.810   0.942   5.720
 7833TIP3    H223385   2.766   1.082   5.754
 7834TIP3   OH223386   2.941   2.521   5.002
 7834TIP3    H123387   2.983   2.435   4.995
 7834TIP3    H223388   3.011   2.583   4.980
 7835TIP3   OH223389   3.503   2.408   5.698
 7835TIP3    H123390   3.482   2.337   5.638
 7835TIP3    H223391   3.488   2.488   5.646
 7836TIP3   OH223392   2.784   1.836   4.960
 7836TIP3    H123393   2.702   1.881   4.941
 7836TIP3    H223394   2.828   1.830   4.875
 7837TIP3   OH223395   2.744   1.626   4.644
 7837TIP3    H123396   2.807   1.675   4.697
 7837TIP3    H223397   2.796   1.558   4.602
 7838TIP3   OH223398   3.671   2.083   5.558
 7838TIP3    H123399   3.587   2.129   5.555
 7838TIP3    H223400   3.705   2.087   5.469
 7839TIP3   OH223401   3.153   1.867   4.913
 7839TIP3    H123402   3.102   1.912   4.980
 7839TIP3    H223403   3.238   1.851   4.953
 7840TIP3   OH223404   3.365   1.938   5.867
 7840TIP3    H123405   3.360   2.022   5.914
 7840TIP3    H223406   3.284   1.934   5.816
 7841TIP3   OH223407   2.366   1.887   5.329
 7841TIP3    H123408   2.331   1.827   5.263
 7841TIP3    H223409   2.440   1.840   5.368
 7842TIP3   OH223410   2.501   2.308   5.475
 7842TIP3    H123411   2.480   2.299   5.382
 7842TIP3    H223412   2.589   2.272   5.484
 7843TIP3   OH223413   2.463   1.886   5.704
 7843TIP3    H123414   2.501   1.849   5.624
 7843TIP3    H223415   2.511   1.967   5.719
 7844TIP3   OH223416   3.018   2.529   5.477
 7844TIP3    H123417   3.009   2.605   5.534
 7844TIP3    H223418   3.008   2.454   5.535
 7845TIP3   OH223419   2.640   2.422   6.027
 7845TIP3    H123420   2.579   2.479   6.073
 7845TIP3    H223421   2.586   2.371   5.967
 7846TIP3   OH223422   2.964   1.760   4.750
 7846TIP3    H123423   3.027   1.808   4.803
 7846TIP3    H223424   2.995   1.770   4.660
 7847TIP3   OH223425   2.391   1.962   6.184
 7847TIP3    H123426   2.395   2.057   6.193
 7847TIP3    H223427   2.298   1.944   6.172
 7848TIP3   OH223428   2.652   2.507   5.061
 7848TIP3    H123429   2.745   2.491   5.048
 7848TIP3    H223430   2.626   2.560   4.986
 7849TIP3   OH223431   2.430   2.579   6.112
 7849TIP3    H123432   2.407   2.591   6.020
 7849TIP3    H223433   2.346   2.566   6.156
 7850TIP3   OH223434   3.480   0.996   4.815
 7850TIP3    H123435   3.404   1.016   4.870
 7850TIP3    H223436   3.490   1.073   4.760
 7851TIP3   OH223437   2.244   1.730   5.127
 7851TIP3    H123438   2.167   1.778   5.099
 7851TIP3    H223439   2.213   1.640   5.138
 7852TIP3   OH223440   3.314   2.392   4.368
 7852TIP3    H123441   3.298   2.486   4.361
 7852TIP3    H223442   3.408   2.383   4.358
 7853TIP3   OH223443   2.027   2.137   6.063
 7853TIP3    H123444   1.958   2.120   5.999
 7853TIP3    H223445   2.060   2.050   6.086
 7854TIP3   OH223446   1.892   2.317   5.706
 7854TIP3    H123447   1.987   2.323   5.694
 7854TIP3    H223448   1.868   2.398   5.751
 7855TIP3   OH223449   3.727   2.792   5.764
 7855TIP3    H123450   3.733   2.697   5.772
 7855TIP3    H223451   3.647   2.815   5.811
 7856TIP3   OH223452   2.831   2.564   5.890
 7856TIP3    H123453   2.821   2.655   5.917
 7856TIP3    H223454   2.764   2.517   5.939
 7857TIP3   OH223455   2.601   2.674   4.837
 7857TIP3    H123456   2.561   2.650   4.754
 7857TIP3    H223457   2.563   2.759   4.859
 7858TIP3   OH223458   2.041   2.522   5.224
 7858TIP3    H123459   2.088   2.511   5.306
 7858TIP3    H223460   1.995   2.439   5.212
 7859TIP3   OH223461   2.811   2.598   4.471
 7859TIP3    H123462   2.860   2.523   4.438
 7859TIP3    H223463   2.845   2.612   4.559
 7860TIP3   OH223464   2.858   2.640   4.742
 7860TIP3    H123465   2.772   2.644   4.783
 7860TIP3    H223466   2.913   2.595   4.807
 7861TIP3   OH223467   3.609   1.901   6.036
 7861TIP3    H123468   3.530   1.909   5.983
 7861TIP3    H223469   3.631   1.808   6.033
 7862TIP3   OH223470   2.225   2.326   6.029
 7862TIP3    H123471   2.275   2.312   6.109
 7862TIP3    H223472   2.153   2.263   6.035
 7863TIP3   OH223473   2.612   1.137   5.845
 7863TIP3    H123474   2.530   1.099   5.812
 7863TIP3    H223475   2.585   1.217   5.889
 7864TIP3   OH223476   3.147   1.248   6.041
 7864TIP3    H123477   3.215   1.225   6.103
 7864TIP3    H223478   3.065   1.233   6.088
 7865TIP3   OH223479   3.374   1.673   5.958
 7865TIP3    H123480   3.333   1.670   6.045
 7865TIP3    H223481   3.356   1.761   5.926
 7866TIP3   OH223482   3.057   1.767   4.492
 7866TIP3    H123483   3.007   1.768   4.411
 7866TIP3    H223484   3.136   1.817   4.473
 7867TIP3   OH223485   2.762   1.170   4.812
 7867TIP3    H123486   2.723   1.177   4.900
 7867TIP3    H223487   2.723   1.090   4.776
 7868TIP3   OH223488   2.548   1.664   5.849
 7868TIP3    H123489   2.504   1.672   5.933
 7868TIP3    H223490   2.527   1.745   5.803
 7869TIP3   OH223491   2.426   1.541   5.375
 7869TIP3    H123492   2.337   1.516   5.400
 7869TIP3    H223493   2.435   1.510   5.285
 7870TIP3   OH223494   2.897   1.626   5.100
 7870TIP3    H123495   2.857   1.705   5.062
 7870TIP3    H223496   2.956   1.594   5.032
 7871TIP3   OH223497   3.094   1.881   6.171
 7871TIP3    H123498   3.069   1.813   6.234
 7871TIP3    H223499   3.187   1.897   6.189
 7872TIP3   OH223500   3.040   1.614   5.337
 7872TIP3    H123501   2.983   1.642   5.265
 7872TIP3    H223502   3.103   1.555   5.297
 7873TIP3   OH223503   2.390   1.681   6.073
 7873TIP3    H123504   2.400   1.746   6.143
 7873TIP3    H223505   2.369   1.600   6.119
 7874TIP3   OH223506   2.428   1.154   4.790
 7874TIP3    H123507   2.417   1.157   4.885
 7874TIP3    H223508   2.353   1.202   4.755
 7875TIP3   OH223509   1.975   1.205   5.658
 7875TIP3    H123510   2.052   1.235   5.706
 7875TIP3    H223511   2.008   1.182   5.571
 7876TIP3   OH223512   1.891   1.191   5.167
 7876TIP3    H123513   1.932   1.220   5.086
 7876TIP3    H223514   1.825   1.257   5.186
 7877TIP3   OH223515   3.110   1.882   5.752
 7877TIP3    H123516   3.137   1.819   5.684
 7877TIP3    H223517   3.068   1.828   5.819
 7878TIP3   OH223518   2.793   1.331   5.422
 7878TIP3    H123519   2.715   1.331   5.477
 7878TIP3    H223520   2.866   1.327   5.483
 7879TIP3   OH223521   2.188   1.414   5.435
 7879TIP3    H123522   2.100   1.420   5.397
 7879TIP3    H223523   2.216   1.324   5.416
 7880TIP3   OH223524   2.440   1.420   5.129
 7880TIP3    H123525   2.535   1.432   5.119
 7880TIP3    H223526   2.405   1.439   5.042
 7881TIP3   OH223527   3.231   1.427   5.634
 7881TIP3    H123528   3.212   1.444   5.727
 7881TIP3    H223529   3.162   1.366   5.607
 7882TIP3   OH223530   2.330   1.446   4.881
 7882TIP3    H123531   2.268   1.398   4.826
 7882TIP3    H223532   2.384   1.495   4.819
 7883TIP3   OH223533   3.437   3.125   5.852
 7883TIP3    H123534   3.434   3.139   5.758
 7883TIP3    H223535   3.515   3.173   5.881
 7884TIP3   OH223536   2.374   2.232   6.264
 7884TIP3    H123537   2.455   2.255   6.310
 7884TIP3    H223538   2.306   2.244   6.330
 7885TIP3   OH223539   2.837   1.697   5.527
 7885TIP3    H123540   2.903   1.656   5.471
 7885TIP3    H223541   2.842   1.648   5.609
 7886TIP3   OH223542   2.334   1.167   5.415
 7886TIP3    H123543   2.310   1.090   5.467
 7886TIP3    H223544   2.354   1.132   5.328
 7887TIP3   OH223545   2.813   1.596   5.795
 7887TIP3    H123546   2.727   1.632   5.814
 7887TIP3    H223547   2.873   1.650   5.847
 7888TIP3   OH223548   2.547   1.968   4.898
 7888TIP3    H123549   2.473   1.912   4.876
 7888TIP3    H223550   2.524   2.007   4.983
 7889TIP3   OH223551   3.431   2.209   5.523
 7889TIP3    H123552   3.442   2.253   5.439
 7889TIP3    H223553   3.347   2.163   5.515
 7890TIP3   OH223554   3.013   1.274   4.813
 7890TIP3    H123555   2.920   1.251   4.812
 7890TIP3    H223556   3.014   1.368   4.830
 7891TIP3   OH223557   2.959   2.298   5.918
 7891TIP3    H123558   3.013   2.294   5.997
 7891TIP3    H223559   2.919   2.385   5.921
 7892TIP3   OH223560   3.064   1.536   4.890
 7892TIP3    H123561   3.159   1.544   4.904
 7892TIP3    H223562   3.042   1.612   4.837
 7893TIP3   OH223563   2.232   1.971   5.556
 7893TIP3    H123564   2.269   1.954   5.469
 7893TIP3    H223565   2.300   1.944   5.617
 7894TIP3   OH223566   2.695   2.112   4.710
 7894TIP3    H123567   2.662   2.200   4.726
 7894TIP3    H223568   2.653   2.057   4.776
 7895TIP3   OH223569   2.116   1.899   6.196
 7895TIP3    H123570   2.115   1.870   6.287
 7895TIP3    H223571   2.041   1.856   6.156
 7896TIP3   OH223572   2.865   2.039   6.215
 7896TIP3    H123573   2.795   1.982   6.183
 7896TIP3    H223574   2.946   1.999   6.183
 7897TIP3   OH223575   3.103   2.590   5.816
 7897TIP3    H123576   3.008   2.576   5.818
 7897TIP3    H223577   3.123   2.625   5.903
 7898TIP3   OH223578   3.477   1.629   4.712
 7898TIP3    H123579   3.425   1.599   4.637
 7898TIP3    H223580   3.471   1.725   4.708
 7899TIP3   OH223581   3.745   2.517   5.781
 7899TIP3    H123582   3.653   2.490   5.782
 7899TIP3    H223583   3.780   2.480   5.700
 7900TIP3   OH223584   3.203   2.454   4.645
 7900TIP3    H123585   3.183   2.393   4.716
 7900TIP3    H223586   3.236   2.398   4.574
 7901TIP3   OH223587   3.183   2.094   5.472
 7901TIP3    H123588   3.099   2.049   5.464
 7901TIP3    H223589   3.197   2.135   5.386
 7902TIP3   OH223590   2.399   2.326   5.217
 7902TIP3    H123591   2.447   2.391   5.165
 7902TIP3    H223592   2.307   2.347   5.201
 7903TIP3   OH223593   1.927   1.599   4.942
 7903TIP3    H123594   1.969   1.682   4.962
 7903TIP3    H223595   1.846   1.601   4.993
 7904TIP3   OH223596   2.451   2.067   5.132
 7904TIP3    H123597   2.441   2.157   5.162
 7904TIP3    H223598   2.421   2.013   5.205
 7905TIP3   OH223599   2.647   2.635   5.681
 7905TIP3    H123600   2.682   2.708   5.630
 7905TIP3    H223601   2.722   2.601   5.729
 7906TIP3   OH223602   2.267   2.546   5.068
 7906TIP3    H123603   2.183   2.551   5.113
 7906TIP3    H223604   2.305   2.633   5.077
 7907TIP3   OH223605   3.002   2.300   5.641
 7907TIP3    H123606   2.995   2.291   5.736
 7907TIP3    H223607   3.071   2.239   5.616
 7908TIP3   OH223608   2.992   2.177   4.551
 7908TIP3    H123609   3.053   2.144   4.618
 7908TIP3    H223610   2.905   2.165   4.590
 7909TIP3   OH223611   3.258   2.799   5.695
 7909TIP3    H123612   3.186   2.738   5.713
 7909TIP3    H223613   3.225   2.854   5.624
 7910TIP3   OH223614   3.326   2.671   4.353
 7910TIP3    H123615   3.371   2.747   4.317
 7910TIP3    H223616   3.243   2.706   4.385
 7911TIP3   OH223617   2.328   1.429   6.190
 7911TIP3    H123618   2.233   1.440   6.192
 7911TIP3    H223619   2.347   1.374   6.266
 7912TIP3   OH223620   3.191   2.070   4.727
 7912TIP3    H123621   3.175   1.992   4.781
 7912TIP3    H223622   3.178   2.143   4.788
 7913TIP3   OH223623   2.070   2.542   5.846
 7913TIP3    H123624   2.123   2.482   5.899
 7913TIP3    H223625   2.087   2.628   5.883
 7914TIP3   OH223626   2.338   2.144   4.536
 7914TIP3    H123627   2.354   2.053   4.510
 7914TIP3    H223628   2.327   2.140   4.631
 7915TIP3   OH223629   2.289   2.161   4.809
 7915TIP3    H123630   2.362   2.135   4.866
 7915TIP3    H223631   2.288   2.257   4.814
 7916TIP3   OH223632   2.018   1.852   5.021
 7916TIP3    H123633   1.953   1.900   5.072
 7916TIP3    H223634   2.039   1.910   4.948
 7917TIP3   OH223635   3.177   1.484   5.899
 7917TIP3    H123636   3.258   1.526   5.929
 7917TIP3    H223637   3.170   1.405   5.952
 7918TIP3   OH223638   3.077   1.229   5.083
 7918TIP3    H123639   3.056   1.249   4.992
 7918TIP3    H223640   3.117   1.309   5.117
 7919TIP3   OH223641   2.564   2.348   4.751
 7919TIP3    H123642   2.480   2.371   4.791
 7919TIP3    H223643   2.586   2.424   4.697
 7920TIP3   OH223644   2.719   1.428   5.171
 7920TIP3    H123645   2.777   1.500   5.144
 7920TIP3    H223646   2.745   1.408   5.261
 7921TIP3   OH223647   3.015   1.713   5.948
 7921TIP3    H123648   3.044   1.758   6.028
 7921TIP3    H223649   3.068   1.633   5.946
 7922TIP3   OH223650   2.887   1.125   5.255
 7922TIP3    H123651   2.863   1.202   5.307
 7922TIP3    H223652   2.957   1.156   5.198
 7923TIP3   OH223653   2.309   2.434   4.823
 7923TIP3    H123654   2.289   2.504   4.762
 7923TIP3    H223655   2.295   2.472   4.910
 7924TIP3   OH223656   2.398   1.148   5.071
 7924TIP3    H123657   2.386   1.239   5.098
 7924TIP3    H223658   2.493   1.133   5.075
 7925TIP3   OH223659   3.642   1.632   5.948
 7925TIP3    H123660   3.546   1.631   5.955
 7925TIP3    H223661   3.660   1.599   5.860
 7926TIP3   OH223662   3.327   1.782   5.293
 7926TIP3    H123663   3.249   1.811   5.340
 7926TIP3    H223664   3.388   1.755   5.362
 7927TIP3   OH223665   2.044   2.029   4.805
 7927TIP3    H123666   2.117   2.091   4.815
 7927TIP3    H223667   2.074   1.966   4.739
 7928TIP3   OH223668   1.945   1.321   4.932
 7928TIP3    H123669   1.956   1.415   4.939
 7928TIP3    H223670   1.879   1.309   4.863
 7929TIP3   OH223671   3.283   2.802   5.273
 7929TIP3    H123672   3.239   2.845   5.200
 7929TIP3    H223673   3.376   2.811   5.255
 7930TIP3   OH223674   2.355   1.036   5.807
 7930TIP3    H123675   2.328   1.009   5.719
 7930TIP3    H223676   2.363   0.954   5.856
 7931TIP3   OH223677   1.865   2.300   5.194
 7931TIP3    H123678   1.822   2.335   5.272
 7931TIP3    H223679   1.822   2.343   5.121
 7932TIP3   OH223680   2.075   2.836   6.263
 7932TIP3    H123681   2.157   2.839   6.311
 7932TIP3    H223682   2.059   2.743   6.248
 7933TIP3   OH223683   2.538   2.737   6.309
 7933TIP3    H123684   2.630   2.711   6.315
 7933TIP3    H223685   2.503   2.686   6.236
 7934TIP3   OH223686   2.494   2.346   4.429
 7934TIP3    H123687   2.447   2.274   4.473
 7934TIP3    H223688   2.567   2.303   4.385
 7935TIP3   OH223689   3.153   2.685   6.070
 7935TIP3    H123690   3.171   2.614   6.132
 7935TIP3    H223691   3.227   2.745   6.080
 7936TIP3   OH223692   2.934   2.378   4.360
 7936TIP3    H123693   2.969   2.316   4.425
 7936TIP3    H223694   2.996   2.374   4.287
 7937TIP3   OH223695   2.172   2.233   6.457
 7937TIP3    H123696   2.185   2.138   6.468
 7937TIP3    H223697   2.087   2.240   6.414
 7938TIP3   OH223698   2.164   1.839   4.650
 7938TIP3    H123699   2.216   1.817   4.727
 7938TIP3    H223700   2.229   1.853   4.581
 7939TIP3   OH223701   2.794   2.316   6.231
 7939TIP3    H123702   2.752   2.339   6.148
 7939TIP3    H223703   2.833   2.230   6.215
 7940TIP3   OH223704   2.682   2.053   4.444
 7940TIP3    H123705   2.682   2.068   4.538
 7940TIP3    H223706   2.682   1.957   4.435
 7941TIP3   OH223707   3.274   2.368   5.854
 7941TIP3    H123708   3.351   2.390   5.801
 7941TIP3    H223709   3.210   2.435   5.832
 7942TIP3   OH223710   2.291   1.974   6.465
 7942TIP3    H123711   2.356   1.969   6.395
 7942TIP3    H223712   2.340   2.003   6.542
 7943TIP3   OH223713   2.338   1.786   4.862
 7943TIP3    H123714   2.319   1.756   4.951
 7943TIP3    H223715   2.386   1.714   4.822
 7944TIP3   OH223716   2.654   1.864   6.124
 7944TIP3    H123717   2.568   1.904   6.134
 7944TIP3    H223718   2.685   1.894   6.038
 7945TIP3   OH223719   2.476   1.600   4.708
 7945TIP3    H123720   2.444   1.603   4.618
 7945TIP3    H223721   2.571   1.607   4.700
 7946TIP3   OH223722   3.155   2.236   6.201
 7946TIP3    H123723   3.221   2.197   6.142
 7946TIP3    H223724   3.152   2.176   6.276
 7947TIP3   OH223725   3.282   1.901   4.367
 7947TIP3    H123726   3.255   1.857   4.287
 7947TIP3    H223727   3.241   1.987   4.363
 7948TIP3   OH223728   2.757   1.631   6.227
 7948TIP3    H123729   2.760   1.561   6.161
 7948TIP3    H223730   2.724   1.707   6.179
 7949TIP3   OH223731   2.763   1.432   6.024
 7949TIP3    H123732   2.791   1.469   5.941
 7949TIP3    H223733   2.672   1.406   6.010
 7950TIP3   OH223734   2.768   1.965   5.899
 7950TIP3    H123735   2.857   1.994   5.878
 7950TIP3    H223736   2.711   2.022   5.847
 7951TIP3   OH223737   3.363   1.918   6.267
 7951TIP3    H123738   3.406   1.832   6.270
 7951TIP3    H223739   3.434   1.979   6.248
 7952TIP3   OH223740   3.384   2.181   6.016
 7952TIP3    H123741   3.334   2.246   5.966
 7952TIP3    H223742   3.474   2.192   5.986
 7953TIP3   OH223743   2.642   1.709   6.470
 7953TIP3    H123744   2.570   1.648   6.486
 7953TIP3    H223745   2.670   1.691   6.381
 7954TIP3   OH223746   2.882   1.202   6.126
 7954TIP3    H123747   2.845   1.283   6.092
 7954TIP3    H223748   2.814   1.136   6.111
 7955TIP3   OH223749   3.014   1.669   6.328
 7955TIP3    H123750   3.002   1.657   6.422
 7955TIP3    H223751   2.928   1.649   6.290
 7956TIP3   OH223752   3.262   1.629   6.200
 7956TIP3    H123753   3.182   1.627   6.254
 7956TIP3    H223754   3.332   1.604   6.260
 7957TIP3   OH223755   3.493   1.590   6.352
 7957TIP3    H123756   3.508   1.495   6.358
 7957TIP3    H223757   3.490   1.619   6.444
 7958TIP3   OH223758   2.468   1.490   6.531
 7958TIP3    H123759   2.473   1.402   6.492
 7958TIP3    H223760   2.516   1.482   6.613
 7959TIP3   OH223761   2.950   1.176   6.389
 7959TIP3    H123762   3.021   1.112   6.381
 7959TIP3    H223763   2.920   1.190   6.299
 7960TIP3   OH223764   3.046   1.388   6.539
 7960TIP3    H123765   3.017   1.318   6.482
 7960TIP3    H223766   2.976   1.452   6.537
 7961TIP3   OH223767   2.302   2.645   4.642
 7961TIP3    H123768   2.391   2.622   4.614
 7961TIP3    H223769   2.264   2.689   4.566
 7962TIP3   OH223770   1.771   2.027   4.821
 7962TIP3    H123771   1.866   2.038   4.817
 7962TIP3    H223772   1.755   1.942   4.781
 7963TIP3   OH223773   1.664   2.606   5.284
 7963TIP3    H123774   1.601   2.550   5.239
 7963TIP3    H223775   1.712   2.547   5.342
 7964TIP3   OH223776   1.810   2.440   5.450
 7964TIP3    H123777   1.803   2.370   5.515
 7964TIP3    H223778   1.864   2.507   5.493
 7965TIP3   OH223779   3.555   2.842   5.257
 7965TIP3    H123780   3.579   2.872   5.344
 7965TIP3    H223781   3.613   2.890   5.198
 7966TIP3   OH223782   3.573   2.875   5.539
 7966TIP3    H123783   3.527   2.791   5.533
 7966TIP3    H223784   3.643   2.860   5.602
 7967TIP3   OH223785   3.635   2.575   6.116
 7967TIP3    H123786   3.559   2.587   6.174
 7967TIP3    H223787   3.679   2.660   6.116
 7968TIP3   OH223788   3.575   1.931   4.865
 7968TIP3    H123789   3.510   1.899   4.927
 7968TIP3    H223790   3.633   1.987   4.918
 7969TIP3   OH223791   3.640   2.351   5.358
 7969TIP3    H123792   3.669   2.278   5.303
 7969TIP3    H223793   3.633   2.425   5.297
 7970TIP3   OH223794   3.432   2.634   5.553
 7970TIP3    H123795   3.365   2.682   5.602
 7970TIP3    H223796   3.385   2.595   5.480
 7971TIP3   OH223797   3.439   1.975   4.607
 7971TIP3    H123798   3.356   2.010   4.639
 7971TIP3    H223799   3.495   1.972   4.685
 7972TIP3   OH223800   3.336   1.537   4.496
 7972TIP3    H123801   3.283   1.565   4.421
 7972TIP3    H223802   3.330   1.441   4.495
 7973TIP3   OH223803   3.393   1.795   5.029
 7973TIP3    H123804   3.389   1.700   5.017
 7973TIP3    H223805   3.376   1.808   5.122
 7974TIP3   OH223806   1.988   1.864   5.834
 7974TIP3    H123807   1.979   1.837   5.742
 7974TIP3    H223808   2.083   1.864   5.850
 7975TIP3   OH223809   3.637   2.224   5.913
 7975TIP3    H123810   3.708   2.163   5.892
 7975TIP3    H223811   3.627   2.276   5.833
 7976TIP3   OH223812   3.824   2.016   5.907
 7976TIP3    H123813   3.750   1.979   5.955
 7976TIP3    H223814   3.899   1.962   5.932
 7977TIP3   OH223815   3.293   1.266   4.485
 7977TIP3    H123816   3.359   1.231   4.544
 7977TIP3    H223817   3.212   1.220   4.510
 7978TIP3   OH223818   3.357   1.524   4.944
 7978TIP3    H123819   3.401   1.441   4.961
 7978TIP3    H223820   3.397   1.557   4.863
 7979TIP3   OH223821   3.525   1.691   5.474
 7979TIP3    H123822   3.603   1.714   5.423
 7979TIP3    H223823   3.535   1.738   5.556
 7980TIP3   OH223824   3.591   1.855   5.695
 7980TIP3    H123825   3.515   1.883   5.745
 7980TIP3    H223826   3.620   1.933   5.649
 7981TIP3   OH223827   2.202   1.548   6.474
 7981TIP3    H123828   2.297   1.545   6.491
 7981TIP3    H223829   2.169   1.465   6.508
 7982TIP3   OH223830   4.051   1.446   6.232
 7982TIP3    H123831   4.116   1.391   6.189
 7982TIP3    H223832   4.012   1.497   6.160
 7983TIP3   OH223833   3.482   1.280   4.993
 7983TIP3    H123834   3.526   1.267   5.077
 7983TIP3    H223835   3.418   1.209   4.989
 7984TIP3   OH223836   2.192   1.263   5.825
 7984TIP3    H123837   2.245   1.183   5.830
 7984TIP3    H223838   2.254   1.332   5.802
 7985TIP3   OH223839   1.966   1.538   5.882
 7985TIP3    H123840   2.017   1.521   5.803
 7985TIP3    H223841   1.983   1.630   5.902
 7986TIP3   OH223842   3.899   1.561   6.035
 7986TIP3    H123843   3.815   1.603   6.052
 7986TIP3    H223844   3.877   1.485   5.981
 7987TIP3   OH223845   3.521   1.198   4.632
 7987TIP3    H123846   3.569   1.137   4.575
 7987TIP3    H223847   3.575   1.276   4.633
 7988TIP3   OH223848   1.963   1.060   5.397
 7988TIP3    H123849   1.875   1.038   5.428
 7988TIP3    H223850   1.948   1.114   5.319
 7989TIP3   OH223851   3.105   2.723   4.917
 7989TIP3    H123852   3.158   2.725   4.838
 7989TIP3    H223853   3.141   2.794   4.971
 7990TIP3   OH223854   2.170   1.084   6.200
 7990TIP3    H123855   2.117   1.079   6.280
 7990TIP3    H223856   2.120   1.140   6.141
 7991TIP3   OH223857   2.204   2.556   6.276
 7991TIP3    H123858   2.111   2.536   6.269
 7991TIP3    H223859   2.222   2.550   6.370
 7992TIP3   OH223860   2.418   2.604   5.831
 7992TIP3    H123861   2.369   2.679   5.798
 7992TIP3    H223862   2.503   2.610   5.786
 7993TIP3   OH223863   2.811   2.832   5.968
 7993TIP3    H123864   2.850   2.825   6.055
 7993TIP3    H223865   2.873   2.886   5.919
 7994TIP3   OH223866   2.999   2.989   5.840
 7994TIP3    H123867   3.057   2.936   5.784
 7994TIP3    H223868   3.059   3.043   5.892
 7995TIP3   OH223869   3.812   1.320   5.923
 7995TIP3    H123870   3.729   1.322   5.874
 7995TIP3    H223871   3.840   1.229   5.917
 7996TIP3   OH223872   2.081   2.837   5.882
 7996TIP3    H123873   1.990   2.855   5.859
 7996TIP3    H223874   2.104   2.905   5.945
 7997TIP3   OH223875   2.310   2.835   5.728
 7997TIP3    H123876   2.226   2.837   5.774
 7997TIP3    H223877   2.287   2.856   5.637
 7998TIP3   OH223878   2.724   2.847   5.520
 7998TIP3    H123879   2.654   2.856   5.455
 7998TIP3    H223880   2.732   2.935   5.558
 7999TIP3   OH223881   2.989   2.790   5.577
 7999TIP3    H123882   2.897   2.805   5.552
 7999TIP3    H223883   3.038   2.853   5.524
 8000TIP3   OH223884   3.191   2.964   5.474
 8000TIP3    H123885   3.187   3.050   5.432
 8000TIP3    H223886   3.222   2.905   5.405
 8001TIP3   OH223887   1.986   2.619   5.594
 8001TIP3    H123888   2.014   2.597   5.683
 8001TIP3    H223889   2.057   2.587   5.538
 8002TIP3   OH223890   2.191   2.505   5.456
 8002TIP3    H123891   2.203   2.419   5.497
 8002TIP3    H223892   2.278   2.544   5.458
 8003TIP3   OH223893   2.459   2.589   5.478
 8003TIP3    H123894   2.478   2.497   5.460
 8003TIP3    H223895   2.515   2.611   5.552
 8004TIP3   OH223896   3.021   1.242   5.566
 8004TIP3    H123897   2.979   1.168   5.610
 8004TIP3    H223898   3.090   1.202   5.512
 8005TIP3   OH223899   3.521   1.158   5.454
 8005TIP3    H123900   3.558   1.209   5.382
 8005TIP3    H223901   3.429   1.182   5.456
 8006TIP3   OH223902   3.639   1.233   5.217
 8006TIP3    H123903   3.707   1.172   5.190
 8006TIP3    H223904   3.676   1.319   5.202
 8007TIP3   OH223905   2.275   0.939   5.562
 8007TIP3    H123906   2.186   0.906   5.577
 8007TIP3    H223907   2.330   0.860   5.566
 8008TIP3   OH223908   2.096   0.858   5.240
 8008TIP3    H123909   2.112   0.898   5.154
 8008TIP3    H223910   2.062   0.930   5.294
 8009TIP3   OH223911   2.731   0.989   5.446
 8009TIP3    H123912   2.782   1.034   5.379
 8009TIP3    H223913   2.770   1.016   5.529
 8010TIP3   OH223914   3.232   1.122   5.434
 8010TIP3    H123915   3.247   1.088   5.346
 8010TIP3    H223916   3.237   1.045   5.491
 8011TIP3   OH223917   3.294   1.073   5.003
 8011TIP3    H123918   3.215   1.122   5.027
 8011TIP3    H223919   3.281   0.987   5.042
 8012TIP3   OH223920   1.747   2.424   4.980
 8012TIP3    H123921   1.667   2.390   4.939
 8012TIP3    H223922   1.754   2.513   4.948
 8013TIP3   OH223923   2.191   0.978   4.987
 8013TIP3    H123924   2.235   0.919   4.927
 8013TIP3    H223925   2.260   1.035   5.020
 8014TIP3   OH223926   2.673   1.176   5.075
 8014TIP3    H123927   2.734   1.125   5.129
 8014TIP3    H223928   2.686   1.267   5.102
 8015TIP3   OH223929   2.556   2.569   4.573
 8015TIP3    H123930   2.640   2.596   4.534
 8015TIP3    H223931   2.526   2.497   4.518
 8016TIP3   OH223932   3.248   2.720   4.677
 8016TIP3    H123933   3.239   2.626   4.667
 8016TIP3    H223934   3.207   2.756   4.598
 8017TIP3   OH223935   2.484   1.218   6.449
 8017TIP3    H123936   2.452   1.151   6.509
 8017TIP3    H223937   2.577   1.226   6.470
 8018TIP3   OH223938   2.737   1.226   6.562
 8018TIP3    H123939   2.813   1.205   6.509
 8018TIP3    H223940   2.733   1.156   6.628
 8019TIP3   OH223941   1.866   2.409   4.628
 8019TIP3    H123942   1.871   2.422   4.723
 8019TIP3    H223943   1.946   2.362   4.606
 8020TIP3   OH223944   3.557   1.318   6.352
 8020TIP3    H123945   3.574   1.289   6.442
 8020TIP3    H223946   3.642   1.313   6.309
 8021TIP3   OH223947   3.475   2.852   5.862
 8021TIP3    H123948   3.403   2.822   5.807
 8021TIP3    H223949   3.462   2.947   5.868
 8022TIP3   OH223950   4.766   2.238   4.586
 8022TIP3    H123951   4.735   2.327   4.574
 8022TIP3    H223952   4.690   2.183   4.568
 8023TIP3   OH223953   4.751   2.229   5.021
 8023TIP3    H123954   4.805   2.215   5.099
 8023TIP3    H223955   4.707   2.145   5.007
 8024TIP3   OH223956   4.043   2.087   5.360
 8024TIP3    H123957   4.082   2.038   5.433
 8024TIP3    H223958   4.119   2.115   5.307
 8025TIP3   OH223959   5.017   2.546   4.682
 8025TIP3    H123960   5.006   2.477   4.747
 8025TIP3    H223961   5.038   2.624   4.733
 8026TIP3   OH223962   4.040   2.517   5.054
 8026TIP3    H123963   4.020   2.424   5.058
 8026TIP3    H223964   4.135   2.521   5.044
 8027TIP3   OH223965   3.739   1.706   4.833
 8027TIP3    H123966   3.699   1.791   4.849
 8027TIP3    H223967   3.665   1.648   4.811
 8028TIP3   OH223968   3.803   2.036   5.035
 8028TIP3    H123969   3.852   1.960   5.066
 8028TIP3    H223970   3.870   2.104   5.024
 8029TIP3   OH223971   4.683   2.963   4.698
 8029TIP3    H123972   4.708   2.896   4.636
 8029TIP3    H223973   4.681   2.918   4.783
 8030TIP3   OH223974   4.561   2.449   5.026
 8030TIP3    H123975   4.608   2.369   5.000
 8030TIP3    H223976   4.630   2.508   5.058
 8031TIP3   OH223977   5.592   1.775   5.045
 8031TIP3    H123978   5.610   1.859   5.087
 8031TIP3    H223979   5.616   1.788   4.953
 8032TIP3   OH223980   4.963   1.940   5.063
 8032TIP3    H123981   4.995   1.855   5.092
 8032TIP3    H223982   4.928   1.925   4.976
 8033TIP3   OH223983   4.321   1.598   5.022
 8033TIP3    H123984   4.303   1.670   4.962
 8033TIP3    H223985   4.266   1.526   4.991
 8034TIP3   OH223986   5.014   1.696   4.663
 8034TIP3    H123987   5.078   1.690   4.734
 8034TIP3    H223988   5.064   1.729   4.589
 8035TIP3   OH223989   3.941   1.819   5.146
 8035TIP3    H123990   4.023   1.806   5.195
 8035TIP3    H223991   3.951   1.764   5.068
 8036TIP3   OH223992   4.366   2.012   4.968
 8036TIP3    H123993   4.460   1.999   4.976
 8036TIP3    H223994   4.333   1.930   4.932
 8037TIP3   OH223995   5.647   1.996   5.210
 8037TIP3    H123996   5.558   2.029   5.205
 8037TIP3    H223997   5.682   2.030   5.292
 8038TIP3   OH223998   4.299   1.605   5.472
 8038TIP3    H123999   4.250   1.642   5.398
 8038TIP3    H224000   4.243   1.623   5.548
 8039TIP3   OH224001   4.660   2.474   4.487
 8039TIP3    H124002   4.608   2.440   4.414
 8039TIP3    H224003   4.607   2.546   4.523
 8040TIP3   OH224004   4.390   2.379   5.233
 8040TIP3    H124005   4.339   2.452   5.267
 8040TIP3    H224006   4.441   2.416   5.161
 8041TIP3   OH224007   5.173   1.721   4.884
 8041TIP3    H124008   5.130   1.702   4.967
 8041TIP3    H224009   5.229   1.797   4.903
 8042TIP3   OH224010   4.191   1.713   5.241
 8042TIP3    H124011   4.245   1.788   5.264
 8042TIP3    H224012   4.238   1.670   5.169
 8043TIP3   OH224013   4.240   2.584   5.342
 8043TIP3    H124014   4.227   2.673   5.310
 8043TIP3    H224015   4.162   2.565   5.394
 8044TIP3   OH224016   5.053   2.785   4.832
 8044TIP3    H124017   4.967   2.778   4.872
 8044TIP3    H224018   5.052   2.870   4.787
 8045TIP3   OH224019   5.394   1.663   5.213
 8045TIP3    H124020   5.310   1.686   5.174
 8045TIP3    H224021   5.459   1.691   5.148
 8046TIP3   OH224022   4.643   1.295   5.206
 8046TIP3    H124023   4.636   1.203   5.232
 8046TIP3    H224024   4.565   1.336   5.245
 8047TIP3   OH224025   4.764   2.808   4.475
 8047TIP3    H124026   4.816   2.728   4.469
 8047TIP3    H224027   4.826   2.879   4.456
 8048TIP3   OH224028   4.911   2.575   4.426
 8048TIP3    H124029   4.830   2.527   4.443
 8048TIP3    H224030   4.963   2.562   4.506
 8049TIP3   OH224031   5.283   2.676   5.178
 8049TIP3    H124032   5.268   2.601   5.119
 8049TIP3    H224033   5.269   2.753   5.123
 8050TIP3   OH224034   4.577   2.074   4.459
 8050TIP3    H124035   4.494   2.118   4.443
 8050TIP3    H224036   4.619   2.069   4.373
 8051TIP3   OH224037   4.557   1.852   4.149
 8051TIP3    H124038   4.617   1.910   4.196
 8051TIP3    H224039   4.614   1.790   4.103
 8052TIP3   OH224040   5.460   2.328   5.038
 8052TIP3    H124041   5.377   2.377   5.036
 8052TIP3    H224042   5.499   2.344   4.952
 8053TIP3   OH224043   4.936   2.144   4.394
 8053TIP3    H124044   4.886   2.185   4.465
 8053TIP3    H224045   5.022   2.127   4.432
 8054TIP3   OH224046   5.168   2.194   5.360
 8054TIP3    H124047   5.165   2.279   5.405
 8054TIP3    H224048   5.086   2.192   5.310
 8055TIP3   OH224049   4.168   2.143   4.817
 8055TIP3    H124050   4.139   2.084   4.748
 8055TIP3    H224051   4.242   2.098   4.858
 8056TIP3   OH224052   4.304   2.565   4.961
 8056TIP3    H124053   4.274   2.551   4.871
 8056TIP3    H224054   4.392   2.527   4.963
 8057TIP3   OH224055   4.259   2.143   5.189
 8057TIP3    H124056   4.299   2.106   5.110
 8057TIP3    H224057   4.306   2.225   5.204
 8058TIP3   OH224058   4.817   2.777   4.966
 8058TIP3    H124059   4.801   2.858   5.014
 8058TIP3    H224060   4.800   2.708   5.029
 8059TIP3   OH224061   4.437   2.677   5.513
 8059TIP3    H124062   4.376   2.735   5.559
 8059TIP3    H224063   4.383   2.627   5.453
 8060TIP3   OH224064   4.745   2.042   4.233
 8060TIP3    H124065   4.814   2.082   4.285
 8060TIP3    H224066   4.740   2.095   4.154
 8061TIP3   OH224067   4.187   2.217   5.667
 8061TIP3    H124068   4.192   2.312   5.679
 8061TIP3    H224069   4.093   2.199   5.658
 8062TIP3   OH224070   4.511   2.702   4.523
 8062TIP3    H124071   4.588   2.757   4.507
 8062TIP3    H224072   4.439   2.747   4.479
 8063TIP3   OH224073   4.228   2.836   5.597
 8063TIP3    H124074   4.205   2.849   5.505
 8063TIP3    H224075   4.144   2.823   5.641
 8064TIP3   OH224076   5.277   1.253   4.302
 8064TIP3    H124077   5.201   1.273   4.356
 8064TIP3    H224078   5.287   1.329   4.245
 8065TIP3   OH224079   4.047   1.989   4.609
 8065TIP3    H124080   3.970   2.038   4.581
 8065TIP3    H224081   4.013   1.905   4.639
 8066TIP3   OH224082   5.111   2.632   3.848
 8066TIP3    H124083   5.107   2.725   3.830
 8066TIP3    H224084   5.199   2.605   3.820
 8067TIP3   OH224085   3.829   2.393   5.554
 8067TIP3    H124086   3.761   2.377   5.488
 8067TIP3    H224087   3.861   2.305   5.577
 8068TIP3   OH224088   3.665   2.587   5.203
 8068TIP3    H124089   3.757   2.611   5.215
 8068TIP3    H224090   3.616   2.664   5.232
 8069TIP3   OH224091   5.515   3.027   5.252
 8069TIP3    H124092   5.518   2.933   5.270
 8069TIP3    H224093   5.436   3.058   5.297
 8070TIP3   OH224094   4.626   2.825   5.378
 8070TIP3    H124095   4.617   2.915   5.407
 8070TIP3    H224096   4.558   2.777   5.426
 8071TIP3   OH224097   4.404   2.944   4.322
 8071TIP3    H124098   4.331   2.918   4.265
 8071TIP3    H224099   4.376   3.027   4.360
 8072TIP3   OH224100   3.850   2.804   4.713
 8072TIP3    H124101   3.898   2.791   4.795
 8072TIP3    H224102   3.805   2.721   4.698
 8073TIP3   OH224103   4.612   2.836   3.954
 8073TIP3    H124104   4.672   2.765   3.929
 8073TIP3    H224105   4.636   2.857   4.045
 8074TIP3   OH224106   4.654   2.892   4.225
 8074TIP3    H124107   4.564   2.906   4.254
 8074TIP3    H224108   4.699   2.858   4.302
 8075TIP3   OH224109   5.409   2.149   5.520
 8075TIP3    H124110   5.327   2.158   5.471
 8075TIP3    H224111   5.428   2.055   5.517
 8076TIP3   OH224112   4.025   2.583   5.516
 8076TIP3    H124113   4.075   2.569   5.596
 8076TIP3    H224114   3.953   2.520   5.522
 8077TIP3   OH224115   4.404   1.387   5.331
 8077TIP3    H124116   4.321   1.354   5.298
 8077TIP3    H224117   4.382   1.469   5.375
 8078TIP3   OH224118   4.947   1.510   5.532
 8078TIP3    H124119   5.017   1.486   5.592
 8078TIP3    H224120   4.867   1.494   5.583
 8079TIP3   OH224121   5.163   1.928   5.445
 8079TIP3    H124122   5.126   1.924   5.534
 8079TIP3    H224123   5.151   2.019   5.418
 8080TIP3   OH224124   4.556   1.430   4.300
 8080TIP3    H124125   4.519   1.436   4.389
 8080TIP3    H224126   4.522   1.347   4.266
 8081TIP3   OH224127   4.343   1.923   5.338
 8081TIP3    H124128   4.298   1.931   5.422
 8081TIP3    H224129   4.322   2.004   5.292
 8082TIP3   OH224130   4.231   1.796   4.855
 8082TIP3    H124131   4.142   1.772   4.883
 8082TIP3    H224132   4.237   1.765   4.765
 8083TIP3   OH224133   4.702   1.867   4.589
 8083TIP3    H124134   4.655   1.942   4.553
 8083TIP3    H224135   4.760   1.839   4.519
 8084TIP3   OH224136   4.890   2.137   5.658
 8084TIP3    H124137   4.865   2.069   5.721
 8084TIP3    H224138   4.983   2.154   5.678
 8085TIP3   OH224139   4.870   1.885   4.812
 8085TIP3    H124140   4.802   1.904   4.748
 8085TIP3    H224141   4.918   1.811   4.774
 8086TIP3   OH224142   4.181   1.940   5.559
 8086TIP3    H124143   4.189   2.007   5.627
 8086TIP3    H224144   4.162   1.859   5.606
 8087TIP3   OH224145   4.222   1.402   4.272
 8087TIP3    H124146   4.215   1.410   4.367
 8087TIP3    H224147   4.141   1.441   4.239
 8088TIP3   OH224148   3.774   1.450   5.135
 8088TIP3    H124149   3.844   1.489   5.188
 8088TIP3    H224150   3.814   1.434   5.050
 8089TIP3   OH224151   3.666   1.438   4.637
 8089TIP3    H124152   3.709   1.481   4.563
 8089TIP3    H224153   3.598   1.501   4.665
 8090TIP3   OH224154   4.917   2.143   5.237
 8090TIP3    H124155   4.941   2.076   5.173
 8090TIP3    H224156   4.871   2.095   5.306
 8091TIP3   OH224157   4.588   1.585   4.910
 8091TIP3    H124158   4.512   1.585   4.968
 8091TIP3    H224159   4.663   1.576   4.970
 8092TIP3   OH224160   3.996   1.670   4.922
 8092TIP3    H124161   3.908   1.671   4.883
 8092TIP3    H224162   4.026   1.580   4.909
 8093TIP3   OH224163   4.232   1.677   4.605
 8093TIP3    H124164   4.326   1.687   4.597
 8093TIP3    H224165   4.198   1.694   4.517
 8094TIP3   OH224166   5.028   1.676   5.119
 8094TIP3    H124167   5.010   1.693   5.211
 8094TIP3    H224168   4.960   1.614   5.091
 8095TIP3   OH224169   4.118   1.694   4.350
 8095TIP3    H124170   4.067   1.641   4.290
 8095TIP3    H224171   4.175   1.746   4.294
 8096TIP3   OH224172   5.234   3.381   5.338
 8096TIP3    H124173   5.230   3.400   5.244
 8096TIP3    H224174   5.314   3.425   5.367
 8097TIP3   OH224175   4.173   2.487   5.751
 8097TIP3    H124176   4.254   2.509   5.797
 8097TIP3    H224177   4.104   2.499   5.816
 8098TIP3   OH224178   4.638   1.960   5.018
 8098TIP3    H124179   4.706   1.912   4.971
 8098TIP3    H224180   4.636   1.919   5.105
 8099TIP3   OH224181   4.130   1.423   4.905
 8099TIP3    H124182   4.101   1.348   4.957
 8099TIP3    H224183   4.155   1.385   4.820
 8100TIP3   OH224184   4.609   1.862   5.282
 8100TIP3    H124185   4.522   1.896   5.305
 8100TIP3    H224186   4.669   1.915   5.335
 8101TIP3   OH224187   4.347   2.210   4.396
 8101TIP3    H124188   4.268   2.163   4.366
 8101TIP3    H224189   4.318   2.256   4.475
 8102TIP3   OH224190   5.231   2.475   4.995
 8102TIP3    H124191   5.270   2.524   4.922
 8102TIP3    H224192   5.152   2.436   4.957
 8103TIP3   OH224193   4.808   1.534   4.307
 8103TIP3    H124194   4.715   1.512   4.302
 8103TIP3    H224195   4.810   1.629   4.317
 8104TIP3   OH224196   4.749   2.555   5.418
 8104TIP3    H124197   4.804   2.546   5.495
 8104TIP3    H224198   4.712   2.643   5.424
 8105TIP3   OH224199   4.864   1.803   4.368
 8105TIP3    H124200   4.959   1.799   4.384
 8105TIP3    H224201   4.852   1.880   4.314
 8106TIP3   OH224202   4.025   2.220   5.040
 8106TIP3    H124203   4.067   2.206   4.955
 8106TIP3    H224204   4.091   2.195   5.105
 8107TIP3   OH224205   4.510   2.393   4.274
 8107TIP3    H124206   4.453   2.468   4.257
 8107TIP3    H224207   4.451   2.325   4.307
 8108TIP3   OH224208   3.914   2.151   5.677
 8108TIP3    H124209   3.908   2.121   5.768
 8108TIP3    H224210   3.838   2.111   5.634
 8109TIP3   OH224211   4.660   2.295   5.701
 8109TIP3    H124212   4.590   2.236   5.673
 8109TIP3    H224213   4.741   2.253   5.670
 8110TIP3   OH224214   4.896   2.843   5.303
 8110TIP3    H124215   4.801   2.832   5.307
 8110TIP3    H224216   4.919   2.881   5.388
 8111TIP3   OH224217   5.281   1.882   4.209
 8111TIP3    H124218   5.227   1.862   4.133
 8111TIP3    H224219   5.290   1.977   4.209
 8112TIP3   OH224220   5.528   2.742   5.278
 8112TIP3    H124221   5.433   2.732   5.265
 8112TIP3    H224222   5.566   2.722   5.193
 8113TIP3   OH224223   4.983   2.592   4.123
 8113TIP3    H124224   4.989   2.609   4.217
 8113TIP3    H224225   5.063   2.630   4.087
 8114TIP3   OH224226   5.005   2.340   4.886
 8114TIP3    H124227   4.916   2.319   4.915
 8114TIP3    H224228   5.039   2.257   4.851
 8115TIP3   OH224229   4.154   2.560   4.725
 8115TIP3    H124230   4.156   2.639   4.671
 8115TIP3    H224231   4.062   2.548   4.748
 8116TIP3   OH224232   3.661   1.893   4.434
 8116TIP3    H124233   3.723   1.961   4.462
 8116TIP3    H224234   3.706   1.811   4.454
 8117TIP3   OH224235   4.255   2.324   4.624
 8117TIP3    H124236   4.231   2.413   4.648
 8117TIP3    H224237   4.226   2.270   4.697
 8118TIP3   OH224238   4.445   2.895   5.168
 8118TIP3    H124239   4.479   2.969   5.118
 8118TIP3    H224240   4.520   2.863   5.219
 8119TIP3   OH224241   4.100   2.792   4.591
 8119TIP3    H124242   4.007   2.805   4.611
 8119TIP3    H224243   4.134   2.880   4.576
 8120TIP3   OH224244   4.791   2.560   5.144
 8120TIP3    H124245   4.774   2.556   5.238
 8120TIP3    H224246   4.875   2.516   5.132
 8121TIP3   OH224247   4.723   2.371   4.103
 8121TIP3    H124248   4.675   2.384   4.184
 8121TIP3    H224249   4.657   2.342   4.040
 8122TIP3   OH224250   5.047   3.052   5.181
 8122TIP3    H124251   4.977   2.990   5.201
 8122TIP3    H224252   5.013   3.105   5.109
 8123TIP3   OH224253   5.088   2.903   3.815
 8123TIP3    H124254   5.109   2.953   3.736
 8123TIP3    H224255   5.022   2.955   3.860
 8124TIP3   OH224256   4.126   1.685   5.678
 8124TIP3    H124257   4.031   1.693   5.683
 8124TIP3    H224258   4.149   1.634   5.756
 8125TIP3   OH224259   3.872   2.796   5.334
 8125TIP3    H124260   3.925   2.736   5.386
 8125TIP3    H224261   3.889   2.882   5.371
 8126TIP3   OH224262   4.248   2.361   4.042
 8126TIP3    H124263   4.207   2.279   4.016
 8126TIP3    H224264   4.190   2.396   4.110
 8127TIP3   OH224265   4.067   2.482   4.227
 8127TIP3    H124266   4.047   2.456   4.317
 8127TIP3    H224267   3.984   2.516   4.193
 8128TIP3   OH224268   3.812   2.116   4.521
 8128TIP3    H124269   3.784   2.175   4.591
 8128TIP3    H224270   3.812   2.170   4.442
 8129TIP3   OH224271   4.972   1.739   5.380
 8129TIP3    H124272   5.050   1.785   5.411
 8129TIP3    H224273   4.966   1.662   5.438
 8130TIP3   OH224274   4.868   1.478   4.573
 8130TIP3    H124275   4.848   1.498   4.481
 8130TIP3    H224276   4.911   1.556   4.606
 8131TIP3   OH224277   4.332   2.597   4.236
 8131TIP3    H124278   4.239   2.575   4.241
 8131TIP3    H224279   4.335   2.679   4.186
 8132TIP3   OH224280   4.511   1.681   4.660
 8132TIP3    H124281   4.574   1.748   4.633
 8132TIP3    H224282   4.535   1.660   4.750
 8133TIP3   OH224283   4.815   1.976   5.432
 8133TIP3    H124284   4.841   2.019   5.514
 8133TIP3    H224285   4.865   1.895   5.431
 8134TIP3   OH224286   4.679   1.375   4.746
 8134TIP3    H124287   4.657   1.452   4.797
 8134TIP3    H224288   4.751   1.404   4.689
 8135TIP3   OH224289   4.193   1.403   4.552
 8135TIP3    H124290   4.182   1.494   4.580
 8135TIP3    H224291   4.287   1.387   4.559
 8136TIP3   OH224292   5.428   1.874   5.425
 8136TIP3    H124293   5.333   1.883   5.435
 8136TIP3    H224294   5.439   1.814   5.351
 8137TIP3   OH224295   5.095   2.078   4.807
 8137TIP3    H124296   5.018   2.022   4.819
 8137TIP3    H224297   5.162   2.039   4.863
 8138TIP3   OH224298   3.797   2.280   4.302
 8138TIP3    H124299   3.762   2.362   4.266
 8138TIP3    H224300   3.850   2.243   4.232
 8139TIP3   OH224301   3.747   1.604   4.423
 8139TIP3    H124302   3.838   1.603   4.394
 8139TIP3    H224303   3.697   1.620   4.343
 8140TIP3   OH224304   5.074   3.048   4.744
 8140TIP3    H124305   5.033   3.102   4.676
 8140TIP3    H224306   5.168   3.063   4.734
 8141TIP3   OH224307   4.143   1.301   5.287
 8141TIP3    H124308   4.114   1.269   5.202
 8141TIP3    H224309   4.134   1.226   5.345
 8142TIP3   OH224310   3.713   2.570   4.691
 8142TIP3    H124311   3.647   2.588   4.758
 8142TIP3    H224312   3.663   2.569   4.609
 8143TIP3   OH224313   3.867   3.096   5.751
 8143TIP3    H124314   3.950   3.099   5.798
 8143TIP3    H224315   3.851   3.003   5.737
 8144TIP3   OH224316   4.333   2.995   5.796
 8144TIP3    H124317   4.425   2.971   5.803
 8144TIP3    H224318   4.299   2.943   5.723
 8145TIP3   OH224319   4.308   2.586   3.894
 8145TIP3    H124320   4.286   2.511   3.949
 8145TIP3    H224321   4.390   2.561   3.851
 8146TIP3   OH224322   4.951   2.942   5.554
 8146TIP3    H124323   4.967   2.871   5.617
 8146TIP3    H224324   5.025   3.001   5.565
 8147TIP3   OH224325   4.794   2.642   3.849
 8147TIP3    H124326   4.881   2.672   3.874
 8147TIP3    H224327   4.795   2.641   3.754
 8148TIP3   OH224328   3.969   2.493   5.943
 8148TIP3    H124329   3.984   2.399   5.954
 8148TIP3    H224330   3.884   2.499   5.900
 8149TIP3   OH224331   3.957   2.116   4.142
 8149TIP3    H124332   4.009   2.091   4.218
 8149TIP3    H224333   4.020   2.124   4.070
 8150TIP3   OH224334   4.590   2.571   5.718
 8150TIP3    H124335   4.547   2.594   5.635
 8150TIP3    H224336   4.627   2.485   5.703
 8151TIP3   OH224337   4.507   2.304   3.953
 8151TIP3    H124338   4.424   2.319   3.997
 8151TIP3    H224339   4.514   2.209   3.944
 8152TIP3   OH224340   5.061   2.616   5.330
 8152TIP3    H124341   5.139   2.643   5.282
 8152TIP3    H224342   4.999   2.688   5.318
 8153TIP3   OH224343   4.084   2.236   5.953
 8153TIP3    H124344   4.155   2.224   5.889
 8153TIP3    H224345   4.129   2.258   6.034
 8154TIP3   OH224346   4.134   2.038   4.341
 8154TIP3    H124347   4.118   2.009   4.431
 8154TIP3    H224348   4.183   1.967   4.301
 8155TIP3   OH224349   4.452   2.122   5.609
 8155TIP3    H124350   4.364   2.160   5.620
 8155TIP3    H224351   4.480   2.151   5.522
 8156TIP3   OH224352   4.276   1.849   4.187
 8156TIP3    H124353   4.250   1.859   4.096
 8156TIP3    H224354   4.372   1.847   4.185
 8157TIP3   OH224355   4.948   2.493   5.683
 8157TIP3    H124356   5.016   2.456   5.628
 8157TIP3    H224357   4.946   2.436   5.760
 8158TIP3   OH224358   4.551   1.888   5.714
 8158TIP3    H124359   4.554   1.818   5.649
 8158TIP3    H224360   4.519   1.964   5.667
 8159TIP3   OH224361   4.559   1.690   5.510
 8159TIP3    H124362   4.587   1.728   5.426
 8159TIP3    H224363   4.468   1.664   5.494
 8160TIP3   OH224364   4.560   2.221   5.381
 8160TIP3    H124365   4.648   2.258   5.370
 8160TIP3    H224366   4.504   2.278   5.329
 8161TIP3   OH224367   5.159   2.177   5.757
 8161TIP3    H124368   5.205   2.093   5.761
 8161TIP3    H224369   5.228   2.242   5.748
 8162TIP3   OH224370   5.187   2.442   5.497
 8162TIP3    H124371   5.134   2.502   5.446
 8162TIP3    H224372   5.277   2.457   5.466
 8163TIP3   OH224373   4.436   1.968   5.958
 8163TIP3    H124374   4.366   1.905   5.976
 8163TIP3    H224375   4.464   1.947   5.869
 8164TIP3   OH224376   4.680   1.461   5.615
 8164TIP3    H124377   4.642   1.542   5.580
 8164TIP3    H224378   4.614   1.394   5.600
 8165TIP3   OH224379   4.808   1.927   5.816
 8165TIP3    H124380   4.799   1.914   5.910
 8165TIP3    H224381   4.722   1.906   5.780
 8166TIP3   OH224382   5.056   1.884   5.689
 8166TIP3    H124383   4.977   1.883   5.743
 8166TIP3    H224384   5.127   1.861   5.749
 8167TIP3   OH224385   5.290   1.850   5.839
 8167TIP3    H124386   5.305   1.755   5.844
 8167TIP3    H224387   5.287   1.878   5.930
 8168TIP3   OH224388   4.265   1.750   6.021
 8168TIP3    H124389   4.273   1.662   5.983
 8168TIP3    H224390   4.306   1.742   6.107
 8169TIP3   OH224391   4.746   1.432   5.879
 8169TIP3    H124392   4.816   1.368   5.872
 8169TIP3    H224393   4.717   1.446   5.789
 8170TIP3   OH224394   4.843   1.645   6.026
 8170TIP3    H124395   4.812   1.575   5.969
 8170TIP3    H224396   4.771   1.709   6.025
 8171TIP3   OH224397   4.158   2.980   4.130
 8171TIP3    H124398   4.221   2.915   4.098
 8171TIP3    H224399   4.101   2.996   4.055
 8172TIP3   OH224400   3.461   2.866   4.769
 8172TIP3    H124401   3.394   2.813   4.726
 8172TIP3    H224402   3.507   2.805   4.826
 8173TIP3   OH224403   3.605   2.701   4.939
 8173TIP3    H124404   3.598   2.632   5.005
 8173TIP3    H224405   3.662   2.766   4.979
 8174TIP3   OH224406   5.345   3.101   4.745
 8174TIP3    H124407   5.361   3.129   4.835
 8174TIP3    H224408   5.395   3.164   4.692
 8175TIP3   OH224409   5.357   3.137   5.026
 8175TIP3    H124410   5.313   3.053   5.022
 8175TIP3    H224411   5.429   3.124   5.088
 8176TIP3   OH224412   5.421   2.834   5.602
 8176TIP3    H124413   5.351   2.846   5.666
 8176TIP3    H224414   5.468   2.917   5.602
 8177TIP3   OH224415   5.380   2.159   4.391
 8177TIP3    H124416   5.303   2.145   4.446
 8177TIP3    H224417   5.433   2.222   4.440
 8178TIP3   OH224418   5.421   2.607   4.836
 8178TIP3    H124419   5.473   2.541   4.790
 8178TIP3    H224420   5.422   2.684   4.778
 8179TIP3   OH224421   5.220   2.896   5.028
 8179TIP3    H124422   5.153   2.940   5.080
 8179TIP3    H224423   5.171   2.856   4.956
 8180TIP3   OH224424   5.129   1.811   3.993
 8180TIP3    H124425   5.101   1.837   3.905
 8180TIP3    H224426   5.113   1.716   3.995
 8181TIP3   OH224427   5.160   2.063   4.536
 8181TIP3    H124428   5.166   1.967   4.530
 8181TIP3    H224429   5.142   2.080   4.629
 8182TIP3   OH224430   3.776   2.094   5.307
 8182TIP3    H124431   3.768   2.079   5.213
 8182TIP3    H224432   3.871   2.101   5.322
 8183TIP3   OH224433   5.448   2.487   5.409
 8183TIP3    H124434   5.513   2.419   5.394
 8183TIP3    H224435   5.475   2.560   5.353
 8184TIP3   OH224436   5.622   2.272   5.400
 8184TIP3    H124437   5.548   2.230   5.444
 8184TIP3    H224438   5.698   2.218   5.422
 8185TIP3   OH224439   5.080   1.541   3.993
 8185TIP3    H124440   5.153   1.501   4.041
 8185TIP3    H224441   5.005   1.485   4.012
 8186TIP3   OH224442   5.151   1.779   4.433
 8186TIP3    H124443   5.197   1.696   4.447
 8186TIP3    H224444   5.194   1.819   4.358
 8187TIP3   OH224445   5.309   1.956   4.951
 8187TIP3    H124446   5.389   1.974   4.902
 8187TIP3    H224447   5.324   1.995   5.037
 8188TIP3   OH224448   5.384   2.103   5.179
 8188TIP3    H124449   5.313   2.133   5.236
 8188TIP3    H224450   5.412   2.183   5.133
 8189TIP3   OH224451   4.001   1.808   5.959
 8189TIP3    H124452   4.095   1.806   5.977
 8189TIP3    H224453   3.967   1.728   5.997
 8190TIP3   OH224454   5.841   1.709   5.714
 8190TIP3    H124455   5.909   1.651   5.682
 8190TIP3    H224456   5.810   1.755   5.636
 8191TIP3   OH224457   5.276   1.536   4.481
 8191TIP3    H124458   5.322   1.523   4.564
 8191TIP3    H224459   5.214   1.463   4.476
 8192TIP3   OH224460   3.982   1.527   5.303
 8192TIP3    H124461   4.036   1.449   5.309
 8192TIP3    H224462   4.044   1.598   5.286
 8193TIP3   OH224463   3.756   1.798   5.362
 8193TIP3    H124464   3.811   1.780   5.286
 8193TIP3    H224465   3.755   1.893   5.370
 8194TIP3   OH224466   5.696   1.824   5.513
 8194TIP3    H124467   5.616   1.862   5.549
 8194TIP3    H224468   5.667   1.748   5.463
 8195TIP3   OH224469   5.315   1.452   4.116
 8195TIP3    H124470   5.360   1.392   4.057
 8195TIP3    H224471   5.372   1.529   4.120
 8196TIP3   OH224472   3.746   1.298   4.862
 8196TIP3    H124473   3.662   1.285   4.907
 8196TIP3    H224474   3.725   1.354   4.787
 8197TIP3   OH224475   4.926   3.003   4.392
 8197TIP3    H124476   4.984   3.018   4.316
 8197TIP3    H224477   4.944   3.078   4.450
 8198TIP3   OH224478   3.975   1.342   5.690
 8198TIP3    H124479   3.926   1.343   5.772
 8198TIP3    H224480   3.922   1.396   5.631
 8199TIP3   OH224481   4.002   2.814   5.760
 8199TIP3    H124482   3.909   2.795   5.755
 8199TIP3    H224483   4.023   2.807   5.853
 8200TIP3   OH224484   4.216   2.861   5.316
 8200TIP3    H124485   4.165   2.935   5.284
 8200TIP3    H224486   4.301   2.869   5.272
 8201TIP3   OH224487   4.609   3.092   5.455
 8201TIP3    H124488   4.647   3.085   5.542
 8201TIP3    H224489   4.672   3.146   5.406
 8202TIP3   OH224490   4.802   3.246   5.329
 8202TIP3    H124491   4.865   3.195   5.278
 8202TIP3    H224492   4.856   3.305   5.383
 8203TIP3   OH224493   5.609   1.574   5.414
 8203TIP3    H124494   5.524   1.567   5.371
 8203TIP3    H224495   5.646   1.486   5.409
 8204TIP3   OH224496   3.876   3.096   5.369
 8204TIP3    H124497   3.785   3.114   5.344
 8204TIP3    H224498   3.898   3.165   5.432
 8205TIP3   OH224499   4.105   3.092   5.215
 8205TIP3    H124500   4.022   3.095   5.262
 8205TIP3    H224501   4.083   3.114   5.125
 8206TIP3   OH224502   4.516   3.108   5.006
 8206TIP3    H124503   4.443   3.118   4.945
 8206TIP3    H224504   4.528   3.194   5.045
 8207TIP3   OH224505   4.776   3.034   5.056
 8207TIP3    H124506   4.686   3.059   5.036
 8207TIP3    H224507   4.829   3.100   5.011
 8208TIP3   OH224508   4.975   3.198   4.953
 8208TIP3    H124509   4.985   3.288   4.920
 8208TIP3    H224510   5.007   3.143   4.882
 8209TIP3   OH224511   3.784   2.876   5.083
 8209TIP3    H124512   3.812   2.854   5.172
 8209TIP3    H224513   3.855   2.845   5.027
 8210TIP3   OH224514   3.991   2.766   4.947
 8210TIP3    H124515   4.001   2.679   4.986
 8210TIP3    H224516   4.079   2.803   4.948
 8211TIP3   OH224517   4.260   2.844   4.965
 8211TIP3    H124518   4.278   2.752   4.950
 8211TIP3    H224519   4.316   2.868   5.040
 8212TIP3   OH224520   4.815   1.492   5.049
 8212TIP3    H124521   4.776   1.422   5.101
 8212TIP3    H224522   4.884   1.449   4.999
 8213TIP3   OH224523   5.319   1.414   4.940
 8213TIP3    H124524   5.356   1.463   4.867
 8213TIP3    H224525   5.227   1.440   4.942
 8214TIP3   OH224526   5.433   1.491   4.704
 8214TIP3    H124527   5.502   1.429   4.678
 8214TIP3    H224528   5.472   1.577   4.688
 8215TIP3   OH224529   4.054   1.197   5.047
 8215TIP3    H124530   3.966   1.163   5.058
 8215TIP3    H224531   4.109   1.119   5.040
 8216TIP3   OH224532   3.876   1.104   4.701
 8216TIP3    H124533   3.902   1.154   4.623
 8216TIP3    H224534   3.838   1.170   4.760
 8217TIP3   OH224535   4.534   1.240   4.947
 8217TIP3    H124536   4.583   1.284   4.878
 8217TIP3    H224537   4.577   1.267   5.028
 8218TIP3   OH224538   5.028   1.368   4.924
 8218TIP3    H124539   5.053   1.332   4.839
 8218TIP3    H224540   5.038   1.294   4.985
 8219TIP3   OH224541   5.089   1.329   4.488
 8219TIP3    H124542   5.009   1.376   4.514
 8219TIP3    H224543   5.079   1.242   4.527
 8220TIP3   OH224544   3.578   2.586   4.448
 8220TIP3    H124545   3.492   2.624   4.427
 8220TIP3    H224546   3.625   2.585   4.364
 8221TIP3   OH224547   3.984   1.235   4.462
 8221TIP3    H124548   4.029   1.172   4.407
 8221TIP3    H224549   4.054   1.289   4.499
 8222TIP3   OH224550   4.467   1.429   4.563
 8222TIP3    H124551   4.528   1.377   4.616
 8222TIP3    H224552   4.482   1.519   4.592
 8223TIP3   OH224553   4.348   2.806   4.049
 8223TIP3    H124554   4.434   2.834   4.016
 8223TIP3    H224555   4.322   2.735   3.989
 8224TIP3   OH224556   5.052   2.967   4.144
 8224TIP3    H124557   4.997   2.889   4.149
 8224TIP3    H224558   5.018   3.017   4.071
 8225TIP3   OH224559   4.283   1.480   5.928
 8225TIP3    H124560   4.250   1.415   5.990
 8225TIP3    H224561   4.376   1.489   5.951
 8226TIP3   OH224562   4.530   1.485   6.053
 8226TIP3    H124563   4.608   1.465   6.000
 8226TIP3    H224564   4.527   1.416   6.119
 8227TIP3   OH224565   5.354   1.578   5.840
 8227TIP3    H124566   5.372   1.549   5.929
 8227TIP3    H224567   5.438   1.574   5.796
 8228TIP3   OH224568   5.267   3.107   5.347
 8228TIP3    H124569   5.193   3.078   5.293
 8228TIP3    H224570   5.257   3.202   5.352
 8229TIP3   OH224571   6.537   2.491   4.111
 8229TIP3    H124572   6.506   2.577   4.083
 8229TIP3    H224573   6.477   2.429   4.071
 8230TIP3   OH224574   6.530   2.454   4.510
 8230TIP3    H124575   6.610   2.507   4.510
 8230TIP3    H224576   6.503   2.452   4.418
 8231TIP3   OH224577   5.855   2.377   4.857
 8231TIP3    H124578   5.892   2.307   4.910
 8231TIP3    H224579   5.909   2.454   4.877
 8232TIP3   OH224580   5.838   2.770   4.537
 8232TIP3    H124581   5.821   2.677   4.550
 8232TIP3    H224582   5.933   2.777   4.531
 8233TIP3   OH224583   5.540   1.945   4.336
 8233TIP3    H124584   5.497   2.028   4.356
 8233TIP3    H224585   5.469   1.886   4.310
 8234TIP3   OH224586   5.594   2.291   4.538
 8234TIP3    H124587   5.645   2.214   4.563
 8234TIP3    H224588   5.660   2.357   4.516
 8235TIP3   OH224589   6.480   3.208   4.206
 8235TIP3    H124590   6.507   3.148   4.138
 8235TIP3    H224591   6.502   3.163   4.288
 8236TIP3   OH224592   6.350   2.717   4.531
 8236TIP3    H124593   6.389   2.631   4.513
 8236TIP3    H224594   6.424   2.771   4.558
 8237TIP3   OH224595   7.388   2.027   4.528
 8237TIP3    H124596   7.407   2.109   4.572
 8237TIP3    H224597   7.422   2.038   4.439
 8238TIP3   OH224598   6.727   2.186   4.567
 8238TIP3    H124599   6.781   2.111   4.594
 8238TIP3    H224600   6.716   2.175   4.472
 8239TIP3   OH224601   6.118   1.853   4.510
 8239TIP3    H124602   6.096   1.925   4.451
 8239TIP3    H224603   6.064   1.780   4.480
 8240TIP3   OH224604   6.813   1.959   4.143
 8240TIP3    H124605   6.880   1.956   4.211
 8240TIP3    H224606   6.858   1.993   4.066
 8241TIP3   OH224607   5.740   2.074   4.637
 8241TIP3    H124608   5.822   2.058   4.684
 8241TIP3    H224609   5.746   2.020   4.558
 8242TIP3   OH224610   6.183   2.266   4.419
 8242TIP3    H124611   6.274   2.239   4.427
 8242TIP3    H224612   6.136   2.186   4.393
 8243TIP3   OH224613   7.448   2.240   4.697
 8243TIP3    H124614   7.362   2.281   4.689
 8243TIP3    H224615   7.486   2.280   4.775
 8244TIP3   OH224616   6.087   1.855   4.967
 8244TIP3    H124617   6.036   1.891   4.894
 8244TIP3    H224618   6.034   1.876   5.044
 8245TIP3   OH224619   6.413   2.696   3.977
 8245TIP3    H124620   6.394   2.679   3.885
 8245TIP3    H224621   6.376   2.783   3.994
 8246TIP3   OH224622   6.167   2.626   4.719
 8246TIP3    H124623   6.121   2.697   4.763
 8246TIP3    H224624   6.230   2.670   4.662
 8247TIP3   OH224625   6.976   1.992   4.357
 8247TIP3    H124626   6.941   1.968   4.442
 8247TIP3    H224627   7.040   2.061   4.375
 8248TIP3   OH224628   5.986   1.963   4.731
 8248TIP3    H124629   6.045   2.033   4.757
 8248TIP3    H224630   6.030   1.920   4.658
 8249TIP3   OH224631   6.035   2.838   4.836
 8249TIP3    H124632   6.024   2.927   4.803
 8249TIP3    H224633   5.958   2.822   4.891
 8250TIP3   OH224634   5.437   2.557   4.067
 8250TIP3    H124635   5.404   2.587   3.983
 8250TIP3    H224636   5.454   2.637   4.116
 8251TIP3   OH224637   6.866   3.013   4.343
 8251TIP3    H124638   6.771   3.017   4.355
 8251TIP3    H224639   6.880   3.034   4.251
 8252TIP3   OH224640   7.185   1.921   4.695
 8252TIP3    H124641   7.101   1.943   4.655
 8252TIP3    H224642   7.250   1.947   4.630
 8253TIP3   OH224643   6.434   1.548   4.698
 8253TIP3    H124644   6.430   1.456   4.724
 8253TIP3    H224645   6.355   1.587   4.736
 8254TIP3   OH224646   6.570   3.070   3.978
 8254TIP3    H124647   6.651   3.027   4.008
 8254TIP3    H224648   6.599   3.154   3.944
 8255TIP3   OH224649   7.080   2.945   4.668
 8255TIP3    H124650   7.071   2.872   4.608
 8255TIP3    H224651   7.062   3.023   4.615
 8256TIP3   OH224652   6.380   2.335   3.940
 8256TIP3    H124653   6.297   2.381   3.923
 8256TIP3    H224654   6.425   2.335   3.856
 8257TIP3   OH224655   6.342   2.145   3.626
 8257TIP3    H124656   6.408   2.194   3.675
 8257TIP3    H224657   6.392   2.078   3.580
 8258TIP3   OH224658   7.269   2.590   4.545
 8258TIP3    H124659   7.187   2.640   4.543
 8258TIP3    H224660   7.305   2.600   4.457
 8259TIP3   OH224661   6.724   2.429   3.908
 8259TIP3    H124662   6.672   2.459   3.982
 8259TIP3    H224663   6.808   2.404   3.946
 8260TIP3   OH224664   6.976   2.465   4.837
 8260TIP3    H124665   6.974   2.541   4.895
 8260TIP3    H224666   6.939   2.497   4.754
 8261TIP3   OH224667   5.960   2.401   4.317
 8261TIP3    H124668   5.924   2.345   4.249
 8261TIP3    H224669   6.041   2.359   4.344
 8262TIP3   OH224670   6.100   2.828   4.446
 8262TIP3    H124671   6.086   2.813   4.353
 8262TIP3    H224672   6.187   2.793   4.464
 8263TIP3   OH224673   6.117   2.364   4.672
 8263TIP3    H124674   6.140   2.351   4.579
 8263TIP3    H224675   6.137   2.456   4.688
 8264TIP3   OH224676   6.599   3.031   4.438
 8264TIP3    H124677   6.602   3.114   4.485
 8264TIP3    H224678   6.591   2.964   4.506
 8265TIP3   OH224679   6.234   2.935   5.005
 8265TIP3    H124680   6.171   2.991   5.050
 8265TIP3    H224681   6.181   2.882   4.946
 8266TIP3   OH224682   6.566   2.285   3.730
 8266TIP3    H124683   6.623   2.345   3.777
 8266TIP3    H224684   6.596   2.289   3.639
 8267TIP3   OH224685   5.955   2.468   5.145
 8267TIP3    H124686   5.974   2.560   5.163
 8267TIP3    H224687   5.860   2.461   5.154
 8268TIP3   OH224688   6.318   2.957   3.983
 8268TIP3    H124689   6.405   2.997   3.988
 8268TIP3    H224690   6.264   3.023   3.939
 8269TIP3   OH224691   6.020   3.090   5.085
 8269TIP3    H124692   5.998   3.103   4.993
 8269TIP3    H224693   5.935   3.079   5.128
 8270TIP3   OH224694   7.074   1.512   3.790
 8270TIP3    H124695   6.998   1.533   3.844
 8270TIP3    H224696   7.084   1.587   3.732
 8271TIP3   OH224697   5.845   2.247   4.108
 8271TIP3    H124698   5.769   2.296   4.076
 8271TIP3    H224699   5.811   2.159   4.123
 8272TIP3   OH224700   6.902   2.890   3.340
 8272TIP3    H124701   6.896   2.983   3.319
 8272TIP3    H224702   6.990   2.864   3.313
 8273TIP3   OH224703   5.615   2.652   5.036
 8273TIP3    H124704   5.546   2.635   4.971
 8273TIP3    H224705   5.641   2.565   5.066
 8274TIP3   OH224706   5.460   2.848   4.691
 8274TIP3    H124707   5.551   2.873   4.707
 8274TIP3    H224708   5.409   2.925   4.718
 8275TIP3   OH224709   7.324   3.303   4.748
 8275TIP3    H124710   7.332   3.208   4.761
 8275TIP3    H224711   7.241   3.325   4.790
 8276TIP3   OH224712   6.420   3.081   4.865
 8276TIP3    H124713   6.412   3.172   4.893
 8276TIP3    H224714   6.353   3.034   4.915
 8277TIP3   OH224715   6.208   3.172   3.818
 8277TIP3    H124716   6.163   3.155   3.735
 8277TIP3    H224717   6.173   3.257   3.847
 8278TIP3   OH224718   5.637   3.036   4.193
 8278TIP3    H124719   5.684   3.028   4.276
 8278TIP3    H224720   5.591   2.953   4.183
 8279TIP3   OH224721   6.403   3.109   3.441
 8279TIP3    H124722   6.453   3.035   3.405
 8279TIP3    H224723   6.439   3.123   3.528
 8280TIP3   OH224724   6.461   3.143   3.711
 8280TIP3    H124725   6.377   3.151   3.756
 8280TIP3    H224726   6.516   3.094   3.771
 8281TIP3   OH224727   7.209   2.407   5.013
 8281TIP3    H124728   7.126   2.422   4.969
 8281TIP3    H224729   7.224   2.313   5.004
 8282TIP3   OH224730   5.821   2.832   5.007
 8282TIP3    H124731   5.871   2.816   5.087
 8282TIP3    H224732   5.745   2.774   5.014
 8283TIP3   OH224733   6.196   1.647   4.818
 8283TIP3    H124734   6.115   1.609   4.784
 8283TIP3    H224735   6.168   1.722   4.869
 8284TIP3   OH224736   6.738   1.769   5.021
 8284TIP3    H124737   6.813   1.746   5.075
 8284TIP3    H224738   6.662   1.745   5.073
 8285TIP3   OH224739   6.925   2.195   4.901
 8285TIP3    H124740   6.906   2.188   4.995
 8285TIP3    H224741   6.940   2.289   4.887
 8286TIP3   OH224742   6.643   2.254   3.465
 8286TIP3    H124743   6.598   2.261   3.381
 8286TIP3    H224744   6.725   2.302   3.453
 8287TIP3   OH224745   6.351   1.684   3.785
 8287TIP3    H124746   6.312   1.691   3.873
 8287TIP3    H224747   6.316   1.602   3.750
 8288TIP3   OH224748   6.156   2.156   4.836
 8288TIP3    H124749   6.103   2.171   4.914
 8288TIP3    H224750   6.139   2.231   4.780
 8289TIP3   OH224751   6.029   2.050   4.342
 8289TIP3    H124752   5.941   2.028   4.371
 8289TIP3    H224753   6.034   2.019   4.252
 8290TIP3   OH224754   6.502   2.131   4.075
 8290TIP3    H124755   6.454   2.203   4.033
 8290TIP3    H224756   6.559   2.097   4.006
 8291TIP3   OH224757   6.695   2.415   5.130
 8291TIP3    H124758   6.665   2.338   5.179
 8291TIP3    H224759   6.786   2.427   5.157
 8292TIP3   OH224760   6.665   2.140   4.298
 8292TIP3    H124761   6.605   2.162   4.227
 8292TIP3    H224762   6.716   2.066   4.265
 8293TIP3   OH224763   5.996   2.208   5.050
 8293TIP3    H124764   5.986   2.288   5.100
 8293TIP3    H224765   5.964   2.139   5.109
 8294TIP3   OH224766   6.018   1.664   3.762
 8294TIP3    H124767   6.008   1.668   3.857
 8294TIP3    H224768   5.939   1.707   3.728
 8295TIP3   OH224769   5.565   1.710   4.621
 8295TIP3    H124770   5.637   1.746   4.674
 8295TIP3    H224771   5.605   1.691   4.537
 8296TIP3   OH224772   5.465   1.686   4.132
 8296TIP3    H124773   5.510   1.727   4.058
 8296TIP3    H224774   5.398   1.750   4.157
 8297TIP3   OH224775   6.659   2.361   4.770
 8297TIP3    H124776   6.736   2.311   4.743
 8297TIP3    H224777   6.683   2.395   4.857
 8298TIP3   OH224778   6.379   1.864   4.400
 8298TIP3    H124779   6.298   1.846   4.448
 8298TIP3    H224780   6.448   1.826   4.454
 8299TIP3   OH224781   5.798   1.922   4.415
 8299TIP3    H124782   5.710   1.922   4.378
 8299TIP3    H224783   5.829   1.833   4.401
 8300TIP3   OH224784   6.032   1.932   4.094
 8300TIP3    H124785   6.127   1.942   4.082
 8300TIP3    H224786   5.995   1.949   4.008
 8301TIP3   OH224787   6.856   1.926   4.594
 8301TIP3    H124788   6.821   1.936   4.683
 8301TIP3    H224789   6.819   1.843   4.563
 8302TIP3   OH224790   5.919   1.956   3.846
 8302TIP3    H124791   5.858   1.905   3.793
 8302TIP3    H224792   5.973   2.003   3.782
 8303TIP3   OH224793   7.024   3.636   4.828
 8303TIP3    H124794   7.022   3.646   4.733
 8303TIP3    H224795   7.101   3.684   4.856
 8304TIP3   OH224796   5.970   2.737   5.237
 8304TIP3    H124797   6.052   2.759   5.281
 8304TIP3    H224798   5.902   2.751   5.304
 8305TIP3   OH224799   6.450   2.173   4.484
 8305TIP3    H124800   6.514   2.159   4.414
 8305TIP3    H224801   6.427   2.085   4.513
 8306TIP3   OH224802   5.931   1.676   4.394
 8306TIP3    H124803   5.900   1.601   4.446
 8306TIP3    H224804   5.951   1.639   4.308
 8307TIP3   OH224805   6.426   2.193   4.772
 8307TIP3    H124806   6.334   2.178   4.794
 8307TIP3    H224807   6.474   2.163   4.849
 8308TIP3   OH224808   6.140   2.469   3.884
 8308TIP3    H124809   6.065   2.417   3.858
 8308TIP3    H224810   6.113   2.510   3.966
 8309TIP3   OH224811   7.035   2.731   4.499
 8309TIP3    H124812   7.078   2.779   4.428
 8309TIP3    H224813   6.948   2.711   4.464
 8310TIP3   OH224814   6.604   1.787   3.794
 8310TIP3    H124815   6.511   1.766   3.787
 8310TIP3    H224816   6.606   1.882   3.802
 8311TIP3   OH224817   6.546   2.814   4.909
 8311TIP3    H124818   6.600   2.804   4.987
 8311TIP3    H224819   6.512   2.903   4.914
 8312TIP3   OH224820   6.663   2.054   3.859
 8312TIP3    H124821   6.758   2.057   3.866
 8312TIP3    H224822   6.640   2.131   3.806
 8313TIP3   OH224823   5.822   2.474   4.550
 8313TIP3    H124824   5.871   2.457   4.469
 8313TIP3    H224825   5.877   2.439   4.620
 8314TIP3   OH224826   6.294   2.628   3.722
 8314TIP3    H124827   6.247   2.711   3.720
 8314TIP3    H224828   6.241   2.571   3.778
 8315TIP3   OH224829   5.684   2.417   5.172
 8315TIP3    H124830   5.687   2.379   5.260
 8315TIP3    H224831   5.612   2.372   5.129
 8316TIP3   OH224832   6.471   2.574   5.187
 8316TIP3    H124833   6.407   2.531   5.131
 8316TIP3    H224834   6.555   2.535   5.161
 8317TIP3   OH224835   6.690   3.080   4.793
 8317TIP3    H124836   6.595   3.080   4.798
 8317TIP3    H224837   6.718   3.131   4.870
 8318TIP3   OH224838   7.073   2.140   3.674
 8318TIP3    H124839   7.017   2.095   3.612
 8318TIP3    H224840   7.081   2.229   3.639
 8319TIP3   OH224841   7.329   3.010   4.763
 8319TIP3    H124842   7.234   3.002   4.750
 8319TIP3    H224843   7.366   2.985   4.678
 8320TIP3   OH224844   6.817   2.973   3.598
 8320TIP3    H124845   6.816   2.902   3.662
 8320TIP3    H224846   6.839   2.929   3.515
 8321TIP3   OH224847   6.774   2.561   4.417
 8321TIP3    H124848   6.752   2.614   4.341
 8321TIP3    H224849   6.822   2.487   4.381
 8322TIP3   OH224850   5.963   2.829   4.197
 8322TIP3    H124851   5.960   2.904   4.137
 8322TIP3    H224852   5.878   2.831   4.241
 8323TIP3   OH224853   5.528   2.125   3.904
 8323TIP3    H124854   5.580   2.201   3.928
 8323TIP3    H224855   5.439   2.146   3.934
 8324TIP3   OH224856   6.033   2.578   4.108
 8324TIP3    H124857   6.020   2.669   4.134
 8324TIP3    H224858   6.007   2.527   4.185
 8325TIP3   OH224859   6.239   3.150   4.655
 8325TIP3    H124860   6.275   3.223   4.605
 8325TIP3    H224861   6.313   3.117   4.707
 8326TIP3   OH224862   5.872   3.052   4.048
 8326TIP3    H124863   5.786   3.060   4.088
 8326TIP3    H224864   5.910   3.140   4.054
 8327TIP3   OH224865   6.593   2.811   4.634
 8327TIP3    H124866   6.568   2.806   4.727
 8327TIP3    H224867   6.688   2.801   4.634
 8328TIP3   OH224868   6.581   2.691   3.503
 8328TIP3    H124869   6.638   2.663   3.575
 8328TIP3    H224870   6.495   2.655   3.524
 8329TIP3   OH224871   6.833   3.331   4.670
 8329TIP3    H124872   6.756   3.275   4.659
 8329TIP3    H224873   6.821   3.401   4.606
 8330TIP3   OH224874   6.900   3.164   3.305
 8330TIP3    H124875   6.941   3.237   3.259
 8330TIP3    H224876   6.820   3.202   3.344
 8331TIP3   OH224877   5.926   1.943   5.175
 8331TIP3    H124878   5.830   1.952   5.178
 8331TIP3    H224879   5.948   1.892   5.253
 8332TIP3   OH224880   6.762   2.598   3.687
 8332TIP3    H124881   6.746   2.550   3.769
 8332TIP3    H224882   6.858   2.606   3.683
 8333TIP3   OH224883   5.664   3.056   4.810
 8333TIP3    H124884   5.720   3.001   4.865
 8333TIP3    H224885   5.676   3.145   4.845
 8334TIP3   OH224886   5.931   2.658   3.512
 8334TIP3    H124887   5.944   2.567   3.486
 8334TIP3    H224888   5.921   2.655   3.607
 8335TIP3   OH224889   5.878   2.674   3.785
 8335TIP3    H124890   5.944   2.649   3.850
 8335TIP3    H224891   5.876   2.769   3.788
 8336TIP3   OH224892   5.624   2.369   3.992
 8336TIP3    H124893   5.561   2.420   4.042
 8336TIP3    H224894   5.646   2.425   3.917
 8337TIP3   OH224895   6.755   1.979   4.840
 8337TIP3    H124896   6.812   2.047   4.875
 8337TIP3    H224897   6.750   1.913   4.910
 8338TIP3   OH224898   6.665   1.739   4.060
 8338TIP3    H124899   6.644   1.755   3.968
 8338TIP3    H224900   6.710   1.819   4.089
 8339TIP3   OH224901   6.144   2.853   3.718
 8339TIP3    H124902   6.061   2.880   3.757
 8339TIP3    H224903   6.172   2.929   3.667
 8340TIP3   OH224904   6.313   1.939   4.141
 8340TIP3    H124905   6.376   2.007   4.114
 8340TIP3    H224906   6.334   1.923   4.233
 8341TIP3   OH224907   6.476   1.636   4.232
 8341TIP3    H124908   6.457   1.715   4.282
 8341TIP3    H224909   6.546   1.662   4.172
 8342TIP3   OH224910   5.895   2.946   3.797
 8342TIP3    H124911   5.877   3.017   3.736
 8342TIP3    H224912   5.887   2.986   3.883
 8343TIP3   OH224913   5.987   1.658   4.041
 8343TIP3    H124914   5.976   1.749   4.068
 8343TIP3    H224915   6.081   1.642   4.047
 8344TIP3   OH224916   7.202   2.142   4.911
 8344TIP3    H124917   7.106   2.139   4.910
 8344TIP3    H224918   7.229   2.084   4.840
 8345TIP3   OH224919   6.891   2.329   4.306
 8345TIP3    H124920   6.823   2.261   4.310
 8345TIP3    H224921   6.965   2.291   4.353
 8346TIP3   OH224922   5.634   2.542   3.770
 8346TIP3    H124923   5.705   2.605   3.781
 8346TIP3    H224924   5.667   2.479   3.706
 8347TIP3   OH224925   5.536   1.845   3.920
 8347TIP3    H124926   5.550   1.939   3.924
 8347TIP3    H224927   5.511   1.828   3.829
 8348TIP3   OH224928   6.862   3.365   4.267
 8348TIP3    H124929   6.825   3.415   4.195
 8348TIP3    H224930   6.920   3.301   4.225
 8349TIP3   OH224931   5.938   1.556   4.777
 8349TIP3    H124932   5.907   1.522   4.692
 8349TIP3    H224933   5.930   1.481   4.837
 8350TIP3   OH224934   5.460   2.816   4.175
 8350TIP3    H124935   5.426   2.854   4.256
 8350TIP3    H224936   5.411   2.861   4.105
 8351TIP3   OH224937   5.673   3.350   5.236
 8351TIP3    H124938   5.753   3.361   5.288
 8351TIP3    H224939   5.670   3.257   5.217
 8352TIP3   OH224940   6.128   3.253   5.281
 8352TIP3    H124941   6.219   3.227   5.291
 8352TIP3    H224942   6.096   3.200   5.208
 8353TIP3   OH224943   6.086   2.860   3.401
 8353TIP3    H124944   6.041   2.789   3.447
 8353TIP3    H224945   6.161   2.817   3.360
 8354TIP3   OH224946   6.747   3.203   5.034
 8354TIP3    H124947   6.758   3.134   5.099
 8354TIP3    H224948   6.821   3.261   5.048
 8355TIP3   OH224949   6.530   2.896   3.325
 8355TIP3    H124950   6.564   2.832   3.388
 8355TIP3    H224951   6.591   2.890   3.251
 8356TIP3   OH224952   5.764   2.748   5.426
 8356TIP3    H124953   5.785   2.655   5.440
 8356TIP3    H224954   5.676   2.747   5.389
 8357TIP3   OH224955   5.753   2.347   3.621
 8357TIP3    H124956   5.805   2.324   3.698
 8357TIP3    H224957   5.818   2.362   3.552
 8358TIP3   OH224958   6.393   2.845   5.213
 8358TIP3    H124959   6.349   2.864   5.130
 8358TIP3    H224960   6.436   2.761   5.199
 8359TIP3   OH224961   6.306   2.574   3.453
 8359TIP3    H124962   6.292   2.583   3.547
 8359TIP3    H224963   6.296   2.481   3.435
 8360TIP3   OH224964   6.853   2.856   4.795
 8360TIP3    H124965   6.933   2.893   4.756
 8360TIP3    H224966   6.792   2.930   4.798
 8361TIP3   OH224967   5.878   2.493   5.442
 8361TIP3    H124968   5.954   2.473   5.386
 8361TIP3    H224969   5.916   2.514   5.527
 8362TIP3   OH224970   5.928   2.294   3.834
 8362TIP3    H124971   5.915   2.263   3.923
 8362TIP3    H224972   5.978   2.223   3.792
 8363TIP3   OH224973   6.070   2.112   3.677
 8363TIP3    H124974   6.041   2.115   3.585
 8363TIP3    H224975   6.165   2.121   3.672
 8364TIP3   OH224976   6.741   2.751   5.176
 8364TIP3    H124977   6.814   2.715   5.125
 8364TIP3    H224978   6.739   2.698   5.255
 8365TIP3   OH224979   6.859   2.396   3.365
 8365TIP3    H124980   6.848   2.357   3.278
 8365TIP3    H224981   6.836   2.488   3.353
 8366TIP3   OH224982   6.319   2.137   5.186
 8366TIP3    H124983   6.347   2.056   5.144
 8366TIP3    H224984   6.258   2.177   5.123
 8367TIP3   OH224985   6.350   1.923   5.001
 8367TIP3    H124986   6.382   1.914   4.911
 8367TIP3    H224987   6.256   1.903   4.995
 8368TIP3   OH224988   6.954   2.445   5.242
 8368TIP3    H124989   7.003   2.363   5.242
 8368TIP3    H224990   7.022   2.513   5.243
 8369TIP3   OH224991   6.991   2.703   4.977
 8369TIP3    H124992   6.934   2.759   4.924
 8369TIP3    H224993   7.079   2.724   4.948
 8370TIP3   OH224994   6.226   2.231   5.434
 8370TIP3    H124995   6.159   2.167   5.459
 8370TIP3    H224996   6.253   2.203   5.346
 8371TIP3   OH224997   6.478   1.699   5.107
 8371TIP3    H124998   6.434   1.780   5.080
 8371TIP3    H224999   6.413   1.630   5.093
 8372TIP3   OH225000   6.623   2.199   5.293
 8372TIP3    H125001   6.646   2.193   5.386
 8372TIP3    H225002   6.532   2.170   5.289
 8373TIP3   OH225003   6.872   2.157   5.162
 8373TIP3    H125004   6.791   2.156   5.214
 8373TIP3    H225005   6.940   2.128   5.223
 8374TIP3   OH225006   7.089   2.103   5.328
 8374TIP3    H125007   7.102   2.009   5.334
 8374TIP3    H225008   7.081   2.133   5.419
 8375TIP3   OH225009   6.066   2.009   5.507
 8375TIP3    H125010   6.073   1.921   5.471
 8375TIP3    H225011   6.104   2.003   5.594
 8376TIP3   OH225012   6.547   1.686   5.371
 8376TIP3    H125013   6.620   1.623   5.369
 8376TIP3    H225014   6.518   1.691   5.280
 8377TIP3   OH225015   6.638   1.907   5.507
 8377TIP3    H125016   6.609   1.831   5.456
 8377TIP3    H225017   6.562   1.966   5.507
 8378TIP3   OH225018   5.893   3.153   3.613
 8378TIP3    H125019   5.983   3.134   3.589
 8378TIP3    H225020   5.857   3.200   3.538
 8379TIP3   OH225021   5.360   2.542   3.762
 8379TIP3    H125022   5.455   2.552   3.769
 8379TIP3    H225023   5.347   2.452   3.733
 8380TIP3   OH225024   5.262   3.114   4.252
 8380TIP3    H125025   5.203   3.058   4.201
 8380TIP3    H225026   5.305   3.054   4.312
 8381TIP3   OH225027   5.406   2.949   4.422
 8381TIP3    H125028   5.401   2.883   4.492
 8381TIP3    H225029   5.459   3.019   4.459
 8382TIP3   OH225030   7.158   3.340   4.223
 8382TIP3    H125031   7.168   3.379   4.310
 8382TIP3    H225032   7.215   3.392   4.167
 8383TIP3   OH225033   7.179   3.383   4.510
 8383TIP3    H125034   7.124   3.304   4.502
 8383TIP3    H225035   7.246   3.360   4.574
 8384TIP3   OH225036   7.215   3.091   5.092
 8384TIP3    H125037   7.142   3.102   5.153
 8384TIP3    H225038   7.260   3.175   5.093
 8385TIP3   OH225039   7.042   2.605   3.690
 8385TIP3    H125040   7.097   2.678   3.661
 8385TIP3    H225041   7.090   2.568   3.765
 8386TIP3   OH225042   7.172   2.463   3.893
 8386TIP3    H125043   7.104   2.432   3.954
 8386TIP3    H225044   7.238   2.502   3.950
 8387TIP3   OH225045   7.220   2.854   4.337
 8387TIP3    H125046   7.268   2.790   4.284
 8387TIP3    H225047   7.225   2.935   4.288
 8388TIP3   OH225048   7.011   3.164   4.520
 8388TIP3    H125049   6.940   3.213   4.564
 8388TIP3    H225050   6.967   3.119   4.448
 8389TIP3   OH225051   7.073   2.379   3.537
 8389TIP3    H125052   7.000   2.379   3.475
 8389TIP3    H225053   7.060   2.458   3.589
 8390TIP3   OH225054   6.920   2.027   3.478
 8390TIP3    H125055   6.875   2.063   3.402
 8390TIP3    H225056   6.915   1.932   3.465
 8391TIP3   OH225057   6.956   2.333   4.033
 8391TIP3    H125058   6.967   2.239   4.016
 8391TIP3    H225059   6.942   2.339   4.127
 8392TIP3   OH225060   5.585   2.376   4.800
 8392TIP3    H125061   5.575   2.349   4.709
 8392TIP3    H225062   5.680   2.383   4.813
 8393TIP3   OH225063   7.250   2.750   4.890
 8393TIP3    H125064   7.315   2.682   4.872
 8393TIP3    H225065   7.277   2.824   4.835
 8394TIP3   OH225066   7.417   2.530   4.881
 8394TIP3    H125067   7.346   2.489   4.931
 8394TIP3    H225068   7.494   2.475   4.900
 8395TIP3   OH225069   6.888   1.754   3.443
 8395TIP3    H125070   6.953   1.730   3.510
 8395TIP3    H225071   6.805   1.718   3.476
 8396TIP3   OH225072   6.952   2.050   3.914
 8396TIP3    H125073   6.999   1.967   3.927
 8396TIP3    H225074   6.993   2.088   3.837
 8397TIP3   OH225075   7.114   2.219   4.435
 8397TIP3    H125076   7.193   2.239   4.384
 8397TIP3    H225077   7.132   2.254   4.522
 8398TIP3   OH225078   7.192   2.356   4.665
 8398TIP3    H125079   7.132   2.386   4.733
 8398TIP3    H225080   7.225   2.437   4.624
 8399TIP3   OH225081   5.802   2.069   5.445
 8399TIP3    H125082   5.896   2.066   5.465
 8399TIP3    H225083   5.768   1.986   5.480
 8400TIP3   OH225084   7.644   1.960   5.203
 8400TIP3    H125085   7.710   1.905   5.162
 8400TIP3    H225086   7.607   2.011   5.131
 8401TIP3   OH225087   7.069   1.801   3.967
 8401TIP3    H125088   7.117   1.786   4.048
 8401TIP3    H225089   7.008   1.728   3.961
 8402TIP3   OH225090   5.774   1.781   4.792
 8402TIP3    H125091   5.828   1.702   4.798
 8402TIP3    H225092   5.837   1.851   4.773
 8403TIP3   OH225093   5.550   2.047   4.848
 8403TIP3    H125094   5.604   2.037   4.770
 8403TIP3    H225095   5.566   2.138   4.876
 8404TIP3   OH225096   7.487   2.083   5.013
 8404TIP3    H125097   7.415   2.120   5.063
 8404TIP3    H225098   7.448   2.013   4.962
 8405TIP3   OH225099   7.112   1.711   3.604
 8405TIP3    H125100   7.160   1.650   3.548
 8405TIP3    H225101   7.166   1.789   3.608
 8406TIP3   OH225102   5.546   1.554   4.357
 8406TIP3    H125103   5.461   1.540   4.399
 8406TIP3    H225104   5.526   1.607   4.280
 8407TIP3   OH225105   6.689   3.296   3.884
 8407TIP3    H125106   6.730   3.298   3.798
 8407TIP3    H225107   6.755   3.257   3.942
 8408TIP3   OH225108   5.771   1.613   5.182
 8408TIP3    H125109   5.721   1.608   5.264
 8408TIP3    H225110   5.715   1.662   5.123
 8409TIP3   OH225111   5.788   3.074   5.245
 8409TIP3    H125112   5.696   3.047   5.243
 8409TIP3    H225113   5.813   3.066   5.337
 8410TIP3   OH225114   6.010   3.113   4.803
 8410TIP3    H125115   5.960   3.189   4.772
 8410TIP3    H225116   6.095   3.121   4.759
 8411TIP3   OH225117   6.406   3.348   4.939
 8411TIP3    H125118   6.442   3.342   5.027
 8411TIP3    H225119   6.469   3.400   4.890
 8412TIP3   OH225120   6.601   3.499   4.814
 8412TIP3    H125121   6.667   3.448   4.767
 8412TIP3    H225122   6.651   3.558   4.870
 8413TIP3   OH225123   7.399   1.831   4.905
 8413TIP3    H125124   7.313   1.822   4.864
 8413TIP3    H225125   7.439   1.745   4.898
 8414TIP3   OH225126   5.669   3.346   4.853
 8414TIP3    H125127   5.578   3.363   4.829
 8414TIP3    H225128   5.691   3.416   4.915
 8415TIP3   OH225129   5.901   3.345   4.702
 8415TIP3    H125130   5.817   3.349   4.748
 8415TIP3    H225131   5.879   3.370   4.612
 8416TIP3   OH225132   6.320   3.360   4.496
 8416TIP3    H125133   6.251   3.373   4.430
 8416TIP3    H225134   6.331   3.446   4.536
 8417TIP3   OH225135   6.588   3.293   4.528
 8417TIP3    H125136   6.495   3.312   4.517
 8417TIP3    H225137   6.632   3.357   4.471
 8418TIP3   OH225138   6.800   3.522   4.473
 8418TIP3    H125139   6.781   3.606   4.432
 8418TIP3    H225140   6.824   3.465   4.401
 8419TIP3   OH225141   5.580   3.130   4.556
 8419TIP3    H125142   5.602   3.110   4.647
 8419TIP3    H225143   5.654   3.097   4.505
 8420TIP3   OH225144   5.787   3.013   4.423
 8420TIP3    H125145   5.798   2.930   4.469
 8420TIP3    H225146   5.872   3.056   4.431
 8421TIP3   OH225147   6.051   3.104   4.454
 8421TIP3    H125148   6.072   3.011   4.439
 8421TIP3    H225149   6.106   3.129   4.528
 8422TIP3   OH225150   6.574   1.731   4.532
 8422TIP3    H125151   6.545   1.663   4.593
 8422TIP3    H225152   6.657   1.698   4.498
 8423TIP3   OH225153   7.117   1.671   4.422
 8423TIP3    H125154   7.155   1.718   4.348
 8423TIP3    H225155   7.026   1.701   4.427
 8424TIP3   OH225156   7.230   1.748   4.185
 8424TIP3    H125157   7.298   1.685   4.161
 8424TIP3    H225158   7.271   1.833   4.173
 8425TIP3   OH225159   5.848   1.453   4.536
 8425TIP3    H125160   5.759   1.419   4.545
 8425TIP3    H225161   5.903   1.374   4.529
 8426TIP3   OH225162   5.672   1.362   4.188
 8426TIP3    H125163   5.698   1.411   4.110
 8426TIP3    H225164   5.637   1.428   4.247
 8427TIP3   OH225165   6.330   1.500   4.433
 8427TIP3    H125166   6.383   1.541   4.365
 8427TIP3    H225167   6.374   1.522   4.515
 8428TIP3   OH225168   6.822   1.647   4.437
 8428TIP3    H125169   6.832   1.618   4.346
 8428TIP3    H225170   6.835   1.569   4.490
 8429TIP3   OH225171   6.885   1.589   3.975
 8429TIP3    H125172   6.805   1.636   4.000
 8429TIP3    H225173   6.876   1.502   4.014
 8430TIP3   OH225174   5.327   2.934   3.965
 8430TIP3    H125175   5.244   2.908   3.924
 8430TIP3    H225176   5.345   3.021   3.928
 8431TIP3   OH225177   5.777   1.491   3.949
 8431TIP3    H125178   5.822   1.429   3.892
 8431TIP3    H225179   5.846   1.546   3.985
 8432TIP3   OH225180   6.262   1.686   4.049
 8432TIP3    H125181   6.321   1.633   4.101
 8432TIP3    H225182   6.279   1.776   4.076
 8433TIP3   OH225183   6.150   3.081   3.549
 8433TIP3    H125184   6.233   3.108   3.510
 8433TIP3    H225185   6.119   3.011   3.492
 8434TIP3   OH225186   6.831   3.245   3.643
 8434TIP3    H125187   6.831   3.149   3.640
 8434TIP3    H225188   6.791   3.271   3.560
 8435TIP3   OH225189   6.081   1.740   5.418
 8435TIP3    H125190   6.046   1.676   5.479
 8435TIP3    H225191   6.174   1.747   5.441
 8436TIP3   OH225192   6.328   1.740   5.540
 8436TIP3    H125193   6.407   1.717   5.491
 8436TIP3    H225194   6.323   1.673   5.608
 8437TIP3   OH225195   5.462   2.931   3.604
 8437TIP3    H125196   5.472   2.953   3.697
 8437TIP3    H225197   5.541   2.881   3.584
 8438TIP3   OH225198   7.150   1.832   5.328
 8438TIP3    H125199   7.166   1.802   5.417
 8438TIP3    H225200   7.235   1.827   5.285
 8439TIP3   OH225201   7.064   3.362   4.833
 8439TIP3    H125202   6.989   3.332   4.782
 8439TIP3    H225203   7.051   3.457   4.841
 8440TIP3   OH225204   8.344   2.754   3.569
 8440TIP3    H125205   8.311   2.840   3.543
 8440TIP3    H225206   8.273   2.693   3.546
 8441TIP3   OH225207   8.334   2.741   3.992
 8441TIP3    H125208   8.385   2.727   4.071
 8441TIP3    H225209   8.290   2.657   3.976
 8442TIP3   OH225210   7.643   2.603   4.343
 8442TIP3    H125211   7.683   2.553   4.415
 8442TIP3    H225212   7.717   2.630   4.289
 8443TIP3   OH225213   8.629   3.044   3.671
 8443TIP3    H125214   8.600   2.981   3.737
 8443TIP3    H225215   8.629   3.128   3.717
 8444TIP3   OH225216   7.638   3.026   4.009
 8444TIP3    H125217   7.616   2.934   4.027
 8444TIP3    H225218   7.733   3.029   4.012
 8445TIP3   OH225219   7.314   2.232   3.811
 8445TIP3    H125220   7.278   2.318   3.836
 8445TIP3    H225221   7.240   2.187   3.770
 8446TIP3   OH225222   7.399   2.552   4.032
 8446TIP3    H125223   7.452   2.475   4.055
 8446TIP3    H225224   7.464   2.619   4.012
 8447TIP3   OH225225   8.272   3.507   3.684
 8447TIP3    H125226   8.297   3.441   3.620
 8447TIP3    H225227   8.266   3.459   3.767
 8448TIP3   OH225228   8.153   2.963   3.997
 8448TIP3    H125229   8.198   2.883   3.972
 8448TIP3    H225230   8.222   3.019   4.033
 8449TIP3   OH225231   9.086   2.264   4.023
 8449TIP3    H125232   9.158   2.316   4.058
 8449TIP3    H225233   9.070   2.300   3.936
 8450TIP3   OH225234   8.551   2.447   4.038
 8450TIP3    H125235   8.589   2.364   4.065
 8450TIP3    H225236   8.516   2.430   3.951
 8451TIP3   OH225237   7.911   2.110   3.995
 8451TIP3    H125238   7.891   2.183   3.937
 8451TIP3    H225239   7.855   2.039   3.964
 8452TIP3   OH225240   8.599   2.213   3.638
 8452TIP3    H125241   8.666   2.200   3.706
 8452TIP3    H225242   8.647   2.250   3.564
 8453TIP3   OH225243   7.538   2.328   4.121
 8453TIP3    H125244   7.621   2.310   4.166
 8453TIP3    H225245   7.543   2.277   4.040
 8454TIP3   OH225246   7.954   2.526   3.940
 8454TIP3    H125247   8.049   2.511   3.947
 8454TIP3    H225248   7.919   2.444   3.906
 8455TIP3   OH225249   9.263   2.428   4.161
 8455TIP3    H125250   9.211   2.507   4.176
 8455TIP3    H225251   9.298   2.405   4.247
 8456TIP3   OH225252   7.894   2.116   4.446
 8456TIP3    H125253   7.844   2.153   4.374
 8456TIP3    H225254   7.841   2.132   4.524
 8457TIP3   OH225255   8.243   2.971   3.431
 8457TIP3    H125256   8.203   2.940   3.349
 8457TIP3    H225257   8.194   3.050   3.454
 8458TIP3   OH225258   7.983   2.890   4.205
 8458TIP3    H125259   7.930   2.963   4.239
 8458TIP3    H225260   8.034   2.929   4.133
 8459TIP3   OH225261   8.769   2.220   3.853
 8459TIP3    H125262   8.730   2.208   3.940
 8459TIP3    H225263   8.820   2.301   3.861
 8460TIP3   OH225264   7.782   2.222   4.216
 8460TIP3    H125265   7.836   2.297   4.239
 8460TIP3    H225266   7.830   2.179   4.145
 8461TIP3   OH225267   7.830   3.093   4.311
 8461TIP3    H125268   7.819   3.184   4.284
 8461TIP3    H225269   7.754   3.074   4.366
 8462TIP3   OH225270   7.207   2.801   3.574
 8462TIP3    H125271   7.174   2.827   3.488
 8462TIP3    H225272   7.231   2.883   3.617
 8463TIP3   OH225273   8.619   3.299   3.793
 8463TIP3    H125274   8.536   3.290   3.840
 8463TIP3    H225275   8.614   3.385   3.751
 8464TIP3   OH225276   8.916   2.151   4.201
 8464TIP3    H125277   8.827   2.169   4.171
 8464TIP3    H225278   8.972   2.184   4.131
 8465TIP3   OH225279   8.231   1.809   4.178
 8465TIP3    H125280   8.224   1.717   4.200
 8465TIP3    H225281   8.153   1.849   4.218
 8466TIP3   OH225282   8.364   3.357   3.466
 8466TIP3    H125283   8.410   3.273   3.461
 8466TIP3    H225284   8.432   3.422   3.449
 8467TIP3   OH225285   8.484   3.116   3.445
 8467TIP3    H125286   8.417   3.049   3.434
 8467TIP3    H225287   8.543   3.081   3.512
 8468TIP3   OH225288   8.836   3.160   4.133
 8468TIP3    H125289   8.832   3.086   4.073
 8468TIP3    H225290   8.825   3.237   4.076
 8469TIP3   OH225291   8.170   2.589   3.424
 8469TIP3    H125292   8.087   2.633   3.405
 8469TIP3    H225293   8.217   2.589   3.341
 8470TIP3   OH225294   8.136   2.401   3.110
 8470TIP3    H125295   8.202   2.450   3.161
 8470TIP3    H225296   8.187   2.334   3.065
 8471TIP3   OH225297   9.100   2.902   3.980
 8471TIP3    H125298   9.005   2.911   3.984
 8471TIP3    H225299   9.118   2.874   3.890
 8472TIP3   OH225300   8.524   2.700   3.369
 8472TIP3    H125301   8.469   2.726   3.443
 8472TIP3    H225302   8.604   2.666   3.408
 8473TIP3   OH225303   8.726   2.710   4.346
 8473TIP3    H125304   8.721   2.795   4.390
 8473TIP3    H225305   8.646   2.706   4.294
 8474TIP3   OH225306   7.759   2.660   3.786
 8474TIP3    H125307   7.724   2.598   3.722
 8474TIP3    H225308   7.832   2.613   3.827
 8475TIP3   OH225309   7.905   3.082   3.927
 8475TIP3    H125310   7.882   3.066   3.835
 8475TIP3    H225311   7.992   3.043   3.937
 8476TIP3   OH225312   7.853   2.654   4.164
 8476TIP3    H125313   7.892   2.618   4.084
 8476TIP3    H225314   7.900   2.736   4.178
 8477TIP3   OH225315   8.397   3.286   3.947
 8477TIP3    H125316   8.381   3.367   3.995
 8477TIP3    H225317   8.384   3.217   4.012
 8478TIP3   OH225318   8.038   3.172   4.483
 8478TIP3    H125319   7.977   3.229   4.529
 8478TIP3    H225320   7.984   3.123   4.421
 8479TIP3   OH225321   8.357   2.544   3.214
 8479TIP3    H125322   8.415   2.606   3.258
 8479TIP3    H225323   8.386   2.544   3.123
 8480TIP3   OH225324   7.788   2.740   4.635
 8480TIP3    H125325   7.793   2.834   4.656
 8480TIP3    H225326   7.694   2.723   4.624
 8481TIP3   OH225327   8.122   3.217   3.464
 8481TIP3    H125328   8.199   3.273   3.474
 8481TIP3    H225329   8.059   3.273   3.417
 8482TIP3   OH225330   7.831   3.323   4.563
 8482TIP3    H125331   7.799   3.351   4.478
 8482TIP3    H225332   7.754   3.324   4.620
 8483TIP3   OH225333   8.864   1.764   3.289
 8483TIP3    H125334   8.790   1.803   3.336
 8483TIP3    H225335   8.877   1.821   3.213
 8484TIP3   OH225336   7.632   2.501   3.587
 8484TIP3    H125337   7.554   2.550   3.560
 8484TIP3    H225338   7.600   2.413   3.606
 8485TIP3   OH225339   8.676   3.148   2.818
 8485TIP3    H125340   8.678   3.242   2.800
 8485TIP3    H225341   8.767   3.121   2.814
 8486TIP3   OH225342   7.419   2.908   4.527
 8486TIP3    H125343   7.352   2.888   4.462
 8486TIP3    H225344   7.455   2.823   4.551
 8487TIP3   OH225345   7.277   3.093   4.216
 8487TIP3    H125346   7.357   3.142   4.237
 8487TIP3    H225347   7.208   3.159   4.215
 8488TIP3   OH225348   8.963   3.541   4.254
 8488TIP3    H125349   8.984   3.448   4.266
 8488TIP3    H225350   8.912   3.563   4.332
 8489TIP3   OH225351   8.209   3.343   4.352
 8489TIP3    H125352   8.201   3.433   4.383
 8489TIP3    H225353   8.145   3.294   4.404
 8490TIP3   OH225354   7.999   3.425   3.298
 8490TIP3    H125355   7.953   3.403   3.217
 8490TIP3    H225356   7.960   3.507   3.327
 8491TIP3   OH225357   7.427   3.287   3.682
 8491TIP3    H125358   7.472   3.281   3.766
 8491TIP3    H225359   7.376   3.206   3.676
 8492TIP3   OH225360   8.203   3.367   2.934
 8492TIP3    H125361   8.253   3.294   2.897
 8492TIP3    H225362   8.240   3.378   3.021
 8493TIP3   OH225363   8.257   3.414   3.204
 8493TIP3    H125364   8.168   3.413   3.240
 8493TIP3    H225365   8.311   3.372   3.271
 8494TIP3   OH225366   8.961   2.657   4.512
 8494TIP3    H125367   8.883   2.682   4.462
 8494TIP3    H225368   8.982   2.569   4.480
 8495TIP3   OH225369   7.609   3.101   4.478
 8495TIP3    H125370   7.649   3.116   4.564
 8495TIP3    H225371   7.543   3.034   4.494
 8496TIP3   OH225372   7.994   1.898   4.303
 8496TIP3    H125373   7.909   1.865   4.273
 8496TIP3    H225374   7.973   1.980   4.349
 8497TIP3   OH225375   8.543   2.019   4.511
 8497TIP3    H125376   8.613   1.990   4.569
 8497TIP3    H225377   8.462   1.999   4.558
 8498TIP3   OH225378   8.731   2.441   4.421
 8498TIP3    H125379   8.703   2.437   4.512
 8498TIP3    H225380   8.716   2.533   4.396
 8499TIP3   OH225381   8.434   2.513   2.952
 8499TIP3    H125382   8.395   2.518   2.865
 8499TIP3    H225383   8.517   2.560   2.945
 8500TIP3   OH225384   8.143   1.943   3.272
 8500TIP3    H125385   8.108   1.948   3.361
 8500TIP3    H225386   8.110   1.860   3.239
 8501TIP3   OH225387   7.932   2.433   4.312
 8501TIP3    H125388   7.890   2.441   4.397
 8501TIP3    H225389   7.912   2.514   4.267
 8502TIP3   OH225390   7.815   2.310   3.833
 8502TIP3    H125391   7.726   2.287   3.858
 8502TIP3    H225392   7.825   2.278   3.744
 8503TIP3   OH225393   8.291   2.384   3.561
 8503TIP3    H125394   8.244   2.458   3.521
 8503TIP3    H225395   8.349   2.353   3.491
 8504TIP3   OH225396   8.474   2.646   4.629
 8504TIP3    H125397   8.448   2.580   4.692
 8504TIP3    H225398   8.564   2.668   4.651
 8505TIP3   OH225399   8.454   2.396   3.787
 8505TIP3    H125400   8.386   2.418   3.723
 8505TIP3    H225401   8.501   2.323   3.747
 8506TIP3   OH225402   7.777   2.449   4.538
 8506TIP3    H125403   7.790   2.513   4.608
 8506TIP3    H225404   7.759   2.366   4.584
 8507TIP3   OH225405   7.814   1.919   3.249
 8507TIP3    H125406   7.805   1.925   3.344
 8507TIP3    H225407   7.736   1.964   3.215
 8508TIP3   OH225408   7.366   1.969   4.117
 8508TIP3    H125409   7.434   2.006   4.173
 8508TIP3    H225410   7.407   1.961   4.031
 8509TIP3   OH225411   7.263   1.944   3.615
 8509TIP3    H125412   7.308   1.980   3.539
 8509TIP3    H225413   7.200   2.012   3.640
 8510TIP3   OH225414   8.492   2.651   4.207
 8510TIP3    H125415   8.520   2.585   4.144
 8510TIP3    H225416   8.446   2.602   4.275
 8511TIP3   OH225417   8.180   2.099   3.885
 8511TIP3    H125418   8.103   2.099   3.942
 8511TIP3    H225419   8.254   2.092   3.945
 8512TIP3   OH225420   7.575   2.186   3.890
 8512TIP3    H125421   7.487   2.189   3.853
 8512TIP3    H225422   7.605   2.096   3.875
 8513TIP3   OH225423   7.827   2.188   3.587
 8513TIP3    H125424   7.922   2.198   3.578
 8513TIP3    H225425   7.793   2.205   3.500
 8514TIP3   OH225426   8.633   2.184   4.099
 8514TIP3    H125427   8.603   2.203   4.187
 8514TIP3    H225428   8.569   2.123   4.064
 8515TIP3   OH225429   7.717   2.210   3.337
 8515TIP3    H125430   7.654   2.161   3.284
 8515TIP3    H225431   7.771   2.257   3.274
 8516TIP3   OH225432   8.776   3.857   4.310
 8516TIP3    H125433   8.856   3.911   4.316
 8516TIP3    H225434   8.796   3.780   4.363
 8517TIP3   OH225435   7.774   2.997   4.742
 8517TIP3    H125436   7.849   3.038   4.784
 8517TIP3    H225437   7.699   3.020   4.798
 8518TIP3   OH225438   8.226   2.472   3.989
 8518TIP3    H125439   8.295   2.425   3.942
 8518TIP3    H225440   8.223   2.431   4.076
 8519TIP3   OH225441   7.716   1.938   3.879
 8519TIP3    H125442   7.688   1.863   3.931
 8519TIP3    H225443   7.739   1.900   3.794
 8520TIP3   OH225444   8.196   2.374   4.252
 8520TIP3    H125445   8.109   2.405   4.276
 8520TIP3    H225446   8.256   2.426   4.306
 8521TIP3   OH225447   7.933   2.723   3.368
 8521TIP3    H125448   7.857   2.670   3.343
 8521TIP3    H225449   7.905   2.768   3.449
 8522TIP3   OH225450   8.827   2.960   3.947
 8522TIP3    H125451   8.852   3.009   3.869
 8522TIP3    H225452   8.744   2.918   3.923
 8523TIP3   OH225453   8.396   2.046   3.277
 8523TIP3    H125454   8.303   2.026   3.272
 8523TIP3    H225455   8.399   2.142   3.287
 8524TIP3   OH225456   8.329   3.056   4.397
 8524TIP3    H125457   8.383   3.050   4.476
 8524TIP3    H225458   8.279   3.137   4.409
 8525TIP3   OH225459   8.452   2.312   3.343
 8525TIP3    H125460   8.547   2.315   3.356
 8525TIP3    H225461   8.433   2.390   3.292
 8526TIP3   OH225462   7.620   2.730   4.016
 8526TIP3    H125463   7.660   2.718   3.930
 8526TIP3    H225464   7.689   2.705   4.078
 8527TIP3   OH225465   8.087   2.885   3.212
 8527TIP3    H125466   8.039   2.968   3.209
 8527TIP3    H225467   8.032   2.828   3.265
 8528TIP3   OH225468   7.514   2.676   4.655
 8528TIP3    H125469   7.522   2.654   4.748
 8528TIP3    H225470   7.438   2.627   4.625
 8529TIP3   OH225471   8.245   2.802   4.677
 8529TIP3    H125472   8.175   2.743   4.647
 8529TIP3    H225473   8.325   2.761   4.645
 8530TIP3   OH225474   8.479   3.343   4.285
 8530TIP3    H125475   8.384   3.342   4.301
 8530TIP3    H225476   8.514   3.396   4.357
 8531TIP3   OH225477   8.863   2.390   3.182
 8531TIP3    H125478   8.824   2.337   3.111
 8531TIP3    H225479   8.869   2.478   3.145
 8532TIP3   OH225480   9.042   3.275   4.264
 8532TIP3    H125481   8.958   3.245   4.230
 8532TIP3    H225482   9.106   3.216   4.225
 8533TIP3   OH225483   8.589   3.196   3.084
 8533TIP3    H125484   8.584   3.118   3.140
 8533TIP3    H225485   8.621   3.163   3.000
 8534TIP3   OH225486   8.582   2.843   3.866
 8534TIP3    H125487   8.493   2.824   3.895
 8534TIP3    H225488   8.611   2.762   3.824
 8535TIP3   OH225489   7.749   3.086   3.689
 8535TIP3    H125490   7.737   3.160   3.630
 8535TIP3    H225491   7.670   3.086   3.743
 8536TIP3   OH225492   7.313   2.370   3.400
 8536TIP3    H125493   7.355   2.454   3.423
 8536TIP3    H225494   7.231   2.370   3.451
 8537TIP3   OH225495   7.826   2.844   3.586
 8537TIP3    H125496   7.809   2.932   3.617
 8537TIP3    H225497   7.805   2.787   3.660
 8538TIP3   OH225498   8.032   3.407   4.141
 8538TIP3    H125499   8.066   3.483   4.093
 8538TIP3    H225500   8.105   3.379   4.196
 8539TIP3   OH225501   7.660   3.305   3.535
 8539TIP3    H125502   7.573   3.308   3.576
 8539TIP3    H225503   7.692   3.395   3.540
 8540TIP3   OH225504   8.378   3.067   4.124
 8540TIP3    H125505   8.360   3.066   4.218
 8540TIP3    H225506   8.464   3.025   4.115
 8541TIP3   OH225507   8.375   2.951   2.982
 8541TIP3    H125508   8.431   2.932   3.057
 8541TIP3    H225509   8.294   2.904   3.001
 8542TIP3   OH225510   8.627   3.551   4.125
 8542TIP3    H125511   8.544   3.505   4.139
 8542TIP3    H225512   8.605   3.620   4.061
 8543TIP3   OH225513   8.688   3.421   2.788
 8543TIP3    H125514   8.722   3.495   2.737
 8543TIP3    H225515   8.613   3.458   2.835
 8544TIP3   OH225516   7.726   2.191   4.655
 8544TIP3    H125517   7.631   2.197   4.660
 8544TIP3    H225518   7.751   2.138   4.731
 8545TIP3   OH225519   8.573   2.895   3.167
 8545TIP3    H125520   8.560   2.835   3.241
 8545TIP3    H225521   8.668   2.897   3.154
 8546TIP3   OH225522   7.476   3.286   4.307
 8546TIP3    H125523   7.529   3.224   4.358
 8546TIP3    H225524   7.488   3.370   4.352
 8547TIP3   OH225525   7.730   2.913   3.000
 8547TIP3    H125526   7.741   2.822   2.974
 8547TIP3    H225527   7.717   2.910   3.095
 8548TIP3   OH225528   7.671   2.931   3.273
 8548TIP3    H125529   7.729   2.906   3.345
 8548TIP3    H225530   7.670   3.027   3.276
 8549TIP3   OH225531   7.403   2.622   3.482
 8549TIP3    H125532   7.340   2.672   3.534
 8549TIP3    H225533   7.424   2.680   3.408
 8550TIP3   OH225534   8.554   2.244   4.353
 8550TIP3    H125535   8.628   2.296   4.384
 8550TIP3    H225536   8.552   2.169   4.413
 8551TIP3   OH225537   8.448   2.000   3.546
 8551TIP3    H125538   8.430   2.018   3.454
 8551TIP3    H225539   8.492   2.078   3.579
 8552TIP3   OH225540   7.941   3.113   3.205
 8552TIP3    H125541   7.857   3.138   3.244
 8552TIP3    H225542   7.964   3.187   3.149
 8553TIP3   OH225543   8.106   2.194   3.634
 8553TIP3    H125544   8.167   2.262   3.607
 8553TIP3    H225545   8.130   2.173   3.724
 8554TIP3   OH225546   8.398   2.486   4.406
 8554TIP3    H125547   8.424   2.531   4.486
 8554TIP3    H225548   8.448   2.404   4.407
 8555TIP3   OH225549   8.270   1.888   3.722
 8555TIP3    H125550   8.246   1.965   3.774
 8555TIP3    H225551   8.338   1.919   3.663
 8556TIP3   OH225552   7.693   3.204   3.282
 8556TIP3    H125553   7.674   3.277   3.223
 8556TIP3    H225554   7.679   3.241   3.370
 8557TIP3   OH225555   7.785   1.914   3.528
 8557TIP3    H125556   7.773   2.005   3.556
 8557TIP3    H225557   7.879   1.899   3.535
 8558TIP3   OH225558   8.996   2.416   4.377
 8558TIP3    H125559   8.902   2.407   4.391
 8558TIP3    H225560   9.011   2.381   4.289
 8559TIP3   OH225561   8.668   2.590   3.768
 8559TIP3    H125562   8.593   2.533   3.783
 8559TIP3    H225563   8.740   2.548   3.816
 8560TIP3   OH225564   7.429   2.795   3.264
 8560TIP3    H125565   7.500   2.859   3.273
 8560TIP3    H225566   7.461   2.733   3.198
 8561TIP3   OH225567   7.331   2.092   3.395
 8561TIP3    H125568   7.347   2.186   3.405
 8561TIP3    H225569   7.276   2.085   3.317
 8562TIP3   OH225570   8.640   3.567   3.693
 8562TIP3    H125571   8.619   3.553   3.600
 8562TIP3    H225572   8.730   3.600   3.693
 8563TIP3   OH225573   7.730   1.814   4.267
 8563TIP3    H125574   7.701   1.781   4.182
 8563TIP3    H225575   7.723   1.738   4.325
 8564TIP3   OH225576   7.251   3.065   3.667
 8564TIP3    H125577   7.204   3.096   3.745
 8564TIP3    H225578   7.208   3.110   3.594
 8565TIP3   OH225579   7.439   3.591   4.741
 8565TIP3    H125580   7.519   3.583   4.792
 8565TIP3    H225581   7.407   3.501   4.732
 8566TIP3   OH225582   7.884   3.112   2.885
 8566TIP3    H125583   7.838   3.043   2.932
 8566TIP3    H225584   7.960   3.068   2.846
 8567TIP3   OH225585   8.576   3.476   4.511
 8567TIP3    H125586   8.585   3.406   4.576
 8567TIP3    H225587   8.659   3.524   4.515
 8568TIP3   OH225588   8.328   3.158   2.810
 8568TIP3    H125589   8.359   3.094   2.874
 8568TIP3    H225590   8.389   3.151   2.737
 8569TIP3   OH225591   7.556   3.001   4.921
 8569TIP3    H125592   7.575   2.908   4.926
 8569TIP3    H225593   7.471   3.007   4.877
 8570TIP3   OH225594   7.551   2.607   3.108
 8570TIP3    H125595   7.601   2.582   3.186
 8570TIP3    H225596   7.617   2.621   3.040
 8571TIP3   OH225597   8.178   3.076   4.699
 8571TIP3    H125598   8.135   3.099   4.617
 8571TIP3    H225599   8.210   2.987   4.686
 8572TIP3   OH225600   8.116   2.828   2.945
 8572TIP3    H125601   8.096   2.838   3.038
 8572TIP3    H225602   8.099   2.736   2.927
 8573TIP3   OH225603   8.630   3.113   4.306
 8573TIP3    H125604   8.702   3.135   4.247
 8573TIP3    H225605   8.571   3.187   4.300
 8574TIP3   OH225606   7.674   2.742   4.920
 8574TIP3    H125607   7.746   2.746   4.858
 8574TIP3    H225608   7.712   2.769   5.004
 8575TIP3   OH225609   7.722   2.549   3.321
 8575TIP3    H125610   7.702   2.520   3.410
 8575TIP3    H225611   7.771   2.477   3.282
 8576TIP3   OH225612   8.041   2.630   4.576
 8576TIP3    H125613   7.957   2.674   4.589
 8576TIP3    H225614   8.072   2.662   4.491
 8577TIP3   OH225615   7.866   2.366   3.168
 8577TIP3    H125616   7.836   2.371   3.077
 8577TIP3    H225617   7.961   2.375   3.162
 8578TIP3   OH225618   8.519   3.008   4.655
 8578TIP3    H125619   8.592   2.972   4.605
 8578TIP3    H225620   8.515   2.954   4.734
 8579TIP3   OH225621   8.654   2.657   2.870
 8579TIP3    H125622   8.649   2.617   2.783
 8579TIP3    H225623   8.634   2.749   2.855
 8580TIP3   OH225624   8.142   2.399   4.685
 8580TIP3    H125625   8.147   2.329   4.620
 8580TIP3    H225626   8.109   2.475   4.637
 8581TIP3   OH225627   8.154   2.201   4.482
 8581TIP3    H125628   8.181   2.238   4.398
 8581TIP3    H225629   8.063   2.173   4.468
 8582TIP3   OH225630   8.156   2.738   4.354
 8582TIP3    H125631   8.241   2.782   4.351
 8582TIP3    H225632   8.098   2.793   4.302
 8583TIP3   OH225633   8.734   2.690   4.733
 8583TIP3    H125634   8.773   2.603   4.722
 8583TIP3    H225635   8.808   2.751   4.726
 8584TIP3   OH225636   8.751   2.953   4.486
 8584TIP3    H125637   8.696   3.010   4.432
 8584TIP3    H225638   8.840   2.968   4.455
 8585TIP3   OH225639   8.029   2.479   4.930
 8585TIP3    H125640   7.958   2.417   4.949
 8585TIP3    H225641   8.057   2.457   4.841
 8586TIP3   OH225642   8.276   1.969   4.586
 8586TIP3    H125643   8.236   2.050   4.553
 8586TIP3    H225644   8.208   1.902   4.573
 8587TIP3   OH225645   8.397   2.439   4.791
 8587TIP3    H125646   8.384   2.426   4.885
 8587TIP3    H225647   8.312   2.418   4.752
 8588TIP3   OH225648   8.652   2.406   4.675
 8588TIP3    H125649   8.571   2.400   4.726
 8588TIP3    H225650   8.720   2.370   4.733
 8589TIP3   OH225651   8.893   2.354   4.813
 8589TIP3    H125652   8.898   2.259   4.825
 8589TIP3    H225653   8.881   2.388   4.902
 8590TIP3   OH225654   7.857   2.264   4.995
 8590TIP3    H125655   7.864   2.176   4.958
 8590TIP3    H225656   7.897   2.257   5.082
 8591TIP3   OH225657   8.335   1.947   4.854
 8591TIP3    H125658   8.407   1.884   4.853
 8591TIP3    H225659   8.309   1.956   4.762
 8592TIP3   OH225660   8.434   2.161   4.995
 8592TIP3    H125661   8.402   2.089   4.941
 8592TIP3    H225662   8.361   2.224   4.997
 8593TIP3   OH225663   7.693   3.415   3.101
 8593TIP3    H125664   7.782   3.392   3.072
 8593TIP3    H225665   7.654   3.460   3.026
 8594TIP3   OH225666   7.154   2.801   3.264
 8594TIP3    H125667   7.249   2.809   3.269
 8594TIP3    H225668   7.139   2.713   3.231
 8595TIP3   OH225669   7.049   3.382   3.741
 8595TIP3    H125670   6.978   3.336   3.697
 8595TIP3    H225671   7.085   3.318   3.802
 8596TIP3   OH225672   7.144   3.179   3.902
 8596TIP3    H125673   7.060   3.148   3.938
 8596TIP3    H225674   7.201   3.189   3.978
 8597TIP3   OH225675   8.893   3.677   3.715
 8597TIP3    H125676   8.922   3.666   3.806
 8597TIP3    H225677   8.970   3.657   3.663
 8598TIP3   OH225678   8.938   3.619   3.989
 8598TIP3    H125679   8.894   3.536   3.968
 8598TIP3    H225680   8.957   3.613   4.082
 8599TIP3   OH225681   9.009   3.395   4.606
 8599TIP3    H125682   8.939   3.371   4.667
 8599TIP3    H225683   8.974   3.472   4.560
 8600TIP3   OH225684   8.963   2.696   3.375
 8600TIP3    H125685   8.879   2.670   3.413
 8600TIP3    H225686   8.939   2.749   3.299
 8601TIP3   OH225687   8.974   3.099   3.751
 8601TIP3    H125688   8.956   3.039   3.678
 8601TIP3    H225689   8.982   3.185   3.709
 8602TIP3   OH225690   8.795   3.385   3.986
 8602TIP3    H125691   8.738   3.437   4.043
 8602TIP3    H225692   8.737   3.354   3.917
 8603TIP3   OH225693   8.854   2.628   3.055
 8603TIP3    H125694   8.781   2.634   2.994
 8603TIP3    H225695   8.881   2.718   3.071
 8604TIP3   OH225696   8.725   2.278   2.971
 8604TIP3    H125697   8.678   2.316   2.897
 8604TIP3    H225698   8.713   2.183   2.961
 8605TIP3   OH225699   8.738   2.584   3.498
 8605TIP3    H125700   8.742   2.489   3.486
 8605TIP3    H225701   8.718   2.595   3.592
 8606TIP3   OH225702   7.378   2.616   4.297
 8606TIP3    H125703   7.370   2.599   4.203
 8606TIP3    H225704   7.472   2.622   4.313
 8607TIP3   OH225705   9.009   2.997   4.400
 8607TIP3    H125706   9.077   2.930   4.406
 8607TIP3    H225707   9.032   3.047   4.321
 8608TIP3   OH225708   9.186   2.790   4.439
 8608TIP3    H125709   9.112   2.740   4.474
 8608TIP3    H225710   9.256   2.725   4.428
 8609TIP3   OH225711   8.677   2.009   2.941
 8609TIP3    H125712   8.742   1.978   3.004
 8609TIP3    H225713   8.594   1.971   2.971
 8610TIP3   OH225714   8.732   2.310   3.409
 8610TIP3    H125715   8.778   2.228   3.427
 8610TIP3    H225716   8.774   2.344   3.330
 8611TIP3   OH225717   8.896   2.466   3.882
 8611TIP3    H125718   8.978   2.500   3.846
 8611TIP3    H225719   8.888   2.509   3.968
 8612TIP3   OH225720   8.882   2.594   4.122
 8612TIP3    H125721   8.823   2.636   4.184
 8612TIP3    H225722   8.969   2.624   4.148
 8613TIP3   OH225723   7.595   2.321   4.926
 8613TIP3    H125724   7.688   2.319   4.947
 8613TIP3    H225725   7.559   2.242   4.966
 8614TIP3   OH225726   8.850   2.070   3.474
 8614TIP3    H125727   8.905   2.055   3.551
 8614TIP3    H225728   8.793   1.993   3.470
 8615TIP3   OH225729   7.571   2.041   4.292
 8615TIP3    H125730   7.624   1.961   4.294
 8615TIP3    H225731   7.633   2.111   4.271
 8616TIP3   OH225732   7.347   2.317   4.327
 8616TIP3    H125733   7.406   2.300   4.254
 8616TIP3    H225734   7.361   2.410   4.348
 8617TIP3   OH225735   9.264   2.352   4.477
 8617TIP3    H125736   9.206   2.392   4.542
 8617TIP3    H225737   9.211   2.284   4.436
 8618TIP3   OH225738   8.907   1.941   3.080
 8618TIP3    H125739   8.973   1.926   3.012
 8618TIP3    H225740   8.947   2.006   3.138
 8619TIP3   OH225741   7.338   1.806   3.839
 8619TIP3    H125742   7.254   1.798   3.883
 8619TIP3    H225743   7.321   1.863   3.764
 8620TIP3   OH225744   8.546   3.549   3.395
 8620TIP3    H125745   8.569   3.505   3.313
 8620TIP3    H225746   8.578   3.639   3.383
 8621TIP3   OH225747   7.566   1.871   4.675
 8621TIP3    H125748   7.515   1.867   4.756
 8621TIP3    H225749   7.509   1.917   4.613
 8622TIP3   OH225750   7.609   3.308   4.728
 8622TIP3    H125751   7.515   3.304   4.743
 8622TIP3    H225752   7.641   3.375   4.788
 8623TIP3   OH225753   7.801   3.370   4.284
 8623TIP3    H125754   7.753   3.448   4.256
 8623TIP3    H225755   7.887   3.379   4.242
 8624TIP3   OH225756   8.211   3.611   4.422
 8624TIP3    H125757   8.253   3.602   4.507
 8624TIP3    H225758   8.275   3.659   4.368
 8625TIP3   OH225759   8.409   3.754   4.287
 8625TIP3    H125760   8.484   3.697   4.266
 8625TIP3    H225761   8.445   3.819   4.347
 8626TIP3   OH225762   9.131   2.125   4.386
 8626TIP3    H125763   9.048   2.142   4.341
 8626TIP3    H225764   9.168   2.050   4.339
 8627TIP3   OH225765   7.476   3.628   4.341
 8627TIP3    H125766   7.383   3.645   4.322
 8627TIP3    H225767   7.496   3.684   4.415
 8628TIP3   OH225768   7.704   3.612   4.189
 8628TIP3    H125769   7.623   3.618   4.240
 8628TIP3    H225770   7.677   3.631   4.099
 8629TIP3   OH225771   8.097   3.621   3.976
 8629TIP3    H125772   8.021   3.631   3.918
 8629TIP3    H225773   8.110   3.708   4.014
 8630TIP3   OH225774   8.354   3.546   4.031
 8630TIP3    H125775   8.263   3.567   4.011
 8630TIP3    H225776   8.404   3.623   4.003
 8631TIP3   OH225777   8.557   3.720   3.917
 8631TIP3    H125778   8.522   3.799   3.875
 8631TIP3    H225779   8.588   3.667   3.844
 8632TIP3   OH225780   7.391   3.398   4.066
 8632TIP3    H125781   7.418   3.364   4.151
 8632TIP3    H225782   7.449   3.355   4.003
 8633TIP3   OH225783   7.580   3.271   3.910
 8633TIP3    H125784   7.589   3.187   3.953
 8633TIP3    H225785   7.665   3.313   3.919
 8634TIP3   OH225786   7.849   3.357   3.937
 8634TIP3    H125787   7.868   3.264   3.922
 8634TIP3    H225788   7.902   3.381   4.013
 8635TIP3   OH225789   8.410   2.008   4.021
 8635TIP3    H125790   8.370   1.937   4.072
 8635TIP3    H225791   8.478   1.965   3.969
 8636TIP3   OH225792   8.921   1.921   3.893
 8636TIP3    H125793   8.963   1.976   3.828
 8636TIP3    H225794   8.836   1.962   3.909
 8637TIP3   OH225795   9.040   2.043   3.675
 8637TIP3    H125796   9.113   1.993   3.638
 8637TIP3    H225797   9.066   2.134   3.667
 8638TIP3   OH225798   7.644   1.712   4.024
 8638TIP3    H125799   7.555   1.677   4.034
 8638TIP3    H225800   7.699   1.634   4.015
 8639TIP3   OH225801   7.466   1.615   3.672
 8639TIP3    H125802   7.494   1.665   3.595
 8639TIP3    H225803   7.429   1.681   3.731
 8640TIP3   OH225804   8.124   1.751   3.920
 8640TIP3    H125805   8.174   1.796   3.851
 8640TIP3    H225806   8.165   1.780   4.002
 8641TIP3   OH225807   8.624   1.885   3.898
 8641TIP3    H125808   8.653   1.848   3.815
 8641TIP3    H225809   8.627   1.812   3.960
 8642TIP3   OH225810   8.673   1.858   3.467
 8642TIP3    H125811   8.591   1.901   3.492
 8642TIP3    H225812   8.662   1.768   3.496
 8643TIP3   OH225813   7.141   3.184   3.444
 8643TIP3    H125814   7.056   3.151   3.416
 8643TIP3    H225815   7.144   3.274   3.411
 8644TIP3   OH225816   7.576   1.746   3.438
 8644TIP3    H125817   7.622   1.685   3.380
 8644TIP3    H225818   7.644   1.802   3.473
 8645TIP3   OH225819   8.060   1.942   3.537
 8645TIP3    H125820   8.119   1.890   3.591
 8645TIP3    H225821   8.075   2.032   3.565
 8646TIP3   OH225822   7.946   3.335   3.029
 8646TIP3    H125823   8.031   3.361   2.992
 8646TIP3    H225824   7.916   3.264   2.972
 8647TIP3   OH225825   8.604   3.463   3.136
 8647TIP3    H125826   8.603   3.367   3.125
 8647TIP3    H225827   8.568   3.496   3.054
 8648TIP3   OH225828   7.875   1.996   4.903
 8648TIP3    H125829   7.842   1.930   4.963
 8648TIP3    H225830   7.968   2.005   4.926
 8649TIP3   OH225831   8.122   2.001   5.028
 8649TIP3    H125832   8.198   1.979   4.974
 8649TIP3    H225833   8.117   1.931   5.093
 8650TIP3   OH225834   7.255   3.181   3.091
 8650TIP3    H125835   7.256   3.186   3.186
 8650TIP3    H225836   7.336   3.133   3.069
 8651TIP3   OH225837   8.943   2.082   4.830
 8651TIP3    H125838   8.966   2.047   4.916
 8651TIP3    H225839   9.021   2.069   4.776
 8652TIP3   OH225840   9.048   2.422   3.384
 8652TIP3    H125841   9.046   2.517   3.393
 8652TIP3    H225842   8.991   2.405   3.308
 8653TIP3   OH225843   9.184   2.826   3.468
 8653TIP3    H125844   9.107   2.774   3.443
 8653TIP3    H225845   9.210   2.871   3.388
 8654TIP3   OH225846   9.176   3.222   3.921
 8654TIP3    H125847   9.105   3.172   3.881
 8654TIP3    H225848   9.249   3.160   3.925
 8655TIP3   OH225849   9.051   3.329   3.615
 8655TIP3    H125850   9.121   3.329   3.550
 8655TIP3    H225851   9.080   3.391   3.682
 8656TIP3   OH225852   9.176   3.557   3.180
 8656TIP3    H125853   9.223   3.530   3.258
 8656TIP3    H225854   9.134   3.477   3.148
 8657TIP3   OH225855   9.300   3.396   4.101
 8657TIP3    H125856   9.375   3.383   4.044
 8657TIP3    H225857   9.232   3.339   4.065
 8658TIP3   OH225858   9.113   2.304   3.628
 8658TIP3    H125859   9.131   2.384   3.678
 8658TIP3    H225860   9.094   2.335   3.540
 8659TIP3   OH225861   9.346   2.773   4.044
 8659TIP3    H125862   9.391   2.816   4.117
 8659TIP3    H225863   9.283   2.839   4.013
 8660TIP3   OH225864   9.011   2.733   2.835
 8660TIP3    H125865   9.012   2.802   2.902
 8660TIP3    H225866   8.986   2.654   2.883
 8661TIP3   OH225867   9.165   3.484   3.813
 8661TIP3    H125868   9.167   3.407   3.869
 8661TIP3    H225869   9.156   3.558   3.873
 8662TIP3   OH225870   9.060   3.319   3.102
 8662TIP3    H125871   9.033   3.228   3.111
 8662TIP3    H225872   9.028   3.346   3.016
 8663TIP3   OH225873   9.261   3.956   4.224
 8663TIP3    H125874   9.304   3.961   4.310
 8663TIP3    H225875   9.218   3.870   4.224
 8664TIP3   OH225876   9.446   3.140   4.295
 8664TIP3    H125877   9.503   3.216   4.307
 8664TIP3    H225878   9.364   3.163   4.339
 8665TIP3   OH225879   8.934   3.059   2.795
 8665TIP3    H125880   8.943   3.026   2.885
 8665TIP3    H225881   8.943   2.980   2.741
 8666TIP3   OH225882   8.817   3.621   3.204
 8666TIP3    H125883   8.755   3.561   3.163
 8666TIP3    H225884   8.856   3.570   3.275
 8667TIP3   OH225885   8.900   3.495   3.429
 8667TIP3    H125886   8.903   3.407   3.466
 8667TIP3    H225887   8.974   3.540   3.469
 8668TIP3   OH225888   9.207   2.826   3.738
 8668TIP3    H125889   9.190   2.824   3.644
 8668TIP3    H225890   9.285   2.881   3.747
 8669TIP3   OH225891   9.371   2.594   4.417
 8669TIP3    H125892   9.462   2.594   4.446
 8669TIP3    H225893   9.338   2.507   4.439
 8670TIP3   OH225894   9.152   2.547   3.792
 8670TIP3    H125895   9.239   2.530   3.829
 8670TIP3    H225896   9.155   2.639   3.766
 8671TIP3   OH225897   9.020   2.113   3.259
 8671TIP3    H125898   8.966   2.097   3.336
 8671TIP3    H225899   9.060   2.199   3.275
 8672TIP3   OH225900   9.397   3.579   4.277
 8672TIP3    H125901   9.366   3.515   4.212
 8672TIP3    H225902   9.429   3.525   4.349
 8673TIP3   OH225903   9.205   3.837   3.702
 8673TIP3    H125904   9.132   3.898   3.712
 8673TIP3    H225905   9.217   3.799   3.789
 8674TIP3   OH225906   9.475   3.830   3.646
 8674TIP3    H125907   9.384   3.840   3.672
 8674TIP3    H225908   9.486   3.891   3.573
 8675TIP3   OH225909   9.114   3.638   3.530
 8675TIP3    H125910   9.164   3.698   3.587
 8675TIP3    H225911   9.181   3.583   3.490
 8676TIP3   OH225912   9.301   3.462   3.410
 8676TIP3    H125913   9.353   3.396   3.363
 8676TIP3    H225914   9.358   3.493   3.479
 8677TIP3   OH225915   8.958   3.434   2.868
 8677TIP3    H125916   8.872   3.393   2.857
 8677TIP3    H225917   8.939   3.528   2.865
 8678TIP3   OH225918   9.043   3.437   2.599
 8678TIP3    H125919   9.035   3.443   2.694
 8678TIP3    H225920   9.024   3.345   2.579
 8679TIP3   OH225921   0.803   3.495   5.271
 8679TIP3    H125922   0.776   3.587   5.276
 8679TIP3    H225923   0.728   3.450   5.231
 8680TIP3   OH225924   0.838   3.532   5.685
 8680TIP3    H125925   0.876   3.506   5.768
 8680TIP3    H225926   0.770   3.467   5.667
 8681TIP3   OH225927   0.247   3.456   5.962
 8681TIP3    H125928   0.183   3.387   5.981
 8681TIP3    H225929   0.279   3.483   6.048
 8682TIP3   OH225930   1.067   3.837   5.355
 8682TIP3    H125931   1.057   3.771   5.424
 8682TIP3    H225932   1.085   3.918   5.402
 8683TIP3   OH225933   0.218   3.807   5.720
 8683TIP3    H125934   0.125   3.798   5.739
 8683TIP3    H225935   0.259   3.818   5.806
 8684TIP3   OH225936   9.444   3.084   5.449
 8684TIP3    H125937   9.353   3.069   5.473
 8684TIP3    H225938   9.494   3.061   5.527
 8685TIP3   OH225939   9.781   3.355   5.690
 8685TIP3    H125940   9.803   3.267   5.719
 8685TIP3    H225941   9.725   3.343   5.614
 8686TIP3   OH225942   0.744   4.266   5.377
 8686TIP3    H125943   0.757   4.203   5.306
 8686TIP3    H225944   0.756   4.215   5.457
 8687TIP3   OH225945   1.645   3.071   5.705
 8687TIP3    H125946   1.659   3.157   5.745
 8687TIP3    H225947   1.676   3.081   5.615
 8688TIP3   OH225948   0.991   3.241   5.698
 8688TIP3    H125949   1.025   3.154   5.720
 8688TIP3    H225950   0.897   3.228   5.685
 8689TIP3   OH225951   0.380   2.910   5.681
 8689TIP3    H125952   0.355   2.981   5.622
 8689TIP3    H225953   0.331   2.834   5.650
 8690TIP3   OH225954   1.029   3.118   5.315
 8690TIP3    H125955   1.077   3.099   5.396
 8690TIP3    H225956   1.093   3.103   5.245
 8691TIP3   OH225957   0.045   3.102   5.770
 8691TIP3    H125958   0.113   3.061   5.823
 8691TIP3    H225959   0.040   3.048   5.691
 8692TIP3   OH225960   0.453   3.322   5.564
 8692TIP3    H125961   0.541   3.286   5.575
 8692TIP3    H225962   0.398   3.245   5.545
 8693TIP3   OH225963   1.694   3.294   5.870
 8693TIP3    H125964   1.606   3.329   5.866
 8693TIP3    H225965   1.730   3.328   5.952
 8694TIP3   OH225966   0.364   2.889   6.148
 8694TIP3    H125967   0.313   2.930   6.078
 8694TIP3    H225968   0.315   2.908   6.227
 8695TIP3   OH225969   0.653   3.720   5.176
 8695TIP3    H125970   0.640   3.707   5.082
 8695TIP3    H225971   0.623   3.809   5.193
 8696TIP3   OH225972   0.514   3.672   5.876
 8696TIP3    H125973   0.451   3.728   5.921
 8696TIP3    H225974   0.571   3.732   5.828
 8697TIP3   OH225975   1.200   3.061   5.520
 8697TIP3    H125976   1.168   3.028   5.605
 8697TIP3    H225977   1.273   3.119   5.543
 8698TIP3   OH225978   0.258   2.994   5.914
 8698TIP3    H125979   0.304   3.073   5.943
 8698TIP3    H225980   0.312   2.962   5.841
 8699TIP3   OH225981   0.336   3.850   5.994
 8699TIP3    H125982   0.321   3.943   5.975
 8699TIP3    H225983   0.268   3.827   6.057
 8700TIP3   OH225984   9.492   3.516   5.282
 8700TIP3    H125985   9.429   3.522   5.211
 8700TIP3    H225986   9.534   3.603   5.284
 8701TIP3   OH225987   1.095   4.087   5.499
 8701TIP3    H125988   1.005   4.076   5.532
 8701TIP3    H225989   1.093   4.172   5.455
 8702TIP3   OH225990   1.446   2.966   5.878
 8702TIP3    H125991   1.361   2.991   5.841
 8702TIP3    H225992   1.509   2.990   5.811
 8703TIP3   OH225993   0.695   2.588   5.861
 8703TIP3    H125994   0.689   2.496   5.889
 8703TIP3    H225995   0.622   2.631   5.904
 8704TIP3   OH225996   0.806   4.111   5.156
 8704TIP3    H125997   0.855   4.029   5.143
 8704TIP3    H225998   0.867   4.180   5.131
 8705TIP3   OH225999   0.953   3.890   5.108
 8705TIP3    H126000   0.974   3.820   5.046
 8705TIP3    H226001   0.996   3.863   5.189
 8706TIP3   OH226002   1.346   3.973   5.843
 8706TIP3    H126003   1.323   3.900   5.786
 8706TIP3    H226004   1.327   4.051   5.791
 8707TIP3   OH226005   0.637   3.345   5.120
 8707TIP3    H126006   0.556   3.394   5.111
 8707TIP3    H226007   0.678   3.350   5.033
 8708TIP3   OH226008   0.595   3.184   4.802
 8708TIP3    H126009   0.652   3.250   4.841
 8708TIP3    H226010   0.654   3.113   4.777
 8709TIP3   OH226011   1.515   3.639   5.712
 8709TIP3    H126012   1.430   3.683   5.710
 8709TIP3    H226013   1.550   3.650   5.624
 8710TIP3   OH226014   0.986   3.474   5.070
 8710TIP3    H126015   0.931   3.498   5.145
 8710TIP3    H226016   1.070   3.448   5.110
 8711TIP3   OH226017   1.222   3.494   6.024
 8711TIP3    H126018   1.216   3.577   6.071
 8711TIP3    H226019   1.140   3.488   5.975
 8712TIP3   OH226020   0.278   3.503   5.445
 8712TIP3    H126021   0.220   3.446   5.394
 8712TIP3    H226022   0.343   3.444   5.483
 8713TIP3   OH226023   0.509   3.392   5.829
 8713TIP3    H126024   0.473   3.380   5.741
 8713TIP3    H226025   0.499   3.486   5.845
 8714TIP3   OH226026   0.848   4.075   5.619
 8714TIP3    H126027   0.854   4.154   5.673
 8714TIP3    H226028   0.845   4.003   5.681
 8715TIP3   OH226029   0.511   3.985   6.179
 8715TIP3    H126030   0.453   4.041   6.232
 8715TIP3    H226031   0.452   3.927   6.131
 8716TIP3   OH226032   0.802   3.351   4.896
 8716TIP3    H126033   0.865   3.407   4.941
 8716TIP3    H226034   0.830   3.350   4.805
 8717TIP3   OH226035   0.319   3.567   6.197
 8717TIP3    H126036   0.346   3.658   6.187
 8717TIP3    H226037   0.272   3.565   6.281
 8718TIP3   OH226038   0.559   3.986   5.187
 8718TIP3    H126039   0.643   4.032   5.183
 8718TIP3    H226040   0.500   4.039   5.133
 8719TIP3   OH226041   0.305   4.166   6.253
 8719TIP3    H126042   0.288   4.137   6.164
 8719TIP3    H226043   0.243   4.117   6.307
 8720TIP3   OH226044   1.334   2.554   4.969
 8720TIP3    H126045   1.255   2.575   5.019
 8720TIP3    H226046   1.346   2.629   4.910
 8721TIP3   OH226047   0.116   3.322   5.299
 8721TIP3    H126048   0.052   3.369   5.245
 8721TIP3    H226049   0.070   3.244   5.329
 8722TIP3   OH226050   1.151   3.931   4.518
 8722TIP3    H126051   1.145   4.023   4.493
 8722TIP3    H226052   1.240   3.905   4.497
 8723TIP3   OH226053   9.706   3.712   6.240
 8723TIP3    H126054   9.625   3.733   6.193
 8723TIP3    H226055   9.677   3.678   6.324
 8724TIP3   OH226056   1.572   4.352   5.912
 8724TIP3    H126057   1.579   4.257   5.919
 8724TIP3    H226058   1.493   4.374   5.961
 8725TIP3   OH226059   0.697   4.109   6.027
 8725TIP3    H126060   0.702   4.199   6.057
 8725TIP3    H226061   0.632   4.068   6.083
 8726TIP3   OH226062   0.469   4.208   4.979
 8726TIP3    H126063   0.424   4.208   4.895
 8726TIP3    H226064   0.426   4.278   5.029
 8727TIP3   OH226065   0.027   3.976   5.417
 8727TIP3    H126066   0.054   4.032   5.489
 8727TIP3    H226067  -0.061   3.946   5.441
 8728TIP3   OH226068   0.662   4.155   4.619
 8728TIP3    H126069   0.709   4.079   4.584
 8728TIP3    H226070   0.698   4.168   4.706
 8729TIP3   OH226071   0.722   4.193   4.886
 8729TIP3    H126072   0.635   4.195   4.926
 8729TIP3    H226073   0.778   4.157   4.954
 8730TIP3   OH226074   1.462   3.450   6.180
 8730TIP3    H126075   1.377   3.463   6.137
 8730TIP3    H226076   1.478   3.356   6.173
 8731TIP3   OH226077   0.156   3.825   6.199
 8731TIP3    H126078   0.209   3.839   6.278
 8731TIP3    H226079   0.071   3.795   6.232
 8732TIP3   OH226080   0.473   2.687   5.991
 8732TIP3    H126081   0.390   2.650   5.960
 8732TIP3    H226082   0.447   2.764   6.042
 8733TIP3   OH226083   0.993   2.809   6.197
 8733TIP3    H126084   1.062   2.785   6.259
 8733TIP3    H226085   0.912   2.794   6.244
 8734TIP3   OH226086   1.210   3.227   6.109
 8734TIP3    H126087   1.169   3.221   6.195
 8734TIP3    H226088   1.198   3.318   6.083
 8735TIP3   OH226089   0.890   3.331   4.643
 8735TIP3    H126090   0.844   3.319   4.560
 8735TIP3    H226091   0.975   3.368   4.619
 8736TIP3   OH226092   0.619   2.707   4.972
 8736TIP3    H126093   0.580   2.707   5.060
 8736TIP3    H226094   0.560   2.652   4.920
 8737TIP3   OH226095   0.390   3.206   6.022
 8737TIP3    H126096   0.346   3.223   6.106
 8737TIP3    H226097   0.389   3.290   5.977
 8738TIP3   OH226098   0.303   3.100   5.500
 8738TIP3    H126099   0.210   3.080   5.511
 8738TIP3    H226100   0.327   3.061   5.417
 8739TIP3   OH226101   0.937   3.447   6.330
 8739TIP3    H126102   0.908   3.381   6.392
 8739TIP3    H226103   1.029   3.461   6.350
 8740TIP3   OH226104   0.248   3.226   6.262
 8740TIP3    H126105   0.189   3.287   6.305
 8740TIP3    H226106   0.255   3.153   6.323
 8741TIP3   OH226107   0.211   2.736   4.926
 8741TIP3    H126108   0.222   2.742   5.021
 8741TIP3    H226109   0.119   2.714   4.913
 8742TIP3   OH226110   9.761   2.809   5.709
 8742TIP3    H126111   9.792   2.789   5.797
 8742TIP3    H226112   9.748   2.724   5.668
 8743TIP3   OH226113   9.675   2.871   5.325
 8743TIP3    H126114   9.745   2.852   5.263
 8743TIP3    H226115   9.603   2.903   5.271
 8744TIP3   OH226116   0.980   3.428   5.903
 8744TIP3    H126117   0.995   3.361   5.837
 8744TIP3    H226118   0.932   3.383   5.973
 8745TIP3   OH226119   0.642   2.951   5.593
 8745TIP3    H126120   0.558   2.930   5.634
 8745TIP3    H226121   0.702   2.884   5.627
 8746TIP3   OH226122   0.063   2.976   5.511
 8746TIP3    H126123  -0.010   2.964   5.450
 8746TIP3    H226124   0.075   2.890   5.551
 8747TIP3   OH226125   0.352   2.973   5.263
 8747TIP3    H126126   0.437   3.011   5.240
 8747TIP3    H226127   0.293   3.003   5.193
 8748TIP3   OH226128   1.092   2.982   5.760
 8748TIP3    H126129   1.076   2.996   5.853
 8748TIP3    H226130   1.062   2.893   5.743
 8749TIP3   OH226131   0.171   3.022   5.066
 8749TIP3    H126132   0.087   2.979   5.049
 8749TIP3    H226133   0.209   3.035   4.980
 8750TIP3   OH226134   1.282   4.689   6.003
 8750TIP3    H126135   1.284   4.691   5.907
 8750TIP3    H226136   1.362   4.734   6.029
 8751TIP3   OH226137   0.345   3.836   6.396
 8751TIP3    H126138   0.365   3.887   6.475
 8751TIP3    H226139   0.310   3.753   6.430
 8752TIP3   OH226140   0.715   3.206   5.676
 8752TIP3    H126141   0.692   3.117   5.646
 8752TIP3    H226142   0.690   3.207   5.768
 8753TIP3   OH226143   0.222   2.715   5.566
 8753TIP3    H126144   0.182   2.646   5.619
 8753TIP3    H226145   0.247   2.672   5.485
 8754TIP3   OH226146   0.670   3.167   5.953
 8754TIP3    H126147   0.585   3.212   5.962
 8754TIP3    H226148   0.730   3.220   6.004
 8755TIP3   OH226149   0.406   3.506   5.092
 8755TIP3    H126150   0.337   3.448   5.060
 8755TIP3    H226151   0.377   3.533   5.179
 8756TIP3   OH226152   1.281   3.775   5.664
 8756TIP3    H126153   1.318   3.825   5.591
 8756TIP3    H226154   1.202   3.735   5.628
 8757TIP3   OH226155   0.850   2.842   4.953
 8757TIP3    H126156   0.765   2.799   4.955
 8757TIP3    H226157   0.842   2.908   4.884
 8758TIP3   OH226158   0.791   3.843   6.070
 8758TIP3    H126159   0.797   3.838   6.165
 8758TIP3    H226160   0.761   3.932   6.052
 8759TIP3   OH226161   0.912   3.158   5.059
 8759TIP3    H126162   0.992   3.117   5.024
 8759TIP3    H226163   0.873   3.202   4.983
 8760TIP3   OH226164   0.183   3.531   5.709
 8760TIP3    H126165   0.109   3.471   5.699
 8760TIP3    H226166   0.217   3.513   5.797
 8761TIP3   OH226167   0.550   3.662   4.910
 8761TIP3    H126168   0.512   3.750   4.903
 8761TIP3    H226169   0.490   3.614   4.967
 8762TIP3   OH226170   9.816   3.427   6.372
 8762TIP3    H126171   9.777   3.438   6.459
 8762TIP3    H226172   9.754   3.372   6.325
 8763TIP3   OH226173   0.705   3.602   6.367
 8763TIP3    H126174   0.638   3.541   6.337
 8763TIP3    H226175   0.788   3.560   6.342
 8764TIP3   OH226176   0.966   4.151   5.964
 8764TIP3    H126177   0.874   4.126   5.961
 8764TIP3    H226178   0.981   4.177   6.055
 8765TIP3   OH226179   1.322   3.189   4.855
 8765TIP3    H126180   1.259   3.146   4.797
 8765TIP3    H226181   1.333   3.277   4.819
 8766TIP3   OH226182   1.588   4.077   5.928
 8766TIP3    H126183   1.496   4.051   5.932
 8766TIP3    H226184   1.620   4.040   5.846
 8767TIP3   OH226185   1.068   3.998   4.777
 8767TIP3    H126186   1.036   3.921   4.826
 8767TIP3    H226187   1.092   3.963   4.691
 8768TIP3   OH226188   1.061   3.638   5.556
 8768TIP3    H126189   0.975   3.615   5.592
 8768TIP3    H226190   1.097   3.555   5.526
 8769TIP3   OH226191   0.236   3.795   5.430
 8769TIP3    H126192   0.297   3.819   5.360
 8769TIP3    H226193   0.166   3.860   5.424
 8770TIP3   OH226194   9.613   3.199   5.041
 8770TIP3    H126195   9.663   3.278   5.065
 8770TIP3    H226196   9.532   3.233   5.004
 8771TIP3   OH226197   0.526   4.180   5.821
 8771TIP3    H126198   0.559   4.259   5.779
 8771TIP3    H226199   0.598   4.151   5.877
 8772TIP3   OH226200   0.212   4.063   5.217
 8772TIP3    H126201   0.151   4.082   5.288
 8772TIP3    H226202   0.274   4.137   5.218
 8773TIP3   OH226203   0.861   3.864   5.802
 8773TIP3    H126204   0.847   3.848   5.895
 8773TIP3    H226205   0.913   3.790   5.772
 8774TIP3   OH226206   0.841   3.739   4.685
 8774TIP3    H126207   0.881   3.724   4.771
 8774TIP3    H226208   0.757   3.693   4.689
 8775TIP3   OH226209   1.100   4.372   5.857
 8775TIP3    H126210   1.040   4.300   5.877
 8775TIP3    H226211   1.064   4.413   5.779
 8776TIP3   OH226212   1.143   4.202   4.472
 8776TIP3    H126213   1.151   4.257   4.394
 8776TIP3    H226214   1.076   4.245   4.525
 8777TIP3   OH226215   0.228   2.961   6.383
 8777TIP3    H126216   0.154   2.985   6.439
 8777TIP3    H226217   0.279   2.900   6.436
 8778TIP3   OH226218   1.014   3.696   4.907
 8778TIP3    H126219   0.996   3.618   4.960
 8778TIP3    H226220   1.106   3.689   4.884
 8779TIP3   OH226221   9.709   4.113   6.114
 8779TIP3    H126222   9.625   4.078   6.084
 8779TIP3    H226223   9.717   4.083   6.204
 8780TIP3   OH226224   0.193   3.712   4.659
 8780TIP3    H126225   0.206   3.621   4.632
 8780TIP3    H226226   0.199   3.710   4.754
 8781TIP3   OH226227   0.208   3.734   4.927
 8781TIP3    H126228   0.220   3.710   5.019
 8781TIP3    H226229   0.191   3.828   4.929
 8782TIP3   OH226230   9.715   3.427   5.148
 8782TIP3    H126231   9.637   3.451   5.199
 8782TIP3    H226232   9.729   3.502   5.089
 8783TIP3   OH226233   1.050   3.015   6.023
 8783TIP3    H126234   1.109   3.077   6.066
 8783TIP3    H226235   1.030   2.950   6.090
 8784TIP3   OH226236   0.864   2.850   5.230
 8784TIP3    H126237   0.858   2.848   5.135
 8784TIP3    H226238   0.955   2.874   5.249
 8785TIP3   OH226239   0.448   3.914   4.887
 8785TIP3    H126240   0.358   3.936   4.911
 8785TIP3    H226241   0.482   3.994   4.845
 8786TIP3   OH226242   0.637   2.988   5.315
 8786TIP3    H126243   0.713   2.937   5.288
 8786TIP3    H226244   0.635   2.981   5.411
 8787TIP3   OH226245   0.874   3.280   6.111
 8787TIP3    H126246   0.883   3.341   6.184
 8787TIP3    H226247   0.915   3.199   6.142
 8788TIP3   OH226248   0.736   2.674   5.406
 8788TIP3    H126249   0.769   2.704   5.490
 8788TIP3    H226250   0.785   2.725   5.341
 8789TIP3   OH226251   0.188   4.006   4.946
 8789TIP3    H126252   0.155   4.079   4.894
 8789TIP3    H226253   0.192   4.040   5.036
 8790TIP3   OH226254   0.248   2.710   5.204
 8790TIP3    H126255   0.247   2.799   5.240
 8790TIP3    H226256   0.340   2.683   5.208
 8791TIP3   OH226257   1.476   3.176   6.088
 8791TIP3    H126258   1.381   3.184   6.100
 8791TIP3    H226259   1.486   3.115   6.014
 8792TIP3   OH226260   1.148   3.374   5.504
 8792TIP3    H126261   1.084   3.335   5.563
 8792TIP3    H226262   1.232   3.341   5.536
 8793TIP3   OH226263   9.743   3.639   4.985
 8793TIP3    H126264   9.800   3.709   5.019
 8793TIP3    H226265   9.795   3.599   4.916
 8794TIP3   OH226266   9.734   2.869   5.037
 8794TIP3    H126267   9.647   2.896   5.068
 8794TIP3    H226268   9.722   2.779   5.008
 8795TIP3   OH226269   1.119   4.357   5.422
 8795TIP3    H126270   1.076   4.406   5.352
 8795TIP3    H226271   1.212   4.366   5.403
 8796TIP3   OH226272   0.222   2.591   5.945
 8796TIP3    H126273   0.192   2.561   5.859
 8796TIP3    H226274   0.203   2.518   6.004
 8797TIP3   OH226275   9.614   3.767   5.285
 8797TIP3    H126276   9.550   3.791   5.352
 8797TIP3    H226277   9.585   3.813   5.207
 8798TIP3   OH226278   0.422   4.293   6.479
 8798TIP3    H126279   0.510   4.255   6.479
 8798TIP3    H226280   0.384   4.265   6.396
 8799TIP3   OH226281   0.349   3.921   4.577
 8799TIP3    H126282   0.296   3.850   4.613
 8799TIP3    H226283   0.426   3.876   4.540
 8800TIP3   OH226284   1.001   4.229   6.226
 8800TIP3    H126285   1.013   4.162   6.293
 8800TIP3    H226286   1.074   4.289   6.238
 8801TIP3   OH226287   0.784   3.940   4.504
 8801TIP3    H126288   0.822   3.877   4.566
 8801TIP3    H226289   0.841   3.936   4.428
 8802TIP3   OH226290  -0.009   3.777   6.520
 8802TIP3    H126291   0.069   3.721   6.526
 8802TIP3    H226292  -0.056   3.761   6.602
 8803TIP3   OH226293   0.077   3.450   4.825
 8803TIP3    H126294   0.123   3.407   4.898
 8803TIP3    H226295   0.138   3.442   4.752
 8804TIP3   OH226296   0.707   3.882   6.343
 8804TIP3    H126297   0.626   3.898   6.294
 8804TIP3    H226298   0.702   3.790   6.368
 8805TIP3   OH226299   0.590   3.610   4.643
 8805TIP3    H126300   0.566   3.622   4.734
 8805TIP3    H226301   0.565   3.520   4.622
 8806TIP3   OH226302   1.123   3.918   6.000
 8806TIP3    H126303   1.201   3.944   5.950
 8806TIP3    H226304   1.059   3.986   5.981
 8807TIP3   OH226305   0.220   3.387   6.623
 8807TIP3    H126306   0.313   3.363   6.625
 8807TIP3    H226307   0.212   3.456   6.689
 8808TIP3   OH226308   0.224   3.316   5.020
 8808TIP3    H126309   0.188   3.276   5.099
 8808TIP3    H226310   0.256   3.242   4.968
 8809TIP3   OH226311   0.540   3.408   6.241
 8809TIP3    H126312   0.453   3.446   6.229
 8809TIP3    H226313   0.591   3.442   6.168
 8810TIP3   OH226314   0.326   3.116   4.849
 8810TIP3    H126315   0.304   3.095   4.759
 8810TIP3    H226316   0.420   3.136   4.847
 8811TIP3   OH226317   1.032   3.804   6.381
 8811TIP3    H126318   1.062   3.751   6.308
 8811TIP3    H226319   1.011   3.740   6.450
 8812TIP3   OH226320   1.119   3.439   4.530
 8812TIP3    H126321   1.104   3.399   4.444
 8812TIP3    H226322   1.095   3.531   4.518
 8813TIP3   OH226323   0.611   3.178   6.367
 8813TIP3    H126324   0.615   3.107   6.304
 8813TIP3    H226325   0.584   3.255   6.316
 8814TIP3   OH226326   0.621   2.985   6.165
 8814TIP3    H126327   0.641   3.033   6.085
 8814TIP3    H226328   0.529   2.958   6.155
 8815TIP3   OH226329   0.683   3.539   6.052
 8815TIP3    H126330   0.757   3.600   6.054
 8815TIP3    H226331   0.623   3.576   5.987
 8816TIP3   OH226332   1.206   3.479   6.423
 8816TIP3    H126333   1.258   3.398   6.428
 8816TIP3    H226334   1.272   3.549   6.417
 8817TIP3   OH226335   1.236   3.735   6.164
 8817TIP3    H126336   1.183   3.799   6.117
 8817TIP3    H226337   1.326   3.752   6.134
 8818TIP3   OH226338   0.475   3.276   6.589
 8818TIP3    H126339   0.436   3.195   6.620
 8818TIP3    H226340   0.518   3.252   6.507
 8819TIP3   OH226341   0.732   2.756   6.277
 8819TIP3    H126342   0.693   2.835   6.239
 8819TIP3    H226343   0.665   2.689   6.263
 8820TIP3   OH226344   0.858   3.231   6.481
 8820TIP3    H126345   0.846   3.229   6.576
 8820TIP3    H226346   0.772   3.206   6.445
 8821TIP3   OH226347   1.093   3.178   6.346
 8821TIP3    H126348   1.016   3.185   6.402
 8821TIP3    H226349   1.165   3.160   6.407
 8822TIP3   OH226350   1.333   3.153   6.496
 8822TIP3    H126351   1.346   3.059   6.503
 8822TIP3    H226352   1.326   3.183   6.587
 8823TIP3   OH226353   0.357   3.055   6.705
 8823TIP3    H126354   0.358   2.976   6.652
 8823TIP3    H226355   0.392   3.029   6.790
 8824TIP3   OH226356   0.798   2.735   6.541
 8824TIP3    H126357   0.866   2.668   6.534
 8824TIP3    H226358   0.767   2.747   6.451
 8825TIP3   OH226359   0.878   2.955   6.690
 8825TIP3    H126360   0.850   2.883   6.633
 8825TIP3    H226361   0.805   3.016   6.689
 8826TIP3   OH226362   0.153   4.221   4.775
 8826TIP3    H126363   0.247   4.205   4.766
 8826TIP3    H226364   0.122   4.232   4.685
 8827TIP3   OH226365   9.335   3.561   5.060
 8827TIP3    H126366   9.374   3.632   5.008
 8827TIP3    H226367   9.241   3.571   5.048
 8828TIP3   OH226368   1.391   4.400   5.406
 8828TIP3    H126369   1.414   4.426   5.495
 8828TIP3    H226370   1.445   4.456   5.350
 8829TIP3   OH226371   1.420   4.423   5.686
 8829TIP3    H126372   1.369   4.342   5.682
 8829TIP3    H226373   1.488   4.406   5.751
 8830TIP3   OH226374   1.470   4.138   6.258
 8830TIP3    H126375   1.396   4.146   6.317
 8830TIP3    H226376   1.515   4.222   6.265
 8831TIP3   OH226377   1.286   3.653   4.871
 8831TIP3    H126378   1.344   3.721   4.839
 8831TIP3    H226379   1.333   3.613   4.944
 8832TIP3   OH226380   1.409   3.508   5.077
 8832TIP3    H126381   1.343   3.476   5.138
 8832TIP3    H226382   1.478   3.544   5.132
 8833TIP3   OH226383   1.464   3.912   5.505
 8833TIP3    H126384   1.516   3.844   5.461
 8833TIP3    H226385   1.466   3.986   5.443
 8834TIP3   OH226386   1.263   4.193   5.697
 8834TIP3    H126387   1.195   4.238   5.748
 8834TIP3    H226388   1.216   4.153   5.625
 8835TIP3   OH226389   1.324   3.427   4.715
 8835TIP3    H126390   1.255   3.424   4.648
 8835TIP3    H226391   1.305   3.506   4.765
 8836TIP3   OH226392   1.148   3.088   4.669
 8836TIP3    H126393   1.125   3.121   4.583
 8836TIP3    H226394   1.143   2.993   4.660
 8837TIP3   OH226395   1.200   3.375   5.224
 8837TIP3    H126396   1.224   3.284   5.208
 8837TIP3    H226397   1.184   3.379   5.318
 8838TIP3   OH226398   9.608   3.417   5.964
 8838TIP3    H126399   9.568   3.395   5.880
 8838TIP3    H226400   9.674   3.483   5.942
 8839TIP3   OH226401   1.490   3.785   6.062
 8839TIP3    H126402   1.558   3.720   6.047
 8839TIP3    H226403   1.485   3.835   5.980
 8840TIP3   OH226404   1.671   3.575   6.057
 8840TIP3    H126405   1.597   3.535   6.102
 8840TIP3    H226406   1.745   3.519   6.077
 8841TIP3   OH226407   1.128   2.818   4.647
 8841TIP3    H126408   1.201   2.782   4.698
 8841TIP3    H226409   1.055   2.758   4.664
 8842TIP3   OH226410   1.209   3.096   5.103
 8842TIP3    H126411   1.251   3.011   5.118
 8842TIP3    H226412   1.251   3.130   5.024
 8843TIP3   OH226413   1.376   3.258   5.614
 8843TIP3    H126414   1.458   3.277   5.567
 8843TIP3    H226415   1.388   3.297   5.700
 8844TIP3   OH226416   1.436   3.407   5.843
 8844TIP3    H126417   1.365   3.434   5.903
 8844TIP3    H226418   1.465   3.489   5.802
 8845TIP3   OH226419   0.094   3.048   6.617
 8845TIP3    H126420   0.182   3.081   6.638
 8845TIP3    H226421   0.036   3.123   6.633
 8846TIP3   OH226422   1.895   3.002   6.383
 8846TIP3    H126423   1.961   2.947   6.339
 8846TIP3    H226424   1.856   3.053   6.312
 8847TIP3   OH226425   1.310   2.840   5.150
 8847TIP3    H126426   1.357   2.821   5.231
 8847TIP3    H226427   1.248   2.768   5.141
 8848TIP3   OH226428   0.060   2.807   5.966
 8848TIP3    H126429   0.115   2.729   5.976
 8848TIP3    H226430   0.123   2.879   5.957
 8849TIP3   OH226431   9.590   3.112   5.987
 8849TIP3    H126432   9.660   3.092   6.049
 8849TIP3    H226433   9.580   3.207   5.992
 8850TIP3   OH226434   1.744   3.124   6.192
 8850TIP3    H126435   1.666   3.164   6.231
 8850TIP3    H226436   1.709   3.055   6.135
 8851TIP3   OH226437   1.366   2.752   4.782
 8851TIP3    H126438   1.410   2.694   4.721
 8851TIP3    H226439   1.419   2.831   4.783
 8852TIP3   OH226440   9.678   2.588   5.564
 8852TIP3    H126441   9.637   2.553   5.643
 8852TIP3    H226442   9.607   2.632   5.517
 8853TIP3   OH226443   0.960   4.309   5.058
 8853TIP3    H126444   1.011   4.299   4.978
 8853TIP3    H226445   0.999   4.385   5.102
 8854TIP3   OH226446   0.052   2.629   6.433
 8854TIP3    H126447   0.038   2.677   6.515
 8854TIP3    H226448   0.017   2.686   6.365
 8855TIP3   OH226449   0.158   4.097   6.480
 8855TIP3    H126450   0.103   4.175   6.493
 8855TIP3    H226451   0.221   4.100   6.551
 8856TIP3   OH226452   0.307   4.122   5.977
 8856TIP3    H126453   0.241   4.178   5.936
 8856TIP3    H226454   0.388   4.144   5.931
 8857TIP3   OH226455   0.708   4.367   6.111
 8857TIP3    H126456   0.735   4.365   6.203
 8857TIP3    H226457   0.770   4.425   6.069
 8858TIP3   OH226458   0.882   4.538   5.985
 8858TIP3    H126459   0.951   4.487   5.945
 8858TIP3    H226460   0.927   4.603   6.039
 8859TIP3   OH226461   1.653   2.877   6.079
 8859TIP3    H126462   1.569   2.875   6.034
 8859TIP3    H226463   1.686   2.787   6.072
 8860TIP3   OH226464   0.163   4.312   5.843
 8860TIP3    H126465   0.076   4.307   5.883
 8860TIP3    H226466   0.152   4.372   5.769
 8861TIP3   OH226467   0.598   4.401   5.675
 8861TIP3    H126468   0.528   4.406   5.610
 8861TIP3    H226469   0.601   4.488   5.714
 8862TIP3   OH226470   0.860   4.338   5.705
 8862TIP3    H126471   0.766   4.355   5.693
 8862TIP3    H226472   0.903   4.408   5.655
 8863TIP3   OH226473   1.050   4.535   5.620
 8863TIP3    H126474   1.031   4.617   5.576
 8863TIP3    H226475   1.074   4.474   5.550
 8864TIP3   OH226476   9.685   4.147   5.798
 8864TIP3    H126477   9.654   4.080   5.860
 8864TIP3    H226478   9.769   4.115   5.767
 8865TIP3   OH226479   0.110   4.066   5.664
 8865TIP3    H126480   0.147   3.981   5.690
 8865TIP3    H226481   0.185   4.119   5.640
 8866TIP3   OH226482   0.367   4.140   5.600
 8866TIP3    H126483   0.424   4.100   5.534
 8866TIP3    H226484   0.420   4.144   5.679
 8867TIP3   OH226485   0.818   2.742   5.659
 8867TIP3    H126486   0.791   2.691   5.735
 8867TIP3    H226487   0.910   2.721   5.647
 8868TIP3   OH226488   1.369   2.720   5.613
 8868TIP3    H126489   1.405   2.764   5.536
 8868TIP3    H226490   1.275   2.738   5.609
 8869TIP3   OH226491   1.475   2.788   5.369
 8869TIP3    H126492   1.543   2.727   5.341
 8869TIP3    H226493   1.513   2.875   5.354
 8870TIP3   OH226494   0.122   2.498   5.709
 8870TIP3    H126495   0.030   2.474   5.711
 8870TIP3    H226496   0.169   2.415   5.707
 8871TIP3   OH226497   9.705   2.396   5.366
 8871TIP3    H126498   9.759   2.423   5.292
 8871TIP3    H226499   9.721   2.463   5.433
 8872TIP3   OH226500   0.565   2.546   5.604
 8872TIP3    H126501   0.615   2.592   5.537
 8872TIP3    H226502   0.608   2.568   5.686
 8873TIP3   OH226503   1.082   2.676   5.594
 8873TIP3    H126504   1.111   2.640   5.510
 8873TIP3    H226505   1.087   2.602   5.655
 8874TIP3   OH226506   1.122   2.630   5.130
 8874TIP3    H126507   1.036   2.636   5.087
 8874TIP3    H226508   1.116   2.552   5.184
 8875TIP3   OH226509   0.069   2.501   5.146
 8875TIP3    H126510   0.120   2.438   5.096
 8875TIP3    H226511   0.134   2.565   5.176
 8876TIP3   OH226512   0.522   2.723   5.233
 8876TIP3    H126513   0.583   2.684   5.295
 8876TIP3    H226514   0.515   2.815   5.259
 8877TIP3   OH226515   0.406   4.149   4.715
 8877TIP3    H126516   0.490   4.171   4.674
 8877TIP3    H226517   0.374   4.074   4.665
 8878TIP3   OH226518   1.101   4.266   4.822
 8878TIP3    H126519   1.094   4.171   4.813
 8878TIP3    H226520   1.059   4.301   4.744
 8879TIP3   OH226521   0.354   2.805   6.578
 8879TIP3    H126522   0.310   2.742   6.635
 8879TIP3    H226523   0.446   2.803   6.607
 8880TIP3   OH226524   0.589   2.789   6.718
 8880TIP3    H126525   0.666   2.762   6.668
 8880TIP3    H226526   0.574   2.717   6.780
 8881TIP3   OH226527   9.579   4.008   4.827
 8881TIP3    H126528   9.514   4.052   4.771
 8881TIP3    H226529   9.641   3.969   4.765
 8882TIP3   OH226530   1.399   2.882   6.503
 8882TIP3    H126531   1.415   2.853   6.593
 8882TIP3    H226532   1.484   2.875   6.460
 8883TIP3   OH226533   1.324   4.416   6.015
 8883TIP3    H126534   1.249   4.386   5.963
 8883TIP3    H226535   1.310   4.510   6.025
 8884TIP3   OH226536   2.590   3.794   4.754
 8884TIP3    H126537   2.555   3.881   4.734
 8884TIP3    H226538   2.523   3.734   4.723
 8885TIP3   OH226539   2.585   3.795   5.175
 8885TIP3    H126540   2.640   3.765   5.247
 8885TIP3    H226541   2.541   3.716   5.144
 8886TIP3   OH226542   1.888   3.642   5.518
 8886TIP3    H126543   1.927   3.592   5.589
 8886TIP3    H226544   1.961   3.667   5.462
 8887TIP3   OH226545   2.858   4.091   4.839
 8887TIP3    H126546   2.850   4.026   4.910
 8887TIP3    H226547   2.867   4.175   4.885
 8888TIP3   OH226548   1.889   4.080   5.206
 8888TIP3    H126549   1.868   3.987   5.210
 8888TIP3    H226550   1.983   4.083   5.191
 8889TIP3   OH226551   1.561   3.281   4.993
 8889TIP3    H126552   1.522   3.365   5.017
 8889TIP3    H226553   1.491   3.233   4.949
 8890TIP3   OH226554   1.643   3.591   5.210
 8890TIP3    H126555   1.695   3.515   5.234
 8890TIP3    H226556   1.707   3.656   5.181
 8891TIP3   OH226557   2.494   4.536   4.852
 8891TIP3    H126558   2.527   4.466   4.796
 8891TIP3    H226559   2.479   4.494   4.937
 8892TIP3   OH226560   2.394   4.011   5.175
 8892TIP3    H126561   2.439   3.932   5.145
 8892TIP3    H226562   2.464   4.068   5.207
 8893TIP3   OH226563   3.435   3.328   5.191
 8893TIP3    H126564   3.451   3.415   5.230
 8893TIP3    H226565   3.464   3.337   5.101
 8894TIP3   OH226566   2.802   3.490   5.211
 8894TIP3    H126567   2.838   3.405   5.236
 8894TIP3    H226568   2.769   3.476   5.122
 8895TIP3   OH226569   2.160   3.154   5.171
 8895TIP3    H126570   2.140   3.226   5.112
 8895TIP3    H226571   2.107   3.081   5.139
 8896TIP3   OH226572   2.857   3.260   4.806
 8896TIP3    H126573   2.921   3.254   4.877
 8896TIP3    H226574   2.907   3.292   4.731
 8897TIP3   OH226575   1.789   3.372   5.297
 8897TIP3    H126576   1.872   3.352   5.340
 8897TIP3    H226577   1.791   3.320   5.216
 8898TIP3   OH226578   2.201   3.569   5.122
 8898TIP3    H126579   2.296   3.555   5.124
 8898TIP3    H226580   2.166   3.488   5.086
 8899TIP3   OH226581   3.487   3.551   5.357
 8899TIP3    H126582   3.399   3.587   5.350
 8899TIP3    H226583   3.522   3.589   5.438
 8900TIP3   OH226584   2.141   3.158   5.623
 8900TIP3    H126585   2.091   3.193   5.549
 8900TIP3    H226586   2.085   3.175   5.699
 8901TIP3   OH226587   2.449   4.003   4.643
 8901TIP3    H126588   2.429   3.985   4.551
 8901TIP3    H226589   2.409   4.088   4.660
 8902TIP3   OH226590   2.233   3.935   5.387
 8902TIP3    H126591   2.179   4.006   5.421
 8902TIP3    H226592   2.279   3.973   5.313
 8903TIP3   OH226593   3.010   3.287   5.029
 8903TIP3    H126594   2.975   3.260   5.114
 8903TIP3    H226595   3.071   3.358   5.050
 8904TIP3   OH226596   2.033   3.265   5.392
 8904TIP3    H126597   2.088   3.339   5.414
 8904TIP3    H226598   2.078   3.222   5.319
 8905TIP3   OH226599   2.077   4.140   5.492
 8905TIP3    H126600   2.069   4.227   5.453
 8905TIP3    H226601   1.995   4.127   5.539
 8906TIP3   OH226602   1.455   3.841   4.750
 8906TIP3    H126603   1.423   3.857   4.661
 8906TIP3    H226604   1.477   3.928   4.783
 8907TIP3   OH226605   2.869   4.333   4.981
 8907TIP3    H126606   2.788   4.337   5.033
 8907TIP3    H226607   2.888   4.424   4.959
 8908TIP3   OH226608   3.231   3.225   5.360
 8908TIP3    H126609   3.146   3.243   5.318
 8908TIP3    H226610   3.296   3.250   5.294
 8909TIP3   OH226611   2.487   2.850   5.356
 8909TIP3    H126612   2.479   2.757   5.379
 8909TIP3    H226613   2.408   2.890   5.394
 8910TIP3   OH226614   2.598   4.369   4.653
 8910TIP3    H126615   2.649   4.289   4.637
 8910TIP3    H226616   2.655   4.439   4.623
 8911TIP3   OH226617   2.753   4.154   4.590
 8911TIP3    H126618   2.763   4.080   4.530
 8911TIP3    H226619   2.793   4.125   4.672
 8912TIP3   OH226620   2.419   3.634   4.601
 8912TIP3    H126621   2.337   3.680   4.583
 8912TIP3    H226622   2.465   3.633   4.518
 8913TIP3   OH226623   2.391   3.442   4.288
 8913TIP3    H126624   2.457   3.491   4.337
 8913TIP3    H226625   2.441   3.375   4.240
 8914TIP3   OH226626   3.305   3.897   5.212
 8914TIP3    H126627   3.225   3.950   5.215
 8914TIP3    H226628   3.339   3.909   5.124
 8915TIP3   OH226629   2.775   3.731   4.560
 8915TIP3    H126630   2.721   3.757   4.635
 8915TIP3    H226631   2.858   3.703   4.599
 8916TIP3   OH226632   2.987   3.758   5.477
 8916TIP3    H126633   2.984   3.853   5.476
 8916TIP3    H226634   2.904   3.731   5.438
 8917TIP3   OH226635   2.002   3.701   4.968
 8917TIP3    H126636   1.966   3.642   4.902
 8917TIP3    H226637   2.075   3.653   5.007
 8918TIP3   OH226638   2.149   4.129   5.108
 8918TIP3    H126639   2.121   4.118   5.017
 8918TIP3    H226640   2.235   4.086   5.112
 8919TIP3   OH226641   2.100   3.697   5.344
 8919TIP3    H126642   2.138   3.660   5.264
 8919TIP3    H226643   2.149   3.779   5.358
 8920TIP3   OH226644   2.646   4.335   5.146
 8920TIP3    H126645   2.588   4.391   5.198
 8920TIP3    H226646   2.642   4.250   5.190
 8921TIP3   OH226647   2.263   4.230   5.679
 8921TIP3    H126648   2.302   4.169   5.741
 8921TIP3    H226649   2.208   4.176   5.623
 8922TIP3   OH226650   2.609   3.585   4.395
 8922TIP3    H126651   2.668   3.644   4.442
 8922TIP3    H226652   2.638   3.590   4.304
 8923TIP3   OH226653   2.032   3.782   5.813
 8923TIP3    H126654   2.035   3.877   5.829
 8923TIP3    H226655   1.938   3.763   5.805
 8924TIP3   OH226656   2.344   4.263   4.659
 8924TIP3    H126657   2.432   4.301   4.662
 8924TIP3    H226658   2.294   4.322   4.603
 8925TIP3   OH226659   3.112   2.816   4.453
 8925TIP3    H126660   3.036   2.838   4.507
 8925TIP3    H226661   3.121   2.889   4.393
 8926TIP3   OH226662   1.880   3.544   4.767
 8926TIP3    H126663   1.803   3.592   4.737
 8926TIP3    H226664   1.850   3.453   4.776
 8927TIP3   OH226665   2.947   4.189   4.006
 8927TIP3    H126666   2.941   4.282   3.983
 8927TIP3    H226667   3.037   4.164   3.983
 8928TIP3   OH226668   1.666   3.954   5.698
 8928TIP3    H126669   1.596   3.934   5.636
 8928TIP3    H226670   1.699   3.868   5.724
 8929TIP3   OH226671   1.503   4.148   5.356
 8929TIP3    H126672   1.592   4.176   5.377
 8929TIP3    H226673   1.448   4.223   5.379
 8930TIP3   OH226674   2.249   4.474   4.479
 8930TIP3    H126675   2.207   4.453   4.396
 8930TIP3    H226676   2.212   4.558   4.505
 8931TIP3   OH226677   1.683   4.335   4.859
 8931TIP3    H126678   1.728   4.325   4.943
 8931TIP3    H226679   1.633   4.253   4.850
 8932TIP3   OH226680   2.449   4.411   4.104
 8932TIP3    H126681   2.498   4.337   4.070
 8932TIP3    H226682   2.484   4.426   4.192
 8933TIP3   OH226683   2.504   4.456   4.373
 8933TIP3    H126684   2.420   4.455   4.418
 8933TIP3    H226685   2.566   4.424   4.439
 8934TIP3   OH226686   3.211   3.729   5.651
 8934TIP3    H126687   3.141   3.719   5.587
 8934TIP3    H226688   3.247   3.641   5.661
 8935TIP3   OH226689   1.858   4.148   5.663
 8935TIP3    H126690   1.911   4.135   5.742
 8935TIP3    H226691   1.789   4.082   5.669
 8936TIP3   OH226692   2.246   2.940   5.481
 8936TIP3    H126693   2.163   2.907   5.447
 8936TIP3    H226694   2.222   3.021   5.526
 8937TIP3   OH226695   2.782   3.068   5.680
 8937TIP3    H126696   2.851   3.043   5.741
 8937TIP3    H226697   2.701   3.051   5.728
 8938TIP3   OH226698   3.008   3.494   5.601
 8938TIP3    H126699   2.969   3.483   5.688
 8938TIP3    H226700   2.977   3.579   5.571
 8939TIP3   OH226701   2.689   3.575   4.134
 8939TIP3    H126702   2.641   3.575   4.052
 8939TIP3    H226703   2.772   3.617   4.113
 8940TIP3   OH226704   2.396   2.984   4.451
 8940TIP3    H126705   2.357   2.992   4.538
 8940TIP3    H226706   2.361   2.902   4.416
 8941TIP3   OH226707   2.184   3.475   5.490
 8941TIP3    H126708   2.139   3.482   5.575
 8941TIP3    H226709   2.162   3.557   5.445
 8942TIP3   OH226710   2.063   3.355   5.011
 8942TIP3    H126711   1.974   3.330   5.034
 8942TIP3    H226712   2.074   3.325   4.921
 8943TIP3   OH226713   2.542   3.430   4.737
 8943TIP3    H126714   2.495   3.502   4.696
 8943TIP3    H226715   2.601   3.397   4.668
 8944TIP3   OH226716   2.737   3.683   5.804
 8944TIP3    H126717   2.714   3.615   5.868
 8944TIP3    H226718   2.828   3.705   5.825
 8945TIP3   OH226719   2.713   3.446   4.956
 8945TIP3    H126720   2.644   3.466   4.893
 8945TIP3    H226721   2.761   3.372   4.918
 8946TIP3   OH226722   2.022   3.490   5.712
 8946TIP3    H126723   2.035   3.553   5.784
 8946TIP3    H226724   2.004   3.407   5.757
 8947TIP3   OH226725   2.064   2.965   4.427
 8947TIP3    H126726   2.054   2.971   4.522
 8947TIP3    H226727   1.986   3.007   4.392
 8948TIP3   OH226728   1.608   3.010   5.294
 8948TIP3    H126729   1.681   3.047   5.344
 8948TIP3    H226730   1.644   2.994   5.207
 8949TIP3   OH226731   1.509   2.990   4.794
 8949TIP3    H126732   1.555   3.025   4.717
 8949TIP3    H226733   1.445   3.057   4.816
 8950TIP3   OH226734   2.736   3.687   5.380
 8950TIP3    H126735   2.763   3.621   5.317
 8950TIP3    H226736   2.698   3.637   5.453
 8951TIP3   OH226737   2.432   3.148   5.063
 8951TIP3    H126738   2.354   3.144   5.119
 8951TIP3    H226739   2.505   3.135   5.124
 8952TIP3   OH226740   1.824   3.229   5.067
 8952TIP3    H126741   1.735   3.233   5.030
 8952TIP3    H226742   1.852   3.139   5.051
 8953TIP3   OH226743   2.076   3.237   4.764
 8953TIP3    H126744   2.171   3.245   4.754
 8953TIP3    H226745   2.042   3.252   4.676
 8954TIP3   OH226746   2.880   3.232   5.273
 8954TIP3    H126747   2.857   3.250   5.365
 8954TIP3    H226748   2.814   3.167   5.245
 8955TIP3   OH226749   1.966   3.257   4.514
 8955TIP3    H126750   1.905   3.207   4.461
 8955TIP3    H226751   2.021   3.303   4.450
 8956TIP3   OH226752   2.015   4.053   5.898
 8956TIP3    H126753   2.095   4.073   5.946
 8956TIP3    H226754   1.945   4.061   5.963
 8957TIP3   OH226755   2.476   3.521   5.164
 8957TIP3    H126756   2.540   3.472   5.113
 8957TIP3    H226757   2.474   3.477   5.249
 8958TIP3   OH226758   1.967   2.980   5.055
 8958TIP3    H126759   1.938   2.905   5.106
 8958TIP3    H226760   1.990   2.943   4.969
 8959TIP3   OH226761   2.448   3.418   5.427
 8959TIP3    H126762   2.361   3.448   5.453
 8959TIP3    H226763   2.507   3.466   5.484
 8960TIP3   OH226764   2.180   3.770   4.545
 8960TIP3    H126765   2.105   3.716   4.521
 8960TIP3    H226766   2.154   3.811   4.628
 8961TIP3   OH226767   3.053   4.034   5.188
 8961TIP3    H126768   3.100   4.091   5.127
 8961TIP3    H226769   2.986   3.992   5.135
 8962TIP3   OH226770   2.649   3.087   4.457
 8962TIP3    H126771   2.556   3.065   4.451
 8962TIP3    H226772   2.651   3.182   4.467
 8963TIP3   OH226773   2.681   4.131   5.563
 8963TIP3    H126774   2.708   4.093   5.646
 8963TIP3    H226775   2.647   4.218   5.586
 8964TIP3   OH226776   2.706   3.354   4.522
 8964TIP3    H126777   2.802   3.357   4.530
 8964TIP3    H226778   2.684   3.431   4.469
 8965TIP3   OH226779   1.874   3.793   5.195
 8965TIP3    H126780   1.910   3.771   5.109
 8965TIP3    H226781   1.939   3.760   5.257
 8966TIP3   OH226782   2.337   3.930   4.390
 8966TIP3    H126783   2.289   4.013   4.386
 8966TIP3    H226784   2.281   3.873   4.442
 8967TIP3   OH226785   1.757   3.719   5.829
 8967TIP3    H126786   1.758   3.692   5.921
 8967TIP3    H226787   1.682   3.672   5.791
 8968TIP3   OH226788   2.500   3.813   5.863
 8968TIP3    H126789   2.430   3.756   5.831
 8968TIP3    H226790   2.581   3.775   5.827
 8969TIP3   OH226791   3.121   3.442   4.336
 8969TIP3    H126792   3.064   3.397   4.274
 8969TIP3    H226793   3.128   3.532   4.302
 8970TIP3   OH226794   2.864   4.259   4.266
 8970TIP3    H126795   2.835   4.185   4.320
 8970TIP3    H226796   2.887   4.220   4.182
 8971TIP3   OH226797   2.847   3.891   5.051
 8971TIP3    H126798   2.755   3.869   5.063
 8971TIP3    H226799   2.886   3.812   5.012
 8972TIP3   OH226800   2.006   4.131   4.868
 8972TIP3    H126801   2.007   4.206   4.809
 8972TIP3    H226802   1.913   4.115   4.885
 8973TIP3   OH226803   1.567   3.413   4.580
 8973TIP3    H126804   1.607   3.498   4.601
 8973TIP3    H226805   1.484   3.414   4.628
 8974TIP3   OH226806   2.080   3.882   4.769
 8974TIP3    H126807   2.070   3.972   4.801
 8974TIP3    H226808   2.054   3.828   4.844
 8975TIP3   OH226809   1.919   4.351   4.716
 8975TIP3    H126810   1.831   4.358   4.754
 8975TIP3    H226811   1.951   4.441   4.715
 8976TIP3   OH226812   2.633   4.099   5.292
 8976TIP3    H126813   2.643   4.103   5.387
 8976TIP3    H226814   2.674   4.016   5.267
 8977TIP3   OH226815   2.637   3.998   4.168
 8977TIP3    H126816   2.676   3.981   4.254
 8977TIP3    H226817   2.553   3.951   4.170
 8978TIP3   OH226818   2.938   4.461   3.963
 8978TIP3    H126819   2.953   4.520   3.889
 8978TIP3    H226820   2.869   4.503   4.014
 8979TIP3   OH226821   1.969   3.236   5.829
 8979TIP3    H126822   1.874   3.246   5.833
 8979TIP3    H226823   1.991   3.182   5.904
 8980TIP3   OH226824   2.803   3.950   4.393
 8980TIP3    H126825   2.785   3.874   4.448
 8980TIP3    H226826   2.896   3.943   4.371
 8981TIP3   OH226827   1.710   4.342   5.482
 8981TIP3    H126828   1.761   4.283   5.538
 8981TIP3    H226829   1.719   4.428   5.524
 8982TIP3   OH226830   1.979   3.957   4.174
 8982TIP3    H126831   1.989   3.866   4.147
 8982TIP3    H226832   1.965   3.952   4.269
 8983TIP3   OH226833   1.921   3.975   4.447
 8983TIP3    H126834   1.990   3.950   4.509
 8983TIP3    H226835   1.920   4.071   4.451
 8984TIP3   OH226836   1.655   3.667   4.659
 8984TIP3    H126837   1.589   3.716   4.709
 8984TIP3    H226838   1.675   3.724   4.585
 8985TIP3   OH226839   2.815   3.299   5.535
 8985TIP3    H126840   2.896   3.339   5.568
 8985TIP3    H226841   2.804   3.220   5.588
 8986TIP3   OH226842   2.707   3.041   4.725
 8986TIP3    H126843   2.687   3.056   4.632
 8986TIP3    H226844   2.752   3.120   4.753
 8987TIP3   OH226845   2.190   4.158   4.385
 8987TIP3    H126846   2.106   4.184   4.422
 8987TIP3    H226847   2.215   4.231   4.328
 8988TIP3   OH226848   2.356   3.240   4.811
 8988TIP3    H126849   2.418   3.307   4.783
 8988TIP3    H226850   2.382   3.220   4.901
 8989TIP3   OH226851   2.652   3.526   5.583
 8989TIP3    H126852   2.681   3.568   5.664
 8989TIP3    H226853   2.702   3.445   5.579
 8990TIP3   OH226854   2.517   2.938   4.895
 8990TIP3    H126855   2.494   3.015   4.948
 8990TIP3    H226856   2.587   2.969   4.838
 8991TIP3   OH226857   1.942   4.248   4.463
 8991TIP3    H126858   1.923   4.320   4.403
 8991TIP3    H226859   1.932   4.286   4.550
 8992TIP3   OH226860   2.031   2.962   4.706
 8992TIP3    H126861   2.019   3.053   4.733
 8992TIP3    H226862   2.125   2.947   4.712
 8993TIP3   OH226863   3.275   3.441   5.578
 8993TIP3    H126864   3.180   3.449   5.592
 8993TIP3    H226865   3.284   3.388   5.499
 8994TIP3   OH226866   2.938   3.635   4.960
 8994TIP3    H126867   2.863   3.576   4.968
 8994TIP3    H226868   3.006   3.593   5.013
 8995TIP3   OH226869   1.678   3.840   4.441
 8995TIP3    H126870   1.750   3.903   4.448
 8995TIP3    H226871   1.708   3.778   4.375
 8996TIP3   OH226872   1.584   3.135   4.575
 8996TIP3    H126873   1.596   3.230   4.582
 8996TIP3    H226874   1.546   3.123   4.488
 8997TIP3   OH226875   2.917   4.614   4.934
 8997TIP3    H126876   2.877   4.658   4.859
 8997TIP3    H226877   3.011   4.624   4.920
 8998TIP3   OH226878   1.981   2.857   5.441
 8998TIP3    H126879   1.952   2.825   5.356
 8998TIP3    H226880   1.973   2.781   5.499
 8999TIP3   OH226881   1.504   4.113   4.830
 8999TIP3    H126882   1.461   4.149   4.907
 8999TIP3    H226883   1.460   4.155   4.756
 9000TIP3   OH226884   1.705   4.643   5.898
 9000TIP3    H126885   1.787   4.643   5.947
 9000TIP3    H226886   1.682   4.551   5.889
 9001TIP3   OH226887   2.190   4.587   5.945
 9001TIP3    H126888   2.241   4.659   5.982
 9001TIP3    H226889   2.247   4.511   5.954
 9002TIP3   OH226890   2.131   4.160   4.065
 9002TIP3    H126891   2.084   4.089   4.109
 9002TIP3    H226892   2.206   4.117   4.023
 9003TIP3   OH226893   2.575   4.198   3.988
 9003TIP3    H126894   2.613   4.136   4.050
 9003TIP3    H226895   2.632   4.193   3.911
 9004TIP3   OH226896   1.812   4.052   6.090
 9004TIP3    H126897   1.829   3.959   6.101
 9004TIP3    H226898   1.726   4.056   6.048
 9005TIP3   OH226899   1.798   3.650   4.285
 9005TIP3    H126900   1.849   3.626   4.362
 9005TIP3    H226901   1.862   3.664   4.216
 9006TIP3   OH226902   2.414   4.071   5.845
 9006TIP3    H126903   2.497   4.117   5.831
 9006TIP3    H226904   2.439   3.979   5.849
 9007TIP3   OH226905   2.388   3.872   4.127
 9007TIP3    H126906   2.361   3.883   4.218
 9007TIP3    H226907   2.367   3.781   4.106
 9008TIP3   OH226908   2.961   4.038   5.448
 9008TIP3    H126909   2.997   4.046   5.359
 9008TIP3    H226910   2.885   4.096   5.448
 9009TIP3   OH226911   1.925   3.797   6.099
 9009TIP3    H126912   2.000   3.777   6.043
 9009TIP3    H226913   1.963   3.815   6.185
 9010TIP3   OH226914   1.972   3.593   4.497
 9010TIP3    H126915   1.954   3.560   4.585
 9010TIP3    H226916   2.023   3.523   4.456
 9011TIP3   OH226917   2.284   3.670   5.756
 9011TIP3    H126918   2.200   3.714   5.769
 9011TIP3    H226919   2.315   3.700   5.671
 9012TIP3   OH226920   2.119   3.412   4.345
 9012TIP3    H126921   2.089   3.415   4.254
 9012TIP3    H226922   2.214   3.419   4.339
 9013TIP3   OH226923   2.783   4.062   5.819
 9013TIP3    H126924   2.871   4.048   5.785
 9013TIP3    H226925   2.778   4.007   5.897
 9014TIP3   OH226926   2.910   3.698   4.020
 9014TIP3    H126927   2.897   3.657   3.935
 9014TIP3    H226928   2.887   3.789   4.007
 9015TIP3   OH226929   2.393   3.442   5.863
 9015TIP3    H126930   2.396   3.370   5.799
 9015TIP3    H226931   2.355   3.515   5.815
 9016TIP3   OH226932   2.399   3.246   5.659
 9016TIP3    H126933   2.427   3.280   5.573
 9016TIP3    H226934   2.309   3.218   5.645
 9017TIP3   OH226935   2.398   3.766   5.530
 9017TIP3    H126936   2.486   3.776   5.494
 9017TIP3    H226937   2.345   3.829   5.480
 9018TIP3   OH226938   3.002   3.719   5.905
 9018TIP3    H126939   3.029   3.629   5.926
 9018TIP3    H226940   3.080   3.759   5.866
 9019TIP3   OH226941   3.061   3.990   5.699
 9019TIP3    H126942   3.032   4.018   5.612
 9019TIP3    H226943   3.114   3.912   5.682
 9020TIP3   OH226944   2.280   3.527   6.107
 9020TIP3    H126945   2.208   3.467   6.128
 9020TIP3    H226946   2.307   3.502   6.019
 9021TIP3   OH226947   2.520   3.018   5.766
 9021TIP3    H126948   2.480   3.097   5.731
 9021TIP3    H226949   2.455   2.949   5.751
 9022TIP3   OH226950   2.649   3.480   5.966
 9022TIP3    H126951   2.639   3.468   6.060
 9022TIP3    H226952   2.563   3.459   5.929
 9023TIP3   OH226953   2.898   3.433   5.840
 9023TIP3    H126954   2.819   3.430   5.894
 9023TIP3    H226955   2.968   3.407   5.899
 9024TIP3   OH226956   3.129   3.404   5.992
 9024TIP3    H126957   3.147   3.310   5.995
 9024TIP3    H226958   3.128   3.431   6.083
 9025TIP3   OH226959   2.109   3.309   6.169
 9025TIP3    H126960   2.115   3.221   6.132
 9025TIP3    H226961   2.148   3.301   6.257
 9026TIP3   OH226962   2.587   2.990   6.030
 9026TIP3    H126963   2.655   2.923   6.023
 9026TIP3    H226964   2.557   3.004   5.940
 9027TIP3   OH226965   2.685   3.204   6.174
 9027TIP3    H126966   2.654   3.132   6.119
 9027TIP3    H226967   2.612   3.267   6.175
 9028TIP3   OH226968   1.942   4.459   4.282
 9028TIP3    H126969   2.030   4.437   4.254
 9028TIP3    H226970   1.903   4.503   4.207
 9029TIP3   OH226971   1.405   3.838   4.462
 9029TIP3    H126972   1.500   3.849   4.455
 9029TIP3    H226973   1.388   3.754   4.420
 9030TIP3   OH226974   1.308   4.420   4.917
 9030TIP3    H126975   1.243   4.366   4.871
 9030TIP3    H226976   1.353   4.358   4.975
 9031TIP3   OH226977   1.453   4.251   5.084
 9031TIP3    H126978   1.445   4.182   5.150
 9031TIP3    H226979   1.506   4.319   5.126
 9032TIP3   OH226980   3.186   4.676   4.878
 9032TIP3    H126981   3.197   4.752   4.935
 9032TIP3    H226982   3.195   4.710   4.789
 9033TIP3   OH226983   3.078   3.911   4.356
 9033TIP3    H126984   3.136   3.980   4.324
 9033TIP3    H226985   3.126   3.871   4.429
 9034TIP3   OH226986   3.210   3.767   4.555
 9034TIP3    H126987   3.141   3.728   4.610
 9034TIP3    H226988   3.274   3.801   4.618
 9035TIP3   OH226989   3.246   4.155   5.021
 9035TIP3    H126990   3.300   4.089   4.979
 9035TIP3    H226991   3.224   4.217   4.951
 9036TIP3   OH226992   3.117   3.684   4.202
 9036TIP3    H126993   3.047   3.682   4.137
 9036TIP3    H226994   3.099   3.762   4.254
 9037TIP3   OH226995   2.965   3.332   4.140
 9037TIP3    H126996   2.918   3.367   4.065
 9037TIP3    H226997   2.960   3.237   4.130
 9038TIP3   OH226998   3.003   3.628   4.689
 9038TIP3    H126999   3.009   3.534   4.673
 9038TIP3    H227000   2.986   3.636   4.782
 9039TIP3   OH227001   1.625   3.686   5.467
 9039TIP3    H127002   1.615   3.655   5.377
 9039TIP3    H227003   1.719   3.682   5.484
 9040TIP3   OH227004   3.456   3.854   5.595
 9040TIP3    H127005   3.371   3.811   5.605
 9040TIP3    H227006   3.519   3.782   5.597
 9041TIP3   OH227007   2.932   3.061   4.105
 9041TIP3    H127008   3.000   3.034   4.167
 9041TIP3    H227009   2.852   3.021   4.138
 9042TIP3   OH227010   2.998   3.351   4.576
 9042TIP3    H127011   3.043   3.268   4.589
 9042TIP3    H227012   3.039   3.389   4.498
 9043TIP3   OH227013   3.155   3.515   5.100
 9043TIP3    H127014   3.234   3.533   5.049
 9043TIP3    H227015   3.171   3.553   5.186
 9044TIP3   OH227016   3.224   3.663   5.329
 9044TIP3    H127017   3.142   3.690   5.371
 9044TIP3    H227018   3.257   3.742   5.287
 9045TIP3   OH227019   1.846   3.366   6.105
 9045TIP3    H127020   1.939   3.363   6.124
 9045TIP3    H227021   1.811   3.286   6.144
 9046TIP3   OH227022   3.685   3.264   5.865
 9046TIP3    H127023   3.751   3.209   5.824
 9046TIP3    H227024   3.646   3.314   5.793
 9047TIP3   OH227025   3.110   3.102   4.633
 9047TIP3    H127026   3.157   3.087   4.715
 9047TIP3    H227027   3.049   3.029   4.626
 9048TIP3   OH227028   1.820   3.083   5.463
 9048TIP3    H127029   1.874   3.003   5.466
 9048TIP3    H227030   1.882   3.152   5.442
 9049TIP3   OH227031   1.614   3.355   5.516
 9049TIP3    H127032   1.664   3.343   5.435
 9049TIP3    H227033   1.643   3.439   5.550
 9050TIP3   OH227034   3.529   3.373   5.665
 9050TIP3    H127035   3.442   3.412   5.666
 9050TIP3    H227036   3.518   3.292   5.615
 9051TIP3   OH227037   3.154   3.012   4.265
 9051TIP3    H127038   3.202   2.946   4.215
 9051TIP3    H227039   3.214   3.086   4.272
 9052TIP3   OH227040   1.589   2.865   5.024
 9052TIP3    H127041   1.503   2.847   5.063
 9052TIP3    H227042   1.569   2.916   4.945
 9053TIP3   OH227043   2.736   4.572   4.541
 9053TIP3    H127044   2.793   4.562   4.464
 9053TIP3    H227045   2.783   4.634   4.596
 9054TIP3   OH227046   1.821   2.914   5.852
 9054TIP3    H127047   1.769   2.909   5.932
 9054TIP3    H227048   1.765   2.961   5.790
 9055TIP3   OH227049   1.843   4.391   5.963
 9055TIP3    H127050   1.755   4.362   5.937
 9055TIP3    H227051   1.852   4.360   6.053
 9056TIP3   OH227052   2.071   4.417   5.412
 9056TIP3    H127053   2.012   4.491   5.402
 9056TIP3    H227054   2.100   4.396   5.323
 9057TIP3   OH227055   3.453   3.123   5.564
 9057TIP3    H127056   3.365   3.114   5.526
 9057TIP3    H227057   3.491   3.036   5.558
 9058TIP3   OH227058   1.705   4.652   5.521
 9058TIP3    H127059   1.614   4.669   5.496
 9058TIP3    H227060   1.726   4.723   5.582
 9059TIP3   OH227061   1.934   4.646   5.370
 9059TIP3    H127062   1.849   4.648   5.415
 9059TIP3    H227063   1.915   4.676   5.281
 9060TIP3   OH227064   2.322   4.571   5.132
 9060TIP3    H127065   2.293   4.646   5.081
 9060TIP3    H227066   2.344   4.607   5.218
 9061TIP3   OH227067   2.817   4.812   5.111
 9061TIP3    H127068   2.820   4.891   5.057
 9061TIP3    H227069   2.848   4.742   5.052
 9062TIP3   OH227070   1.627   4.429   5.230
 9062TIP3    H127071   1.652   4.405   5.319
 9062TIP3    H227072   1.700   4.400   5.175
 9063TIP3   OH227073   1.836   4.322   5.092
 9063TIP3    H127074   1.846   4.237   5.134
 9063TIP3    H227075   1.923   4.361   5.096
 9064TIP3   OH227076   2.107   4.400   5.132
 9064TIP3    H127077   2.131   4.309   5.118
 9064TIP3    H227078   2.190   4.448   5.127
 9065TIP3   OH227079   2.656   3.049   5.206
 9065TIP3    H127080   2.614   2.978   5.254
 9065TIP3    H227081   2.724   3.006   5.153
 9066TIP3   OH227082   3.156   2.950   5.081
 9066TIP3    H127083   3.192   2.999   5.007
 9066TIP3    H227084   3.063   2.974   5.082
 9067TIP3   OH227085   3.269   3.049   4.853
 9067TIP3    H127086   3.337   2.987   4.825
 9067TIP3    H227087   3.309   3.135   4.842
 9068TIP3   OH227088   1.892   2.754   5.201
 9068TIP3    H127089   1.803   2.720   5.209
 9068TIP3    H227090   1.947   2.676   5.193
 9069TIP3   OH227091   1.722   2.670   4.858
 9069TIP3    H127092   1.748   2.715   4.778
 9069TIP3    H227093   1.686   2.738   4.914
 9070TIP3   OH227094   2.371   2.799   5.097
 9070TIP3    H127095   2.422   2.839   5.026
 9070TIP3    H227096   2.420   2.820   5.176
 9071TIP3   OH227097   2.867   2.929   5.073
 9071TIP3    H127098   2.871   2.897   4.983
 9071TIP3    H227099   2.879   2.851   5.126
 9072TIP3   OH227100   2.928   2.889   4.645
 9072TIP3    H127101   2.847   2.935   4.669
 9072TIP3    H227102   2.917   2.801   4.681
 9073TIP3   OH227103   1.383   4.235   4.615
 9073TIP3    H127104   1.302   4.204   4.576
 9073TIP3    H227105   1.392   4.325   4.584
 9074TIP3   OH227106   1.825   2.790   4.615
 9074TIP3    H127107   1.871   2.729   4.558
 9074TIP3    H227108   1.894   2.847   4.650
 9075TIP3   OH227109   2.305   2.990   4.713
 9075TIP3    H127110   2.364   2.936   4.765
 9075TIP3    H227111   2.322   3.080   4.741
 9076TIP3   OH227112   2.196   4.382   4.211
 9076TIP3    H127113   2.279   4.409   4.172
 9076TIP3    H227114   2.164   4.312   4.153
 9077TIP3   OH227115   2.889   4.527   4.312
 9077TIP3    H127116   2.886   4.432   4.302
 9077TIP3    H227117   2.848   4.561   4.232
 9078TIP3   OH227118   2.126   3.039   6.080
 9078TIP3    H127119   2.091   2.973   6.140
 9078TIP3    H227120   2.218   3.048   6.105
 9079TIP3   OH227121   2.372   3.044   6.205
 9079TIP3    H127122   2.449   3.022   6.152
 9079TIP3    H227123   2.366   2.974   6.270
 9080TIP3   OH227124   1.506   4.227   4.264
 9080TIP3    H127125   1.509   4.239   4.359
 9080TIP3    H227126   1.586   4.179   4.243
 9081TIP3   OH227127   3.193   3.132   5.989
 9081TIP3    H127128   3.211   3.103   6.078
 9081TIP3    H227129   3.278   3.127   5.945
 9082TIP3   OH227130   4.390   4.056   4.234
 9082TIP3    H127131   4.361   4.144   4.209
 9082TIP3    H227132   4.319   3.998   4.207
 9083TIP3   OH227133   4.382   4.044   4.662
 9083TIP3    H127134   4.439   4.024   4.736
 9083TIP3    H227135   4.339   3.961   4.640
 9084TIP3   OH227136   3.685   3.913   5.001
 9084TIP3    H127137   3.723   3.857   5.070
 9084TIP3    H227138   3.761   3.951   4.957
 9085TIP3   OH227139   4.647   4.350   4.333
 9085TIP3    H127140   4.642   4.282   4.399
 9085TIP3    H227141   4.654   4.432   4.382
 9086TIP3   OH227142   3.697   4.344   4.708
 9086TIP3    H127143   3.680   4.250   4.710
 9086TIP3    H227144   3.790   4.351   4.687
 9087TIP3   OH227145   3.359   3.539   4.473
 9087TIP3    H127146   3.320   3.623   4.496
 9087TIP3    H227147   3.288   3.490   4.433
 9088TIP3   OH227148   3.436   3.846   4.706
 9088TIP3    H127149   3.486   3.768   4.729
 9088TIP3    H227150   3.502   3.908   4.672
 9089TIP3   OH227151   4.286   4.821   4.336
 9089TIP3    H127152   4.309   4.728   4.332
 9089TIP3    H227153   4.259   4.834   4.427
 9090TIP3   OH227154   4.193   4.267   4.669
 9090TIP3    H127155   4.239   4.188   4.640
 9090TIP3    H227156   4.259   4.316   4.719
 9091TIP3   OH227157   5.231   3.583   4.684
 9091TIP3    H127158   5.245   3.666   4.730
 9091TIP3    H227159   5.259   3.600   4.595
 9092TIP3   OH227160   4.597   3.759   4.701
 9092TIP3    H127161   4.629   3.673   4.729
 9092TIP3    H227162   4.560   3.743   4.614
 9093TIP3   OH227163   3.957   3.411   4.658
 9093TIP3    H127164   3.936   3.484   4.600
 9093TIP3    H227165   3.903   3.339   4.627
 9094TIP3   OH227166   4.657   3.519   4.298
 9094TIP3    H127167   4.720   3.512   4.370
 9094TIP3    H227168   4.708   3.555   4.226
 9095TIP3   OH227169   3.579   3.624   4.787
 9095TIP3    H127170   3.664   3.606   4.830
 9095TIP3    H227171   3.583   3.574   4.706
 9096TIP3   OH227172   3.999   3.826   4.605
 9096TIP3    H127173   4.093   3.810   4.608
 9096TIP3    H227174   3.962   3.744   4.571
 9097TIP3   OH227175   5.278   3.801   4.852
 9097TIP3    H127176   5.199   3.854   4.837
 9097TIP3    H227177   5.320   3.843   4.927
 9098TIP3   OH227178   3.937   3.419   5.111
 9098TIP3    H127179   3.888   3.454   5.036
 9098TIP3    H227180   3.882   3.437   5.187
 9099TIP3   OH227181   4.289   4.276   4.096
 9099TIP3    H127182   4.248   4.244   4.015
 9099TIP3    H227183   4.235   4.351   4.122
 9100TIP3   OH227184   4.811   3.534   4.524
 9100TIP3    H127185   4.765   3.515   4.606
 9100TIP3    H227186   4.866   3.610   4.544
 9101TIP3   OH227187   3.828   3.522   4.878
 9101TIP3    H127188   3.882   3.598   4.899
 9101TIP3    H227189   3.874   3.479   4.806
 9102TIP3   OH227190   3.250   4.098   4.235
 9102TIP3    H127191   3.218   4.116   4.147
 9102TIP3    H227192   3.274   4.184   4.270
 9103TIP3   OH227193   4.655   4.587   4.482
 9103TIP3    H127194   4.593   4.599   4.555
 9103TIP3    H227195   4.673   4.675   4.451
 9104TIP3   OH227196   5.038   3.451   4.846
 9104TIP3    H127197   4.953   3.488   4.820
 9104TIP3    H227198   5.100   3.488   4.783
 9105TIP3   OH227199   4.280   3.109   4.845
 9105TIP3    H127200   4.272   3.016   4.866
 9105TIP3    H227201   4.202   3.150   4.883
 9106TIP3   OH227202   4.398   4.625   4.119
 9106TIP3    H127203   4.457   4.551   4.111
 9106TIP3    H227204   4.453   4.702   4.104
 9107TIP3   OH227205   4.543   4.396   4.081
 9107TIP3    H127206   4.466   4.340   4.082
 9107TIP3    H227207   4.590   4.375   4.161
 9108TIP3   OH227208   4.216   3.894   4.089
 9108TIP3    H127209   4.132   3.936   4.069
 9108TIP3    H227210   4.262   3.892   4.005
 9109TIP3   OH227211   4.182   3.703   3.776
 9109TIP3    H127212   4.249   3.751   3.826
 9109TIP3    H227213   4.231   3.635   3.729
 9110TIP3   OH227214   5.085   4.139   4.690
 9110TIP3    H127215   5.008   4.196   4.696
 9110TIP3    H227216   5.126   4.164   4.607
 9111TIP3   OH227217   4.576   3.981   4.047
 9111TIP3    H127218   4.522   4.012   4.120
 9111TIP3    H227219   4.660   3.959   4.087
 9112TIP3   OH227220   4.805   4.002   4.997
 9112TIP3    H127221   4.813   4.088   5.038
 9112TIP3    H227222   4.722   4.006   4.949
 9113TIP3   OH227223   3.800   3.959   4.454
 9113TIP3    H127224   3.763   3.899   4.389
 9113TIP3    H227225   3.873   3.911   4.493
 9114TIP3   OH227226   3.952   4.401   4.603
 9114TIP3    H127227   3.931   4.382   4.511
 9114TIP3    H227228   4.033   4.354   4.620
 9115TIP3   OH227229   3.923   3.968   4.832
 9115TIP3    H127230   3.953   3.930   4.750
 9115TIP3    H227231   3.997   4.020   4.863
 9116TIP3   OH227232   4.483   4.607   4.708
 9116TIP3    H127233   4.445   4.663   4.776
 9116TIP3    H227234   4.451   4.519   4.729
 9117TIP3   OH227235   4.406   3.842   3.880
 9117TIP3    H127236   4.465   3.900   3.928
 9117TIP3    H227237   4.436   3.845   3.789
 9118TIP3   OH227238   3.831   4.011   5.290
 9118TIP3    H127239   3.847   4.102   5.315
 9118TIP3    H227240   3.736   4.000   5.299
 9119TIP3   OH227241   4.149   4.515   4.137
 9119TIP3    H127242   4.233   4.560   4.141
 9119TIP3    H227243   4.092   4.575   4.088
 9120TIP3   OH227244   4.909   3.073   3.936
 9120TIP3    H127245   4.835   3.097   3.991
 9120TIP3    H227246   4.921   3.148   3.878
 9121TIP3   OH227247   3.676   3.801   4.253
 9121TIP3    H127248   3.597   3.848   4.224
 9121TIP3    H227249   3.647   3.711   4.266
 9122TIP3   OH227250   4.743   4.444   3.496
 9122TIP3    H127251   4.735   4.538   3.477
 9122TIP3    H227252   4.832   4.421   3.469
 9123TIP3   OH227253   3.427   4.193   5.251
 9123TIP3    H127254   3.370   4.186   5.174
 9123TIP3    H227255   3.480   4.113   5.249
 9124TIP3   OH227256   3.278   4.409   4.837
 9124TIP3    H127257   3.360   4.401   4.886
 9124TIP3    H227258   3.237   4.488   4.872
 9125TIP3   OH227259   4.040   4.731   3.965
 9125TIP3    H127260   3.996   4.713   3.882
 9125TIP3    H227261   4.005   4.815   3.992
 9126TIP3   OH227262   3.478   4.591   4.349
 9126TIP3    H127263   3.521   4.581   4.434
 9126TIP3    H227264   3.429   4.509   4.337
 9127TIP3   OH227265   4.244   4.669   3.593
 9127TIP3    H127266   4.295   4.595   3.558
 9127TIP3    H227267   4.279   4.682   3.681
 9128TIP3   OH227268   4.296   4.711   3.863
 9128TIP3    H127269   4.209   4.714   3.904
 9128TIP3    H227270   4.353   4.676   3.932
 9129TIP3   OH227271   5.034   3.968   5.179
 9129TIP3    H127272   4.964   3.978   5.114
 9129TIP3    H227273   5.061   3.877   5.171
 9130TIP3   OH227274   4.041   3.200   4.969
 9130TIP3    H127275   3.958   3.166   4.936
 9130TIP3    H227276   4.018   3.281   5.014
 9131TIP3   OH227277   4.582   3.324   5.168
 9131TIP3    H127278   4.652   3.301   5.229
 9131TIP3    H227279   4.502   3.308   5.217
 9132TIP3   OH227280   4.804   3.734   5.075
 9132TIP3    H127281   4.770   3.730   5.165
 9132TIP3    H227282   4.793   3.826   5.049
 9133TIP3   OH227283   4.486   3.816   3.618
 9133TIP3    H127284   4.438   3.822   3.535
 9133TIP3    H227285   4.567   3.865   3.602
 9134TIP3   OH227286   4.194   3.250   3.922
 9134TIP3    H127287   4.150   3.263   4.006
 9134TIP3    H227288   4.160   3.166   3.890
 9135TIP3   OH227289   3.979   3.734   4.970
 9135TIP3    H127290   3.933   3.739   5.054
 9135TIP3    H227291   3.958   3.816   4.926
 9136TIP3   OH227292   3.860   3.611   4.497
 9136TIP3    H127293   3.771   3.585   4.520
 9136TIP3    H227294   3.871   3.579   4.407
 9137TIP3   OH227295   4.339   3.689   4.226
 9137TIP3    H127296   4.292   3.761   4.186
 9137TIP3    H227297   4.397   3.657   4.156
 9138TIP3   OH227298   4.529   3.943   5.290
 9138TIP3    H127299   4.511   3.874   5.354
 9138TIP3    H227300   4.620   3.967   5.306
 9139TIP3   OH227301   4.506   3.702   4.449
 9139TIP3    H127302   4.439   3.723   4.384
 9139TIP3    H227303   4.554   3.629   4.410
 9140TIP3   OH227304   3.818   3.747   5.190
 9140TIP3    H127305   3.823   3.818   5.253
 9140TIP3    H227306   3.799   3.669   5.243
 9141TIP3   OH227307   3.861   3.220   3.912
 9141TIP3    H127308   3.850   3.224   4.007
 9141TIP3    H227309   3.783   3.262   3.877
 9142TIP3   OH227310   3.403   3.271   4.782
 9142TIP3    H127311   3.481   3.304   4.828
 9142TIP3    H227312   3.435   3.247   4.696
 9143TIP3   OH227313   3.312   3.244   4.284
 9143TIP3    H127314   3.356   3.277   4.206
 9143TIP3    H227315   3.247   3.311   4.305
 9144TIP3   OH227316   4.546   3.959   4.875
 9144TIP3    H127317   4.573   3.893   4.812
 9144TIP3    H227318   4.502   3.911   4.945
 9145TIP3   OH227319   4.227   3.412   4.558
 9145TIP3    H127320   4.147   3.408   4.610
 9145TIP3    H227321   4.298   3.397   4.620
 9146TIP3   OH227322   3.619   3.486   4.554
 9146TIP3    H127323   3.531   3.491   4.517
 9146TIP3    H227324   3.648   3.396   4.538
 9147TIP3   OH227325   3.876   3.492   4.250
 9147TIP3    H127326   3.971   3.490   4.238
 9147TIP3    H227327   3.842   3.506   4.162
 9148TIP3   OH227328   4.660   3.495   4.758
 9148TIP3    H127329   4.641   3.513   4.850
 9148TIP3    H227330   4.592   3.433   4.731
 9149TIP3   OH227331   3.762   3.510   4.001
 9149TIP3    H127332   3.700   3.460   3.948
 9149TIP3    H227333   3.815   3.557   3.937
 9150TIP3   OH227334   4.978   5.176   5.043
 9150TIP3    H127335   4.944   5.152   4.957
 9150TIP3    H227336   4.944   5.108   5.102
 9151TIP3   OH227337   3.861   4.260   5.401
 9151TIP3    H127338   3.937   4.297   5.446
 9151TIP3    H227339   3.791   4.324   5.416
 9152TIP3   OH227340   4.272   3.773   4.651
 9152TIP3    H127341   4.337   3.724   4.600
 9152TIP3    H227342   4.270   3.728   4.736
 9153TIP3   OH227343   3.765   3.240   4.541
 9153TIP3    H127344   3.732   3.167   4.593
 9153TIP3    H227345   3.788   3.201   4.456
 9154TIP3   OH227346   4.243   3.671   4.913
 9154TIP3    H127347   4.155   3.702   4.937
 9154TIP3    H227348   4.302   3.722   4.968
 9155TIP3   OH227349   3.976   4.025   4.033
 9155TIP3    H127350   3.901   3.971   4.008
 9155TIP3    H227351   3.949   4.067   4.115
 9156TIP3   OH227352   4.845   4.290   4.668
 9156TIP3    H127353   4.892   4.344   4.605
 9156TIP3    H227354   4.777   4.246   4.616
 9157TIP3   OH227355   4.448   3.346   3.943
 9157TIP3    H127356   4.355   3.326   3.934
 9157TIP3    H227357   4.451   3.441   3.953
 9158TIP3   OH227358   4.448   4.379   5.098
 9158TIP3    H127359   4.504   4.330   5.158
 9158TIP3    H227360   4.464   4.471   5.119
 9159TIP3   OH227361   4.504   3.612   4.010
 9159TIP3    H127362   4.599   3.618   4.021
 9159TIP3    H227363   4.481   3.690   3.958
 9160TIP3   OH227364   3.690   4.060   4.688
 9160TIP3    H127365   3.720   4.034   4.601
 9160TIP3    H227366   3.759   4.029   4.747
 9161TIP3   OH227367   4.131   4.187   3.878
 9161TIP3    H127368   4.083   4.269   3.874
 9161TIP3    H227369   4.075   4.129   3.931
 9162TIP3   OH227370   3.558   3.955   5.337
 9162TIP3    H127371   3.552   3.944   5.432
 9162TIP3    H227372   3.476   3.917   5.304
 9163TIP3   OH227373   4.295   4.078   5.348
 9163TIP3    H127374   4.227   4.022   5.310
 9163TIP3    H227375   4.377   4.039   5.317
 9164TIP3   OH227376   4.915   3.698   3.824
 9164TIP3    H127377   4.860   3.652   3.761
 9164TIP3    H227378   4.921   3.788   3.790
 9165TIP3   OH227379   4.660   4.516   3.765
 9165TIP3    H127380   4.632   4.449   3.827
 9165TIP3    H227381   4.678   4.467   3.684
 9166TIP3   OH227382   4.638   4.147   4.534
 9166TIP3    H127383   4.548   4.125   4.555
 9166TIP3    H227384   4.675   4.067   4.497
 9167TIP3   OH227385   3.803   4.389   4.356
 9167TIP3    H127386   3.802   4.464   4.297
 9167TIP3    H227387   3.711   4.372   4.376
 9168TIP3   OH227388   3.358   3.668   4.067
 9168TIP3    H127389   3.400   3.752   4.088
 9168TIP3    H227390   3.276   3.670   4.116
 9169TIP3   OH227391   3.877   4.142   4.256
 9169TIP3    H127392   3.868   4.231   4.289
 9169TIP3    H227393   3.852   4.086   4.330
 9170TIP3   OH227394   3.712   4.608   4.202
 9170TIP3    H127395   3.625   4.616   4.242
 9170TIP3    H227396   3.747   4.698   4.204
 9171TIP3   OH227397   4.420   4.353   4.819
 9171TIP3    H127398   4.427   4.359   4.914
 9171TIP3    H227399   4.488   4.290   4.794
 9172TIP3   OH227400   4.425   4.252   3.645
 9172TIP3    H127401   4.477   4.221   3.720
 9172TIP3    H227402   4.342   4.205   3.653
 9173TIP3   OH227403   4.736   4.717   3.453
 9173TIP3    H127404   4.757   4.780   3.384
 9173TIP3    H227405   4.665   4.758   3.502
 9174TIP3   OH227406   3.765   3.495   5.319
 9174TIP3    H127407   3.669   3.504   5.321
 9174TIP3    H227408   3.786   3.438   5.392
 9175TIP3   OH227409   4.602   4.158   3.832
 9175TIP3    H127410   4.586   4.108   3.913
 9175TIP3    H227411   4.697   4.169   3.830
 9176TIP3   OH227412   3.774   4.214   3.662
 9176TIP3    H127413   3.785   4.123   3.635
 9176TIP3    H227414   3.761   4.210   3.757
 9177TIP3   OH227415   3.716   4.233   3.935
 9177TIP3    H127416   3.782   4.207   4.000
 9177TIP3    H227417   3.715   4.328   3.938
 9178TIP3   OH227418   3.449   3.922   4.146
 9178TIP3    H127419   3.383   3.970   4.196
 9178TIP3    H227420   3.469   3.979   4.072
 9179TIP3   OH227421   4.600   3.557   5.020
 9179TIP3    H127422   4.681   3.600   5.046
 9179TIP3    H227423   4.596   3.479   5.075
 9180TIP3   OH227424   4.512   3.300   4.210
 9180TIP3    H127425   4.487   3.318   4.119
 9180TIP3    H227426   4.553   3.381   4.240
 9181TIP3   OH227427   3.985   4.414   3.869
 9181TIP3    H127428   3.901   4.440   3.907
 9181TIP3    H227429   4.011   4.489   3.815
 9182TIP3   OH227430   4.163   3.489   4.300
 9182TIP3    H127431   4.221   3.560   4.274
 9182TIP3    H227432   4.182   3.476   4.393
 9183TIP3   OH227433   4.442   3.790   5.068
 9183TIP3    H127434   4.472   3.833   5.147
 9183TIP3    H227435   4.493   3.709   5.063
 9184TIP3   OH227436   4.325   3.206   4.391
 9184TIP3    H127437   4.296   3.285   4.437
 9184TIP3    H227438   4.389   3.238   4.327
 9185TIP3   OH227439   3.737   4.506   3.948
 9185TIP3    H127440   3.718   4.578   3.889
 9185TIP3    H227441   3.727   4.544   4.036
 9186TIP3   OH227442   3.819   3.216   4.191
 9186TIP3    H127443   3.801   3.306   4.218
 9186TIP3    H227444   3.915   3.209   4.193
 9187TIP3   OH227445   5.077   3.711   5.069
 9187TIP3    H127446   4.982   3.698   5.067
 9187TIP3    H227447   5.103   3.714   4.977
 9188TIP3   OH227448   4.733   3.890   4.446
 9188TIP3    H127449   4.656   3.834   4.459
 9188TIP3    H227450   4.800   3.852   4.503
 9189TIP3   OH227451   3.474   4.096   3.928
 9189TIP3    H127452   3.546   4.159   3.936
 9189TIP3    H227453   3.505   4.034   3.863
 9190TIP3   OH227454   3.376   3.389   4.059
 9190TIP3    H127455   3.391   3.483   4.068
 9190TIP3    H227456   3.317   3.381   3.984
 9191TIP3   OH227457   4.717   4.855   4.400
 9191TIP3    H127458   4.671   4.902   4.330
 9191TIP3    H227459   4.809   4.869   4.382
 9192TIP3   OH227460   3.779   3.115   4.930
 9192TIP3    H127461   3.747   3.085   4.844
 9192TIP3    H227462   3.770   3.038   4.987
 9193TIP3   OH227463   3.302   4.368   4.317
 9193TIP3    H127464   3.259   4.402   4.395
 9193TIP3    H227465   3.258   4.411   4.244
 9194TIP3   OH227466   3.928   4.415   3.550
 9194TIP3    H127467   3.881   4.346   3.596
 9194TIP3    H227468   4.003   4.372   3.510
 9195TIP3   OH227469   4.372   4.458   3.473
 9195TIP3    H127470   4.405   4.394   3.536
 9195TIP3    H227471   4.431   4.451   3.398
 9196TIP3   OH227472   3.602   4.287   5.545
 9196TIP3    H127473   3.642   4.201   5.558
 9196TIP3    H227474   3.567   4.283   5.456
 9197TIP3   OH227475   3.595   3.907   3.772
 9197TIP3    H127476   3.645   3.882   3.849
 9197TIP3    H227477   3.660   3.921   3.703
 9198TIP3   OH227478   4.212   4.335   5.297
 9198TIP3    H127479   4.293   4.377   5.266
 9198TIP3    H227480   4.238   4.246   5.317
 9199TIP3   OH227481   4.174   4.130   3.613
 9199TIP3    H127482   4.149   4.140   3.705
 9199TIP3    H227483   4.153   4.038   3.593
 9200TIP3   OH227484   4.730   4.373   4.904
 9200TIP3    H127485   4.777   4.342   4.826
 9200TIP3    H227486   4.685   4.452   4.875
 9201TIP3   OH227487   3.742   4.047   5.589
 9201TIP3    H127488   3.818   4.060   5.532
 9201TIP3    H227489   3.772   4.073   5.676
 9202TIP3   OH227490   3.767   3.849   3.985
 9202TIP3    H127491   3.748   3.819   4.073
 9202TIP3    H227492   3.816   3.778   3.945
 9203TIP3   OH227493   4.093   3.939   5.212
 9203TIP3    H127494   4.004   3.965   5.236
 9203TIP3    H227495   4.108   3.979   5.127
 9204TIP3   OH227496   3.911   3.668   3.831
 9204TIP3    H127497   3.881   3.671   3.740
 9204TIP3    H227498   4.006   3.677   3.826
 9205TIP3   OH227499   4.599   4.312   5.328
 9205TIP3    H127500   4.693   4.326   5.318
 9205TIP3    H227501   4.591   4.249   5.400
 9206TIP3   OH227502   4.702   3.954   3.509
 9206TIP3    H127503   4.689   3.915   3.423
 9206TIP3    H227504   4.680   4.046   3.497
 9207TIP3   OH227505   4.188   3.712   5.342
 9207TIP3    H127506   4.193   3.637   5.282
 9207TIP3    H227507   4.158   3.784   5.288
 9208TIP3   OH227508   4.196   3.504   5.147
 9208TIP3    H127509   4.224   3.538   5.062
 9208TIP3    H227510   4.105   3.477   5.134
 9209TIP3   OH227511   4.149   4.079   4.975
 9209TIP3    H127512   4.241   4.083   4.947
 9209TIP3    H227513   4.124   4.170   4.987
 9210TIP3   OH227514   4.800   3.983   5.381
 9210TIP3    H127515   4.832   3.895   5.400
 9210TIP3    H227516   4.872   4.025   5.334
 9211TIP3   OH227517   4.850   4.248   5.117
 9211TIP3    H127518   4.800   4.299   5.053
 9211TIP3    H227519   4.941   4.273   5.101
 9212TIP3   OH227520   4.074   3.781   5.590
 9212TIP3    H127521   4.001   3.720   5.605
 9212TIP3    H227522   4.102   3.762   5.501
 9213TIP3   OH227523   4.318   3.274   5.251
 9213TIP3    H127524   4.278   3.355   5.217
 9213TIP3    H227525   4.252   3.207   5.236
 9214TIP3   OH227526   4.448   3.734   5.450
 9214TIP3    H127527   4.438   3.723   5.544
 9214TIP3    H227528   4.361   3.719   5.414
 9215TIP3   OH227529   4.699   3.694   5.322
 9215TIP3    H127530   4.620   3.690   5.376
 9215TIP3    H227531   4.770   3.671   5.382
 9216TIP3   OH227532   4.928   3.663   5.478
 9216TIP3    H127533   4.943   3.569   5.484
 9216TIP3    H227534   4.924   3.693   5.569
 9217TIP3   OH227535   3.890   3.573   5.657
 9217TIP3    H127536   3.897   3.485   5.619
 9217TIP3    H227537   3.931   3.566   5.743
 9218TIP3   OH227538   4.382   3.247   5.516
 9218TIP3    H127539   4.451   3.181   5.509
 9218TIP3    H227540   4.353   3.261   5.425
 9219TIP3   OH227541   4.480   3.459   5.663
 9219TIP3    H127542   4.449   3.388   5.606
 9219TIP3    H227543   4.408   3.523   5.663
 9220TIP3   OH227544   3.737   4.717   3.767
 9220TIP3    H127545   3.825   4.693   3.739
 9220TIP3    H227546   3.698   4.761   3.691
 9221TIP3   OH227547   3.201   4.097   3.944
 9221TIP3    H127548   3.296   4.107   3.940
 9221TIP3    H227549   3.184   4.012   3.904
 9222TIP3   OH227550   3.101   4.677   4.402
 9222TIP3    H127551   3.034   4.626   4.357
 9222TIP3    H227552   3.146   4.614   4.458
 9223TIP3   OH227553   3.244   4.505   4.565
 9223TIP3    H127554   3.236   4.445   4.639
 9223TIP3    H227555   3.300   4.575   4.597
 9224TIP3   OH227556   4.979   4.940   4.359
 9224TIP3    H127557   4.978   5.029   4.395
 9224TIP3    H227558   5.045   4.943   4.290
 9225TIP3   OH227559   4.883   4.163   3.841
 9225TIP3    H127560   4.938   4.236   3.812
 9225TIP3    H227561   4.929   4.126   3.916
 9226TIP3   OH227562   5.016   4.022   4.043
 9226TIP3    H127563   4.947   3.988   4.101
 9226TIP3    H227564   5.080   4.061   4.102
 9227TIP3   OH227565   5.031   4.412   4.499
 9227TIP3    H127566   5.087   4.342   4.466
 9227TIP3    H227567   5.015   4.468   4.422
 9228TIP3   OH227568   4.912   3.937   3.687
 9228TIP3    H127569   4.840   3.938   3.624
 9228TIP3    H227570   4.898   4.016   3.740
 9229TIP3   OH227571   4.767   3.584   3.624
 9229TIP3    H127572   4.720   3.624   3.552
 9229TIP3    H227573   4.757   3.490   3.609
 9230TIP3   OH227574   4.806   3.888   4.178
 9230TIP3    H127575   4.810   3.793   4.164
 9230TIP3    H227576   4.786   3.897   4.271
 9231TIP3   OH227577   3.416   3.938   4.964
 9231TIP3    H127578   3.406   3.910   4.873
 9231TIP3    H227579   3.510   3.941   4.978
 9232TIP3   OH227580   5.105   4.326   5.087
 9232TIP3    H127581   5.174   4.264   5.063
 9232TIP3    H227582   5.151   4.402   5.122
 9233TIP3   OH227583   5.245   4.085   5.033
 9233TIP3    H127584   5.176   4.048   5.088
 9233TIP3    H227585   5.323   4.034   5.055
 9234TIP3   OH227586   4.729   3.311   3.592
 9234TIP3    H127587   4.792   3.289   3.660
 9234TIP3    H227588   4.645   3.277   3.625
 9235TIP3   OH227589   4.796   3.609   4.066
 9235TIP3    H127590   4.841   3.525   4.077
 9235TIP3    H227591   4.836   3.647   3.988
 9236TIP3   OH227592   4.946   3.769   4.591
 9236TIP3    H127593   5.026   3.789   4.543
 9236TIP3    H227594   4.959   3.809   4.677
 9237TIP3   OH227595   5.018   3.912   4.824
 9237TIP3    H127596   4.945   3.941   4.879
 9237TIP3    H227597   5.047   3.992   4.779
 9238TIP3   OH227598   3.619   3.628   5.597
 9238TIP3    H127599   3.714   3.630   5.612
 9238TIP3    H227600   3.592   3.544   5.634
 9239TIP3   OH227601   5.489   3.510   5.359
 9239TIP3    H127602   5.555   3.457   5.315
 9239TIP3    H227603   5.450   3.563   5.290
 9240TIP3   OH227604   4.910   3.357   4.115
 9240TIP3    H127605   4.958   3.343   4.197
 9240TIP3    H227606   4.846   3.286   4.113
 9241TIP3   OH227607   3.618   3.340   4.952
 9241TIP3    H127608   3.671   3.260   4.954
 9241TIP3    H227609   3.680   3.410   4.929
 9242TIP3   OH227610   3.394   3.612   5.001
 9242TIP3    H127611   3.448   3.592   4.924
 9242TIP3    H227612   3.417   3.703   5.023
 9243TIP3   OH227613   5.336   3.636   5.173
 9243TIP3    H127614   5.260   3.680   5.213
 9243TIP3    H227615   5.297   3.572   5.114
 9244TIP3   OH227616   4.954   3.267   3.749
 9244TIP3    H127617   5.006   3.209   3.694
 9244TIP3    H227618   5.007   3.347   3.755
 9245TIP3   OH227619   3.385   3.129   4.522
 9245TIP3    H127620   3.297   3.109   4.554
 9245TIP3    H227621   3.371   3.173   4.438
 9246TIP3   OH227622   4.538   4.837   4.024
 9246TIP3    H127623   4.595   4.823   3.948
 9246TIP3    H227624   4.586   4.898   4.080
 9247TIP3   OH227625   3.615   3.172   5.335
 9247TIP3    H127626   3.560   3.161   5.412
 9247TIP3    H227627   3.559   3.218   5.272
 9248TIP3   OH227628   5.241   3.397   5.048
 9248TIP3    H127629   5.161   3.404   4.995
 9248TIP3    H227630   5.266   3.305   5.040
 9249TIP3   OH227631   3.743   4.959   4.826
 9249TIP3    H127632   3.671   5.013   4.858
 9249TIP3    H227633   3.732   4.958   4.731
 9250TIP3   OH227634   4.178   4.920   4.572
 9250TIP3    H127635   4.085   4.931   4.550
 9250TIP3    H227636   4.196   4.988   4.636
 9251TIP3   OH227637   4.703   5.075   4.572
 9251TIP3    H127638   4.668   5.151   4.526
 9251TIP3    H227639   4.694   5.002   4.510
 9252TIP3   OH227640   3.405   4.702   4.687
 9252TIP3    H127641   3.408   4.689   4.782
 9252TIP3    H227642   3.485   4.663   4.654
 9253TIP3   OH227643   3.624   4.577   4.588
 9253TIP3    H127644   3.641   4.493   4.630
 9253TIP3    H227645   3.709   4.619   4.584
 9254TIP3   OH227646   3.888   4.675   4.608
 9254TIP3    H127647   3.919   4.585   4.597
 9254TIP3    H227648   3.938   4.708   4.683
 9255TIP3   OH227649   4.446   3.311   4.701
 9255TIP3    H127650   4.404   3.239   4.749
 9255TIP3    H227651   4.514   3.269   4.649
 9256TIP3   OH227652   4.951   3.218   4.565
 9256TIP3    H127653   4.990   3.271   4.495
 9256TIP3    H227654   4.862   3.252   4.574
 9257TIP3   OH227655   5.073   3.300   4.331
 9257TIP3    H127656   5.142   3.239   4.307
 9257TIP3    H227657   5.113   3.387   4.322
 9258TIP3   OH227658   3.683   3.021   4.689
 9258TIP3    H127659   3.596   2.982   4.697
 9258TIP3    H227660   3.742   2.945   4.682
 9259TIP3   OH227661   3.448   2.916   4.300
 9259TIP3    H127662   3.505   2.955   4.234
 9259TIP3    H227663   3.456   2.973   4.376
 9260TIP3   OH227664   4.183   3.053   4.578
 9260TIP3    H127665   4.226   3.105   4.510
 9260TIP3    H227666   4.221   3.085   4.660
 9261TIP3   OH227667   4.657   3.199   4.564
 9261TIP3    H127668   4.652   3.170   4.473
 9261TIP3    H227669   4.670   3.119   4.615
 9262TIP3   OH227670   4.726   3.143   4.128
 9262TIP3    H127671   4.648   3.194   4.152
 9262TIP3    H227672   4.709   3.056   4.166
 9263TIP3   OH227673   3.181   4.492   4.103
 9263TIP3    H127674   3.098   4.460   4.068
 9263TIP3    H227675   3.187   4.582   4.071
 9264TIP3   OH227676   3.620   3.032   4.102
 9264TIP3    H127677   3.668   2.961   4.061
 9264TIP3    H227678   3.688   3.090   4.137
 9265TIP3   OH227679   4.090   3.252   4.180
 9265TIP3    H127680   4.139   3.174   4.207
 9265TIP3    H227681   4.129   3.323   4.230
 9266TIP3   OH227682   3.990   4.638   3.695
 9266TIP3    H127683   4.074   4.665   3.657
 9266TIP3    H227684   3.960   4.567   3.638
 9267TIP3   OH227685   4.692   4.785   3.797
 9267TIP3    H127686   4.685   4.690   3.791
 9267TIP3    H227687   4.649   4.817   3.718
 9268TIP3   OH227688   3.915   3.302   5.569
 9268TIP3    H127689   3.883   3.234   5.628
 9268TIP3    H227690   4.008   3.311   5.591
 9269TIP3   OH227691   4.165   3.303   5.687
 9269TIP3    H127692   4.242   3.281   5.635
 9269TIP3    H227693   4.160   3.233   5.753
 9270TIP3   OH227694   3.302   4.483   3.752
 9270TIP3    H127695   3.304   4.492   3.847
 9270TIP3    H227696   3.382   4.435   3.731
 9271TIP3   OH227697   4.991   3.392   5.478
 9271TIP3    H127698   5.009   3.362   5.567
 9271TIP3    H227699   5.076   3.387   5.433
 9272TIP3   OH227700   6.192   4.323   3.712
 9272TIP3    H127701   6.161   4.409   3.684
 9272TIP3    H227702   6.120   4.264   3.693
 9273TIP3   OH227703   6.178   4.299   4.148
 9273TIP3    H127704   6.231   4.282   4.226
 9273TIP3    H227705   6.133   4.216   4.131
 9274TIP3   OH227706   5.464   4.173   4.509
 9274TIP3    H127707   5.503   4.103   4.561
 9274TIP3    H227708   5.514   4.251   4.530
 9275TIP3   OH227709   6.441   4.602   3.803
 9275TIP3    H127710   6.426   4.537   3.871
 9275TIP3    H227711   6.453   4.684   3.851
 9276TIP3   OH227712   5.486   4.586   4.187
 9276TIP3    H127713   5.469   4.492   4.193
 9276TIP3    H227714   5.581   4.592   4.176
 9277TIP3   OH227715   5.155   3.790   3.961
 9277TIP3    H127716   5.121   3.875   3.987
 9277TIP3    H227717   5.081   3.746   3.920
 9278TIP3   OH227718   5.243   4.112   4.188
 9278TIP3    H127719   5.291   4.034   4.216
 9278TIP3    H227720   5.310   4.178   4.170
 9279TIP3   OH227721   6.087   5.071   3.829
 9279TIP3    H127722   6.114   4.981   3.850
 9279TIP3    H227723   6.051   5.105   3.911
 9280TIP3   OH227724   6.000   4.535   4.162
 9280TIP3    H127725   6.033   4.449   4.137
 9280TIP3    H227726   6.078   4.583   4.190
 9281TIP3   OH227727   7.024   3.845   4.167
 9281TIP3    H127728   7.040   3.930   4.208
 9281TIP3    H227729   7.048   3.858   4.075
 9282TIP3   OH227730   6.403   4.008   4.186
 9282TIP3    H127731   6.445   3.926   4.212
 9282TIP3    H227732   6.369   3.991   4.098
 9283TIP3   OH227733   5.754   3.668   4.148
 9283TIP3    H127734   5.734   3.741   4.090
 9283TIP3    H227735   5.697   3.597   4.117
 9284TIP3   OH227736   6.443   3.770   3.773
 9284TIP3    H127737   6.506   3.770   3.845
 9284TIP3    H227738   6.493   3.803   3.698
 9285TIP3   OH227739   5.373   3.884   4.280
 9285TIP3    H127740   5.458   3.870   4.323
 9285TIP3    H227741   5.379   3.835   4.198
 9286TIP3   OH227742   5.811   4.084   4.059
 9286TIP3    H127743   5.903   4.064   4.076
 9286TIP3    H227744   5.773   3.999   4.034
 9287TIP3   OH227745   7.081   4.070   4.326
 9287TIP3    H127746   6.990   4.102   4.325
 9287TIP3    H227747   7.117   4.103   4.409
 9288TIP3   OH227748   5.733   3.672   4.599
 9288TIP3    H127749   5.684   3.711   4.526
 9288TIP3    H227750   5.678   3.689   4.676
 9289TIP3   OH227751   6.095   4.542   3.568
 9289TIP3    H127752   6.048   4.507   3.492
 9289TIP3    H227753   6.041   4.614   3.599
 9290TIP3   OH227754   5.828   4.429   4.360
 9290TIP3    H127755   5.772   4.485   4.413
 9290TIP3    H227756   5.880   4.490   4.307
 9291TIP3   OH227757   6.601   3.814   3.987
 9291TIP3    H127758   6.594   3.760   4.066
 9291TIP3    H227759   6.661   3.885   4.012
 9292TIP3   OH227760   5.622   3.780   4.368
 9292TIP3    H127761   5.674   3.856   4.392
 9292TIP3    H227762   5.671   3.738   4.297
 9293TIP3   OH227763   5.636   4.561   4.513
 9293TIP3    H127764   5.542   4.549   4.497
 9293TIP3    H227765   5.643   4.570   4.608
 9294TIP3   OH227766   5.050   4.358   3.722
 9294TIP3    H127767   5.013   4.379   3.636
 9294TIP3    H227768   5.074   4.443   3.759
 9295TIP3   OH227769   6.463   4.838   3.946
 9295TIP3    H127770   6.398   4.850   4.016
 9295TIP3    H227771   6.490   4.926   3.923
 9296TIP3   OH227772   6.804   3.764   4.332
 9296TIP3    H127773   6.721   3.761   4.284
 9296TIP3    H227774   6.871   3.777   4.265
 9297TIP3   OH227775   6.078   3.363   4.330
 9297TIP3    H127776   6.070   3.271   4.357
 9297TIP3    H227777   6.002   3.406   4.369
 9298TIP3   OH227778   6.201   4.880   3.585
 9298TIP3    H127779   6.259   4.803   3.583
 9298TIP3    H227780   6.261   4.954   3.576
 9299TIP3   OH227781   6.353   4.654   3.547
 9299TIP3    H127782   6.273   4.601   3.548
 9299TIP3    H227783   6.397   4.632   3.629
 9300TIP3   OH227784   6.015   4.152   3.577
 9300TIP3    H127785   5.931   4.193   3.557
 9300TIP3    H227786   6.060   4.149   3.493
 9301TIP3   OH227787   5.981   3.961   3.260
 9301TIP3    H127788   6.047   4.008   3.312
 9301TIP3    H227789   6.030   3.891   3.217
 9302TIP3   OH227790   6.885   4.412   4.182
 9302TIP3    H127791   6.806   4.467   4.186
 9302TIP3    H227792   6.921   4.427   4.095
 9303TIP3   OH227793   6.376   4.246   3.526
 9303TIP3    H127794   6.322   4.277   3.598
 9303TIP3    H227795   6.458   4.217   3.567
 9304TIP3   OH227796   6.601   4.263   4.485
 9304TIP3    H127797   6.601   4.349   4.528
 9304TIP3    H227798   6.519   4.262   4.435
 9305TIP3   OH227799   5.600   4.221   3.939
 9305TIP3    H127800   5.562   4.159   3.875
 9305TIP3    H227801   5.677   4.175   3.974
 9306TIP3   OH227802   5.748   4.654   4.087
 9306TIP3    H127803   5.724   4.634   3.997
 9306TIP3    H227804   5.833   4.613   4.099
 9307TIP3   OH227805   5.708   4.196   4.290
 9307TIP3    H127806   5.750   4.165   4.209
 9307TIP3    H227807   5.754   4.276   4.312
 9308TIP3   OH227808   6.289   4.871   4.156
 9308TIP3    H127809   6.296   4.921   4.237
 9308TIP3    H227810   6.268   4.782   4.184
 9309TIP3   OH227811   6.202   4.102   3.368
 9309TIP3    H127812   6.262   4.159   3.416
 9309TIP3    H227813   6.231   4.107   3.277
 9310TIP3   OH227814   5.621   4.290   4.744
 9310TIP3    H127815   5.640   4.376   4.782
 9310TIP3    H227816   5.527   4.278   4.760
 9311TIP3   OH227817   5.951   4.775   3.623
 9311TIP3    H127818   6.035   4.822   3.624
 9311TIP3    H227819   5.891   4.835   3.579
 9312TIP3   OH227820   6.698   3.323   3.411
 9312TIP3    H127821   6.625   3.344   3.469
 9312TIP3    H227822   6.710   3.401   3.358
 9313TIP3   OH227823   5.473   4.061   3.739
 9313TIP3    H127824   5.394   4.107   3.711
 9313TIP3    H227825   5.443   3.973   3.760
 9314TIP3   OH227826   6.585   4.756   2.916
 9314TIP3    H127827   6.545   4.809   2.986
 9314TIP3    H227828   6.649   4.701   2.961
 9315TIP3   OH227829   5.311   4.447   4.620
 9315TIP3    H127830   5.216   4.446   4.608
 9315TIP3    H227831   5.326   4.389   4.695
 9316TIP3   OH227832   5.090   4.651   4.314
 9316TIP3    H127833   5.177   4.630   4.350
 9316TIP3    H227834   5.056   4.719   4.373
 9317TIP3   OH227835   5.833   4.992   3.451
 9317TIP3    H127836   5.782   4.973   3.372
 9317TIP3    H227837   5.798   5.075   3.483
 9318TIP3   OH227838   5.277   4.847   3.841
 9318TIP3    H127839   5.317   4.837   3.928
 9318TIP3    H227840   5.227   4.766   3.829
 9319TIP3   OH227841   6.035   4.933   3.081
 9319TIP3    H127842   6.084   4.857   3.051
 9319TIP3    H227843   6.068   4.948   3.170
 9320TIP3   OH227844   6.087   4.974   3.350
 9320TIP3    H127845   5.999   4.978   3.388
 9320TIP3    H227846   6.141   4.935   3.419
 9321TIP3   OH227847   6.837   4.218   4.652
 9321TIP3    H127848   6.760   4.222   4.596
 9321TIP3    H227849   6.859   4.125   4.657
 9322TIP3   OH227850   5.838   3.455   4.457
 9322TIP3    H127851   5.754   3.424   4.423
 9322TIP3    H227852   5.817   3.537   4.502
 9323TIP3   OH227853   6.381   3.579   4.656
 9323TIP3    H127854   6.451   3.555   4.716
 9323TIP3    H227855   6.300   3.564   4.705
 9324TIP3   OH227856   6.601   4.000   4.580
 9324TIP3    H127857   6.559   3.995   4.666
 9324TIP3    H227858   6.583   4.089   4.550
 9325TIP3   OH227859   6.284   4.092   3.108
 9325TIP3    H127860   6.237   4.087   3.025
 9325TIP3    H227861   6.365   4.139   3.087
 9326TIP3   OH227862   5.986   3.501   3.424
 9326TIP3    H127863   5.952   3.507   3.513
 9326TIP3    H227864   5.952   3.418   3.391
 9327TIP3   OH227865   5.768   3.992   4.462
 9327TIP3    H127866   5.720   4.002   4.544
 9327TIP3    H227867   5.744   4.068   4.410
 9328TIP3   OH227868   5.658   3.864   3.983
 9328TIP3    H127869   5.568   3.844   4.010
 9328TIP3    H227870   5.663   3.829   3.894
 9329TIP3   OH227871   6.134   3.943   3.714
 9329TIP3    H127872   6.089   4.018   3.674
 9329TIP3    H227873   6.192   3.911   3.645
 9330TIP3   OH227874   6.327   4.202   4.776
 9330TIP3    H127875   6.300   4.137   4.841
 9330TIP3    H227876   6.417   4.223   4.800
 9331TIP3   OH227877   6.306   3.960   3.934
 9331TIP3    H127878   6.236   3.976   3.871
 9331TIP3    H227879   6.355   3.886   3.897
 9332TIP3   OH227880   5.600   3.998   4.681
 9332TIP3    H127881   5.613   4.065   4.748
 9332TIP3    H227882   5.588   3.917   4.731
 9333TIP3   OH227883   5.654   3.477   3.400
 9333TIP3    H127884   5.647   3.482   3.495
 9333TIP3    H227885   5.576   3.521   3.367
 9334TIP3   OH227886   5.209   3.523   4.269
 9334TIP3    H127887   5.274   3.562   4.328
 9334TIP3    H227888   5.249   3.530   4.182
 9335TIP3   OH227889   5.104   3.501   3.765
 9335TIP3    H127890   5.149   3.537   3.689
 9335TIP3    H227891   5.042   3.570   3.791
 9336TIP3   OH227892   6.350   4.213   4.357
 9336TIP3    H127893   6.377   4.146   4.294
 9336TIP3    H227894   6.306   4.164   4.426
 9337TIP3   OH227895   6.024   3.653   4.033
 9337TIP3    H127896   5.949   3.655   4.093
 9337TIP3    H227897   6.100   3.646   4.091
 9338TIP3   OH227898   5.415   3.745   4.046
 9338TIP3    H127899   5.328   3.749   4.007
 9338TIP3    H227900   5.446   3.656   4.029
 9339TIP3   OH227901   5.667   3.743   3.737
 9339TIP3    H127902   5.762   3.755   3.729
 9339TIP3    H227903   5.633   3.762   3.649
 9340TIP3   OH227904   6.482   3.747   4.249
 9340TIP3    H127905   6.456   3.765   4.340
 9340TIP3    H227906   6.417   3.685   4.217
 9341TIP3   OH227907   5.559   3.769   3.486
 9341TIP3    H127908   5.496   3.720   3.433
 9341TIP3    H227909   5.613   3.816   3.423
 9342TIP3   OH227910   5.647   4.532   4.869
 9342TIP3    H127911   5.723   4.559   4.921
 9342TIP3    H227912   5.584   4.602   4.879
 9343TIP3   OH227913   6.073   4.029   4.141
 9343TIP3    H127914   6.147   3.983   4.101
 9343TIP3    H227915   6.067   3.991   4.229
 9344TIP3   OH227916   5.556   3.497   4.031
 9344TIP3    H127917   5.529   3.421   4.082
 9344TIP3    H227918   5.583   3.461   3.946
 9345TIP3   OH227919   6.037   3.938   4.407
 9345TIP3    H127920   5.951   3.972   4.430
 9345TIP3    H227921   6.098   3.991   4.458
 9346TIP3   OH227922   5.774   4.282   3.519
 9346TIP3    H127923   5.700   4.227   3.494
 9346TIP3    H227924   5.747   4.325   3.600
 9347TIP3   OH227925   6.639   4.564   4.155
 9347TIP3    H127926   6.684   4.616   4.088
 9347TIP3    H227927   6.571   4.517   4.108
 9348TIP3   OH227928   6.239   3.605   3.422
 9348TIP3    H127929   6.146   3.584   3.422
 9348TIP3    H227930   6.242   3.699   3.439
 9349TIP3   OH227931   6.296   3.869   3.494
 9349TIP3    H127932   6.391   3.870   3.506
 9349TIP3    H227933   6.277   3.948   3.445
 9350TIP3   OH227934   5.470   4.295   4.175
 9350TIP3    H127935   5.509   4.278   4.089
 9350TIP3    H227936   5.532   4.258   4.238
 9351TIP3   OH227937   5.927   4.446   3.362
 9351TIP3    H127938   5.877   4.528   3.359
 9351TIP3    H227939   5.873   4.387   3.415
 9352TIP3   OH227940   5.361   4.257   4.830
 9352TIP3    H127941   5.401   4.254   4.917
 9352TIP3    H227942   5.284   4.200   4.836
 9353TIP3   OH227943   6.086   4.333   4.841
 9353TIP3    H127944   6.014   4.283   4.803
 9353TIP3    H227945   6.165   4.297   4.799
 9354TIP3   OH227946   6.713   3.954   3.308
 9354TIP3    H127947   6.657   3.908   3.245
 9354TIP3    H227948   6.718   4.044   3.275
 9355TIP3   OH227949   7.005   4.792   4.444
 9355TIP3    H127950   6.922   4.831   4.471
 9355TIP3    H227951   6.993   4.772   4.351
 9356TIP3   OH227952   6.432   4.736   3.289
 9356TIP3    H127953   6.415   4.727   3.382
 9356TIP3    H227954   6.415   4.649   3.253
 9357TIP3   OH227955   6.418   4.411   4.032
 9357TIP3    H127956   6.331   4.375   4.050
 9357TIP3    H227957   6.466   4.337   3.994
 9358TIP3   OH227958   5.597   4.647   3.843
 9358TIP3    H127959   5.591   4.722   3.784
 9358TIP3    H227960   5.507   4.631   3.872
 9359TIP3   OH227961   5.153   3.926   3.553
 9359TIP3    H127962   5.195   4.009   3.576
 9359TIP3    H227963   5.071   3.927   3.602
 9360TIP3   OH227964   5.671   4.402   3.738
 9360TIP3    H127965   5.660   4.491   3.772
 9360TIP3    H227966   5.649   4.345   3.812
 9361TIP3   OH227967   5.507   4.866   3.689
 9361TIP3    H127968   5.422   4.872   3.732
 9361TIP3    H227969   5.541   4.956   3.691
 9362TIP3   OH227970   6.270   4.603   4.232
 9362TIP3    H127971   6.323   4.591   4.311
 9362TIP3    H227972   6.311   4.546   4.167
 9363TIP3   OH227973   6.237   4.499   3.110
 9363TIP3    H127974   6.285   4.468   3.186
 9363TIP3    H227975   6.153   4.454   3.115
 9364TIP3   OH227976   5.561   3.745   4.808
 9364TIP3    H127977   5.466   3.752   4.817
 9364TIP3    H227978   5.590   3.702   4.888
 9365TIP3   OH227979   6.408   4.423   3.309
 9365TIP3    H127980   6.385   4.372   3.387
 9365TIP3    H227981   6.504   4.428   3.312
 9366TIP3   OH227982   5.569   4.471   3.151
 9366TIP3    H127983   5.580   4.379   3.125
 9366TIP3    H227984   5.556   4.467   3.246
 9367TIP3   OH227985   5.512   4.489   3.424
 9367TIP3    H127986   5.572   4.463   3.494
 9367TIP3    H227987   5.511   4.585   3.428
 9368TIP3   OH227988   5.245   4.179   3.632
 9368TIP3    H127989   5.180   4.227   3.684
 9368TIP3    H227990   5.264   4.236   3.558
 9369TIP3   OH227991   6.408   3.812   4.509
 9369TIP3    H127992   6.488   3.855   4.539
 9369TIP3    H227993   6.400   3.734   4.564
 9370TIP3   OH227994   6.300   3.548   3.690
 9370TIP3    H127995   6.282   3.567   3.598
 9370TIP3    H227996   6.344   3.627   3.723
 9371TIP3   OH227997   5.780   4.673   3.355
 9371TIP3    H127998   5.696   4.697   3.395
 9371TIP3    H227999   5.805   4.750   3.304
 9372TIP3   OH228000   5.946   3.754   3.785
 9372TIP3    H128001   6.008   3.822   3.759
 9372TIP3    H228002   5.971   3.730   3.874
 9373TIP3   OH228003   6.251   4.046   4.551
 9373TIP3    H128004   6.277   4.087   4.634
 9373TIP3    H228005   6.299   3.964   4.549
 9374TIP3   OH228006   6.116   3.444   3.868
 9374TIP3    H128007   6.096   3.521   3.921
 9374TIP3    H228008   6.187   3.473   3.810
 9375TIP3   OH228009   5.532   4.762   3.436
 9375TIP3    H128010   5.511   4.834   3.376
 9375TIP3    H228011   5.521   4.800   3.523
 9376TIP3   OH228012   5.628   3.470   3.679
 9376TIP3    H128013   5.616   3.561   3.707
 9376TIP3    H228014   5.722   3.455   3.686
 9377TIP3   OH228015   6.863   3.936   4.551
 9377TIP3    H128016   6.770   3.952   4.569
 9377TIP3    H228017   6.864   3.881   4.472
 9378TIP3   OH228018   6.527   4.158   3.936
 9378TIP3    H128019   6.453   4.099   3.947
 9378TIP3    H228020   6.597   4.119   3.989
 9379TIP3   OH228021   5.270   4.353   3.414
 9379TIP3    H128022   5.342   4.415   3.424
 9379TIP3    H228023   5.301   4.290   3.349
 9380TIP3   OH228024   5.172   3.648   3.544
 9380TIP3    H128025   5.188   3.742   3.555
 9380TIP3    H228026   5.111   3.642   3.470
 9381TIP3   OH228027   6.542   5.102   3.904
 9381TIP3    H128028   6.493   5.157   3.844
 9381TIP3    H228029   6.633   5.129   3.893
 9382TIP3   OH228030   5.575   3.372   4.412
 9382TIP3    H128031   5.545   3.341   4.327
 9382TIP3    H228032   5.567   3.295   4.469
 9383TIP3   OH228033   5.100   4.628   3.805
 9383TIP3    H128034   5.055   4.661   3.883
 9383TIP3    H228035   5.055   4.670   3.732
 9384TIP3   OH228036   5.720   4.671   3.037
 9384TIP3    H128037   5.672   4.604   3.085
 9384TIP3    H228038   5.793   4.625   2.997
 9385TIP3   OH228039   6.156   4.717   2.965
 9385TIP3    H128040   6.193   4.647   3.019
 9385TIP3    H228041   6.204   4.711   2.882
 9386TIP3   OH228042   5.392   4.164   3.259
 9386TIP3    H128043   5.442   4.139   3.336
 9386TIP3    H228044   5.458   4.178   3.191
 9387TIP3   OH228045   5.984   4.385   3.101
 9387TIP3    H128046   5.958   4.398   3.192
 9387TIP3    H228047   5.960   4.295   3.082
 9388TIP3   OH228048   6.514   4.650   4.393
 9388TIP3    H128049   6.563   4.625   4.315
 9388TIP3    H228050   6.502   4.744   4.385
 9389TIP3   OH228051   5.543   4.242   5.057
 9389TIP3    H128052   5.621   4.274   5.010
 9389TIP3    H228053   5.539   4.296   5.136
 9390TIP3   OH228054   5.563   4.107   3.471
 9390TIP3    H128055   5.543   4.078   3.561
 9390TIP3    H228056   5.613   4.034   3.433
 9391TIP3   OH228057   5.877   4.180   4.721
 9391TIP3    H128058   5.791   4.222   4.724
 9391TIP3    H228059   5.914   4.205   4.637
 9392TIP3   OH228060   5.709   3.925   3.317
 9392TIP3    H128061   5.680   3.930   3.226
 9392TIP3    H228062   5.805   3.934   3.312
 9393TIP3   OH228063   6.389   4.586   4.830
 9393TIP3    H128064   6.445   4.543   4.766
 9393TIP3    H228065   6.382   4.523   4.902
 9394TIP3   OH228066   6.499   4.225   2.988
 9394TIP3    H128067   6.483   4.183   2.903
 9394TIP3    H228068   6.487   4.319   2.971
 9395TIP3   OH228069   5.984   3.956   4.836
 9395TIP3    H128070   5.989   3.885   4.771
 9395TIP3    H228071   5.948   4.030   4.788
 9396TIP3   OH228072   5.993   3.759   4.631
 9396TIP3    H128073   6.019   3.801   4.549
 9396TIP3    H228074   5.902   3.734   4.617
 9397TIP3   OH228075   6.003   4.267   4.498
 9397TIP3    H128076   6.089   4.310   4.495
 9397TIP3    H228077   5.945   4.327   4.450
 9398TIP3   OH228078   6.593   4.241   4.881
 9398TIP3    H128079   6.628   4.152   4.882
 9398TIP3    H228080   6.668   4.296   4.861
 9399TIP3   OH228081   6.630   4.517   4.608
 9399TIP3    H128082   6.580   4.569   4.546
 9399TIP3    H228083   6.722   4.530   4.582
 9400TIP3   OH228084   5.870   4.039   5.080
 9400TIP3    H128085   5.798   3.978   5.097
 9400TIP3    H228086   5.898   4.018   4.991
 9401TIP3   OH228087   6.114   3.530   4.736
 9401TIP3    H128088   6.075   3.610   4.701
 9401TIP3    H228089   6.047   3.462   4.722
 9402TIP3   OH228090   6.239   3.998   4.940
 9402TIP3    H128091   6.227   3.987   5.034
 9402TIP3    H228092   6.154   3.978   4.902
 9403TIP3   OH228093   6.490   3.954   4.820
 9403TIP3    H128094   6.409   3.953   4.873
 9403TIP3    H228095   6.558   3.927   4.881
 9404TIP3   OH228096   6.722   3.916   4.969
 9404TIP3    H128097   6.736   3.821   4.973
 9404TIP3    H228098   6.717   3.943   5.061
 9405TIP3   OH228099   5.696   3.824   5.144
 9405TIP3    H128100   5.703   3.736   5.108
 9405TIP3    H228101   5.736   3.819   5.231
 9406TIP3   OH228102   6.177   3.502   5.001
 9406TIP3    H128103   6.248   3.437   4.994
 9406TIP3    H228104   6.149   3.516   4.911
 9407TIP3   OH228105   6.274   3.717   5.144
 9407TIP3    H128106   6.242   3.645   5.089
 9407TIP3    H228107   6.202   3.780   5.145
 9408TIP3   OH228108   5.528   4.973   3.253
 9408TIP3    H128109   5.616   4.949   3.225
 9408TIP3    H228110   5.490   5.018   3.178
 9409TIP3   OH228111   4.996   4.358   3.422
 9409TIP3    H128112   5.091   4.366   3.424
 9409TIP3    H228113   4.980   4.271   3.386
 9410TIP3   OH228114   4.900   4.935   3.893
 9410TIP3    H128115   4.834   4.882   3.849
 9410TIP3    H228116   4.944   4.874   3.952
 9411TIP3   OH228117   5.049   4.770   4.058
 9411TIP3    H128118   5.042   4.705   4.129
 9411TIP3    H228119   5.104   4.839   4.095
 9412TIP3   OH228120   6.815   5.165   3.906
 9412TIP3    H128121   6.844   5.189   3.994
 9412TIP3    H228122   6.861   5.226   3.849
 9413TIP3   OH228123   6.858   4.916   4.681
 9413TIP3    H128124   6.802   4.954   4.749
 9413TIP3    H228125   6.917   4.987   4.656
 9414TIP3   OH228126   6.686   4.419   3.328
 9414TIP3    H128127   6.745   4.490   3.305
 9414TIP3    H228128   6.725   4.378   3.405
 9415TIP3   OH228129   6.807   4.278   3.534
 9415TIP3    H128130   6.740   4.240   3.591
 9415TIP3    H228131   6.872   4.314   3.594
 9416TIP3   OH228132   6.822   4.676   3.970
 9416TIP3    H128133   6.876   4.606   3.934
 9416TIP3    H228134   6.816   4.740   3.900
 9417TIP3   OH228135   6.706   4.194   3.171
 9417TIP3    H128136   6.633   4.198   3.109
 9417TIP3    H228137   6.694   4.272   3.226
 9418TIP3   OH228138   6.563   3.845   3.105
 9418TIP3    H128139   6.515   3.877   3.029
 9418TIP3    H228140   6.555   3.749   3.100
 9419TIP3   OH228141   6.597   4.142   3.666
 9419TIP3    H128142   6.603   4.047   3.656
 9419TIP3    H228143   6.577   4.155   3.759
 9420TIP3   OH228144   5.199   4.199   4.445
 9420TIP3    H128145   5.198   4.171   4.353
 9420TIP3    H228146   5.292   4.203   4.468
 9421TIP3   OH228147   6.897   4.554   4.536
 9421TIP3    H128148   6.952   4.477   4.521
 9421TIP3    H228149   6.945   4.626   4.494
 9422TIP3   OH228150   7.052   4.330   4.521
 9422TIP3    H128151   6.982   4.287   4.570
 9422TIP3    H228152   7.131   4.279   4.542
 9423TIP3   OH228153   6.519   3.575   3.078
 9423TIP3    H128154   6.587   3.548   3.140
 9423TIP3    H228155   6.439   3.534   3.111
 9424TIP3   OH228156   6.587   3.857   3.546
 9424TIP3    H128157   6.634   3.775   3.562
 9424TIP3    H228158   6.631   3.896   3.470
 9425TIP3   OH228159   6.744   4.037   4.072
 9425TIP3    H128160   6.827   4.053   4.026
 9425TIP3    H228161   6.759   4.070   4.160
 9426TIP3   OH228162   6.818   4.176   4.306
 9426TIP3    H128163   6.745   4.200   4.363
 9426TIP3    H228164   6.845   4.259   4.266
 9427TIP3   OH228165   5.430   3.877   5.074
 9427TIP3    H128166   5.523   3.883   5.096
 9427TIP3    H228167   5.400   3.798   5.119
 9428TIP3   OH228168   7.268   3.778   4.840
 9428TIP3    H128169   7.331   3.717   4.803
 9428TIP3    H228170   7.232   3.824   4.764
 9429TIP3   OH228171   6.706   3.610   3.605
 9429TIP3    H128172   6.750   3.600   3.690
 9429TIP3    H228173   6.646   3.536   3.600
 9430TIP3   OH228174   5.414   3.598   4.442
 9430TIP3    H128175   5.469   3.519   4.443
 9430TIP3    H228176   5.474   3.669   4.421
 9431TIP3   OH228177   5.187   3.864   4.493
 9431TIP3    H128178   5.244   3.857   4.416
 9431TIP3    H228179   5.201   3.953   4.525
 9432TIP3   OH228180   7.123   3.880   4.628
 9432TIP3    H128181   7.035   3.917   4.627
 9432TIP3    H228182   7.115   3.796   4.582
 9433TIP3   OH228183   6.744   3.529   3.235
 9433TIP3    H128184   6.792   3.467   3.180
 9433TIP3    H228185   6.803   3.604   3.245
 9434TIP3   OH228186   5.175   3.353   3.983
 9434TIP3    H128187   5.092   3.352   4.031
 9434TIP3    H228188   5.160   3.414   3.911
 9435TIP3   OH228189   6.364   5.081   3.507
 9435TIP3    H128190   6.429   5.090   3.437
 9435TIP3    H228191   6.394   5.140   3.576
 9436TIP3   OH228192   5.405   3.409   4.814
 9436TIP3    H128193   5.361   3.415   4.898
 9436TIP3    H228194   5.353   3.464   4.755
 9437TIP3   OH228195   7.053   3.623   4.543
 9437TIP3    H128196   6.963   3.601   4.518
 9437TIP3    H228197   7.101   3.541   4.534
 9438TIP3   OH228198   5.269   5.096   4.447
 9438TIP3    H128199   5.188   5.147   4.445
 9438TIP3    H228200   5.255   5.031   4.516
 9439TIP3   OH228201   5.512   5.197   4.344
 9439TIP3    H128202   5.424   5.171   4.372
 9439TIP3    H228203   5.503   5.214   4.250
 9440TIP3   OH228204   5.964   5.207   4.034
 9440TIP3    H128205   5.868   5.202   4.036
 9440TIP3    H228206   5.987   5.253   4.115
 9441TIP3   OH228207   5.211   4.968   4.201
 9441TIP3    H128208   5.244   5.005   4.282
 9441TIP3    H228209   5.285   4.919   4.165
 9442TIP3   OH228210   5.415   4.829   4.085
 9442TIP3    H128211   5.430   4.743   4.123
 9442TIP3    H228212   5.502   4.870   4.082
 9443TIP3   OH228213   5.682   4.924   4.095
 9443TIP3    H128214   5.707   4.833   4.083
 9443TIP3    H228215   5.746   4.958   4.158
 9444TIP3   OH228216   6.263   3.557   4.158
 9444TIP3    H128217   6.227   3.486   4.211
 9444TIP3    H228218   6.332   3.516   4.106
 9445TIP3   OH228219   6.740   3.537   4.085
 9445TIP3    H128220   6.781   3.548   3.999
 9445TIP3    H228221   6.651   3.506   4.066
 9446TIP3   OH228222   6.859   3.568   3.832
 9446TIP3    H128223   6.925   3.501   3.813
 9446TIP3    H228224   6.903   3.651   3.816
 9447TIP3   OH228225   5.486   3.268   4.172
 9447TIP3    H128226   5.397   3.233   4.181
 9447TIP3    H228227   5.541   3.190   4.165
 9448TIP3   OH228228   5.318   3.170   3.824
 9448TIP3    H128229   5.343   3.220   3.746
 9448TIP3    H228230   5.276   3.235   3.881
 9449TIP3   OH228231   5.972   3.305   4.069
 9449TIP3    H128232   6.019   3.351   4.000
 9449TIP3    H228233   6.013   3.334   4.151
 9450TIP3   OH228234   6.480   3.424   4.035
 9450TIP3    H128235   6.533   3.389   3.964
 9450TIP3    H228236   6.478   3.354   4.100
 9451TIP3   OH228237   6.521   3.396   3.610
 9451TIP3    H128238   6.444   3.444   3.640
 9451TIP3    H228239   6.514   3.310   3.651
 9452TIP3   OH228240   4.981   4.748   3.588
 9452TIP3    H128241   4.897   4.714   3.557
 9452TIP3    H228242   4.984   4.838   3.555
 9453TIP3   OH228243   5.420   3.301   3.587
 9453TIP3    H128244   5.466   3.242   3.527
 9453TIP3    H228245   5.488   3.358   3.623
 9454TIP3   OH228246   5.903   3.501   3.689
 9454TIP3    H128247   5.965   3.450   3.742
 9454TIP3    H228248   5.916   3.591   3.717
 9455TIP3   OH228249   5.780   4.896   3.180
 9455TIP3    H128250   5.863   4.924   3.143
 9455TIP3    H228251   5.752   4.823   3.125
 9456TIP3   OH228252   6.518   5.000   3.240
 9456TIP3    H128253   6.485   4.913   3.261
 9456TIP3    H228254   6.451   5.038   3.183
 9457TIP3   OH228255   5.714   3.554   5.050
 9457TIP3    H128256   5.681   3.488   5.112
 9457TIP3    H228257   5.807   3.563   5.073
 9458TIP3   OH228258   5.962   3.557   5.174
 9458TIP3    H128259   6.039   3.535   5.122
 9458TIP3    H228260   5.958   3.489   5.241
 9459TIP3   OH228261   5.096   4.738   3.239
 9459TIP3    H128262   5.096   4.744   3.335
 9459TIP3    H228263   5.176   4.691   3.218
 9460TIP3   OH228264   6.783   3.646   4.968
 9460TIP3    H128265   6.802   3.616   5.056
 9460TIP3    H228266   6.867   3.640   4.921
 9461TIP3   OH228267   7.985   4.570   3.206
 9461TIP3    H128268   7.952   4.656   3.179
 9461TIP3    H228269   7.913   4.510   3.184
 9462TIP3   OH228270   7.982   4.548   3.636
 9462TIP3    H128271   8.036   4.531   3.713
 9462TIP3    H228272   7.939   4.464   3.618
 9463TIP3   OH228273   7.265   4.422   3.983
 9463TIP3    H128274   7.302   4.362   4.048
 9463TIP3    H228275   7.342   4.463   3.942
 9464TIP3   OH228276   8.252   4.864   3.307
 9464TIP3    H128277   8.235   4.799   3.375
 9464TIP3    H228278   8.270   4.945   3.356
 9465TIP3   OH228279   7.271   4.838   3.648
 9465TIP3    H128280   7.255   4.745   3.661
 9465TIP3    H228281   7.366   4.847   3.654
 9466TIP3   OH228282   6.954   4.054   3.441
 9466TIP3    H128283   6.915   4.137   3.471
 9466TIP3    H228284   6.880   4.004   3.408
 9467TIP3   OH228285   7.033   4.367   3.678
 9467TIP3    H128286   7.082   4.289   3.703
 9467TIP3    H228287   7.101   4.432   3.658
 9468TIP3   OH228288   7.898   5.315   3.309
 9468TIP3    H128289   7.927   5.241   3.256
 9468TIP3    H228290   7.897   5.281   3.399
 9469TIP3   OH228291   7.784   4.781   3.653
 9469TIP3    H128292   7.825   4.700   3.623
 9469TIP3    H228293   7.857   4.834   3.685
 9470TIP3   OH228294   8.748   4.101   3.648
 9470TIP3    H128295   8.786   4.154   3.718
 9470TIP3    H228296   8.813   4.103   3.578
 9471TIP3   OH228297   8.211   4.230   3.700
 9471TIP3    H128298   8.206   4.153   3.757
 9471TIP3    H228299   8.161   4.204   3.622
 9472TIP3   OH228300   7.541   3.929   3.633
 9472TIP3    H128301   7.517   4.000   3.574
 9472TIP3    H228302   7.487   3.855   3.606
 9473TIP3   OH228303   8.252   4.023   3.266
 9473TIP3    H128304   8.323   3.968   3.299
 9473TIP3    H228305   8.289   4.066   3.189
 9474TIP3   OH228306   7.172   4.143   3.761
 9474TIP3    H128307   7.254   4.123   3.806
 9474TIP3    H228308   7.175   4.090   3.681
 9475TIP3   OH228309   7.592   4.345   3.575
 9475TIP3    H128310   7.685   4.327   3.586
 9475TIP3    H228311   7.555   4.263   3.543
 9476TIP3   OH228312   8.822   4.293   3.839
 9476TIP3    H128313   8.755   4.357   3.818
 9476TIP3    H228314   8.876   4.335   3.906
 9477TIP3   OH228315   7.532   3.933   4.084
 9477TIP3    H128316   7.481   3.969   4.011
 9477TIP3    H228317   7.476   3.945   4.160
 9478TIP3   OH228318   7.881   4.786   3.067
 9478TIP3    H128319   7.842   4.754   2.985
 9478TIP3    H228320   7.827   4.861   3.091
 9479TIP3   OH228321   7.602   4.725   3.862
 9479TIP3    H128322   7.552   4.797   3.902
 9479TIP3    H228323   7.654   4.768   3.794
 9480TIP3   OH228324   7.418   4.041   3.855
 9480TIP3    H128325   7.473   4.116   3.877
 9480TIP3    H228326   7.465   3.997   3.784
 9481TIP3   OH228327   7.430   4.922   4.002
 9481TIP3    H128328   7.395   5.011   3.998
 9481TIP3    H228329   7.374   4.877   4.065
 9482TIP3   OH228330   6.861   4.611   3.223
 9482TIP3    H128331   6.827   4.622   3.134
 9482TIP3    H228332   6.879   4.700   3.252
 9483TIP3   OH228333   8.285   5.113   3.445
 9483TIP3    H128334   8.201   5.103   3.489
 9483TIP3    H228335   8.280   5.197   3.401
 9484TIP3   OH228336   7.859   3.616   3.814
 9484TIP3    H128337   7.855   3.525   3.842
 9484TIP3    H228338   7.783   3.657   3.855
 9485TIP3   OH228339   7.992   5.144   3.109
 9485TIP3    H128340   8.046   5.066   3.098
 9485TIP3    H228341   8.048   5.216   3.079
 9486TIP3   OH228342   8.132   4.915   3.064
 9486TIP3    H128343   8.059   4.853   3.062
 9486TIP3    H228344   8.183   4.890   3.141
 9487TIP3   OH228345   8.504   5.007   3.784
 9487TIP3    H128346   8.487   4.932   3.725
 9487TIP3    H228347   8.490   5.084   3.729
 9488TIP3   OH228348   7.810   4.402   3.066
 9488TIP3    H128349   7.727   4.445   3.046
 9488TIP3    H228350   7.856   4.400   2.982
 9489TIP3   OH228351   7.777   4.217   2.745
 9489TIP3    H128352   7.842   4.264   2.796
 9489TIP3    H228353   7.827   4.149   2.699
 9490TIP3   OH228354   8.679   4.656   3.645
 9490TIP3    H128355   8.597   4.706   3.645
 9490TIP3    H228356   8.716   4.672   3.558
 9491TIP3   OH228357   8.169   4.493   3.021
 9491TIP3    H128358   8.113   4.524   3.093
 9491TIP3    H228359   8.252   4.469   3.064
 9492TIP3   OH228360   8.391   4.523   3.976
 9492TIP3    H128361   8.387   4.608   4.020
 9492TIP3    H228362   8.309   4.518   3.927
 9493TIP3   OH228363   7.395   4.476   3.424
 9493TIP3    H128364   7.361   4.412   3.361
 9493TIP3    H228365   7.469   4.431   3.466
 9494TIP3   OH228366   7.540   4.913   3.581
 9494TIP3    H128367   7.520   4.903   3.488
 9494TIP3    H228368   7.625   4.872   3.592
 9495TIP3   OH228369   7.491   4.479   3.801
 9495TIP3    H128370   7.534   4.445   3.723
 9495TIP3    H228371   7.535   4.562   3.819
 9496TIP3   OH228372   8.055   5.101   3.586
 9496TIP3    H128373   8.033   5.186   3.623
 9496TIP3    H228374   8.030   5.038   3.653
 9497TIP3   OH228375   7.647   5.038   4.127
 9497TIP3    H128376   7.605   5.124   4.136
 9497TIP3    H228377   7.582   4.984   4.081
 9498TIP3   OH228378   7.997   4.355   2.855
 9498TIP3    H128379   8.057   4.412   2.902
 9498TIP3    H228380   8.026   4.359   2.764
 9499TIP3   OH228381   7.430   4.541   4.229
 9499TIP3    H128382   7.442   4.626   4.271
 9499TIP3    H228383   7.336   4.528   4.228
 9500TIP3   OH228384   7.744   5.025   3.102
 9500TIP3    H128385   7.826   5.072   3.115
 9500TIP3    H228386   7.688   5.088   3.057
 9501TIP3   OH228387   8.494   3.580   2.908
 9501TIP3    H128388   8.417   3.604   2.960
 9501TIP3    H228389   8.509   3.655   2.851
 9502TIP3   OH228390   7.273   4.310   3.227
 9502TIP3    H128391   7.193   4.354   3.199
 9502TIP3    H228392   7.244   4.222   3.251
 9503TIP3   OH228393   8.303   4.961   2.471
 9503TIP3    H128394   8.310   5.054   2.448
 9503TIP3    H228395   8.391   4.926   2.456
 9504TIP3   OH228396   6.996   4.718   4.186
 9504TIP3    H128397   6.942   4.698   4.110
 9504TIP3    H228398   7.056   4.643   4.192
 9505TIP3   OH228399   6.878   4.912   3.801
 9505TIP3    H128400   6.972   4.908   3.822
 9505TIP3    H228401   6.847   4.992   3.844
 9506TIP3   OH228402   8.743   5.354   3.880
 9506TIP3    H128403   8.743   5.258   3.889
 9506TIP3    H228404   8.661   5.381   3.922
 9507TIP3   OH228405   7.873   5.137   4.009
 9507TIP3    H128406   7.866   5.232   4.015
 9507TIP3    H228407   7.790   5.104   4.043
 9508TIP3   OH228408   7.635   5.236   2.938
 9508TIP3    H128409   7.594   5.220   2.853
 9508TIP3    H228410   7.600   5.321   2.966
 9509TIP3   OH228411   7.067   5.108   3.318
 9509TIP3    H128412   7.114   5.100   3.401
 9509TIP3    H228413   7.023   5.024   3.307
 9510TIP3   OH228414   7.834   5.181   2.567
 9510TIP3    H128415   7.884   5.108   2.531
 9510TIP3    H228416   7.871   5.196   2.654
 9511TIP3   OH228417   7.891   5.223   2.836
 9511TIP3    H128418   7.807   5.221   2.880
 9511TIP3    H228419   7.953   5.191   2.901
 9512TIP3   OH228420   8.624   4.498   4.157
 9512TIP3    H128421   8.542   4.502   4.108
 9512TIP3    H228422   8.644   4.404   4.163
 9513TIP3   OH228423   7.629   3.713   3.942
 9513TIP3    H128424   7.545   3.677   3.914
 9513TIP3    H228425   7.608   3.793   3.989
 9514TIP3   OH228426   8.186   3.844   4.119
 9514TIP3    H128427   8.258   3.821   4.177
 9514TIP3    H228428   8.108   3.836   4.173
 9515TIP3   OH228429   8.373   4.244   4.032
 9515TIP3    H128430   8.337   4.232   4.120
 9515TIP3    H228431   8.366   4.337   4.015
 9516TIP3   OH228432   8.074   4.338   2.593
 9516TIP3    H128433   8.028   4.339   2.508
 9516TIP3    H228434   8.157   4.383   2.576
 9517TIP3   OH228435   7.782   3.756   2.916
 9517TIP3    H128436   7.749   3.762   3.006
 9517TIP3    H228437   7.745   3.675   2.882
 9518TIP3   OH228438   7.569   4.255   3.946
 9518TIP3    H128439   7.521   4.258   4.029
 9518TIP3    H228440   7.544   4.336   3.901
 9519TIP3   OH228441   7.449   4.129   3.469
 9519TIP3    H128442   7.360   4.104   3.494
 9519TIP3    H228443   7.459   4.094   3.380
 9520TIP3   OH228444   7.937   4.198   3.204
 9520TIP3    H128445   7.890   4.273   3.167
 9520TIP3    H228446   7.995   4.169   3.133
 9521TIP3   OH228447   8.115   4.484   4.277
 9521TIP3    H128448   8.086   4.416   4.337
 9521TIP3    H228449   8.209   4.493   4.296
 9522TIP3   OH228450   8.110   4.195   3.433
 9522TIP3    H128451   8.034   4.218   3.379
 9522TIP3    H228452   8.155   4.127   3.383
 9523TIP3   OH228453   7.403   4.254   4.164
 9523TIP3    H128454   7.414   4.320   4.233
 9523TIP3    H228455   7.387   4.173   4.212
 9524TIP3   OH228456   7.451   3.736   2.886
 9524TIP3    H128457   7.443   3.739   2.981
 9524TIP3    H228458   7.372   3.780   2.854
 9525TIP3   OH228459   7.004   3.778   3.742
 9525TIP3    H128460   7.074   3.813   3.798
 9525TIP3    H228461   7.050   3.745   3.664
 9526TIP3   OH228462   6.903   3.757   3.257
 9526TIP3    H128463   6.950   3.792   3.181
 9526TIP3    H228464   6.841   3.825   3.280
 9527TIP3   OH228465   8.152   4.455   3.846
 9527TIP3    H128466   8.178   4.381   3.790
 9527TIP3    H228467   8.103   4.414   3.918
 9528TIP3   OH228468   7.806   3.985   3.546
 9528TIP3    H128469   7.725   3.960   3.592
 9528TIP3    H228470   7.870   3.920   3.574
 9529TIP3   OH228471   7.212   4.002   3.528
 9529TIP3    H128472   7.123   4.006   3.491
 9529TIP3    H228473   7.238   3.910   3.518
 9530TIP3   OH228474   7.465   4.004   3.224
 9530TIP3    H128475   7.560   4.014   3.215
 9530TIP3    H228476   7.430   4.021   3.136
 9531TIP3   OH228477   7.354   4.028   2.974
 9531TIP3    H128478   7.291   3.978   2.922
 9531TIP3    H228479   7.409   4.072   2.908
 9532TIP3   OH228480   8.467   5.709   3.955
 9532TIP3    H128481   8.465   5.720   3.860
 9532TIP3    H228482   8.548   5.753   3.982
 9533TIP3   OH228483   7.427   4.762   4.387
 9533TIP3    H128484   7.492   4.805   4.443
 9533TIP3    H228485   7.345   4.769   4.437
 9534TIP3   OH228486   7.857   4.273   3.635
 9534TIP3    H128487   7.873   4.191   3.589
 9534TIP3    H228488   7.858   4.249   3.728
 9535TIP3   OH228489   7.350   3.750   3.523
 9535TIP3    H128490   7.322   3.675   3.576
 9535TIP3    H228491   7.375   3.712   3.439
 9536TIP3   OH228492   7.840   4.204   3.906
 9536TIP3    H128493   7.751   4.235   3.925
 9536TIP3    H228494   7.896   4.259   3.960
 9537TIP3   OH228495   7.572   4.536   3.008
 9537TIP3    H128496   7.498   4.480   2.984
 9537TIP3    H228497   7.543   4.581   3.087
 9538TIP3   OH228498   8.451   4.802   3.606
 9538TIP3    H128499   8.485   4.851   3.531
 9538TIP3    H228500   8.372   4.759   3.573
 9539TIP3   OH228501   8.033   3.860   2.908
 9539TIP3    H128502   7.940   3.838   2.906
 9539TIP3    H228503   8.035   3.955   2.920
 9540TIP3   OH228504   7.977   4.875   4.039
 9540TIP3    H128505   8.026   4.868   4.121
 9540TIP3    H228506   7.940   4.964   4.041
 9541TIP3   OH228507   8.096   4.125   2.983
 9541TIP3    H128508   8.191   4.130   2.988
 9541TIP3    H228509   8.070   4.201   2.931
 9542TIP3   OH228510   7.258   4.548   3.655
 9542TIP3    H128511   7.298   4.531   3.569
 9542TIP3    H228512   7.324   4.519   3.718
 9543TIP3   OH228513   7.724   4.697   2.849
 9543TIP3    H128514   7.674   4.779   2.846
 9543TIP3    H228515   7.671   4.639   2.904
 9544TIP3   OH228516   7.163   4.498   4.300
 9544TIP3    H128517   7.199   4.492   4.389
 9544TIP3    H228518   7.088   4.438   4.300
 9545TIP3   OH228519   7.876   4.634   4.314
 9545TIP3    H128520   7.811   4.571   4.282
 9545TIP3    H228521   7.960   4.597   4.286
 9546TIP3   OH228522   8.131   5.173   3.913
 9546TIP3    H128523   8.037   5.153   3.923
 9546TIP3    H228524   8.156   5.208   3.998
 9547TIP3   OH228525   8.497   4.213   2.797
 9547TIP3    H128526   8.440   4.167   2.735
 9547TIP3    H228527   8.504   4.301   2.762
 9548TIP3   OH228528   8.746   5.072   3.886
 9548TIP3    H128529   8.652   5.061   3.875
 9548TIP3    H228530   8.784   5.051   3.800
 9549TIP3   OH228531   8.250   5.028   2.741
 9549TIP3    H128532   8.222   4.957   2.800
 9549TIP3    H228533   8.257   4.986   2.656
 9550TIP3   OH228534   8.228   4.660   3.508
 9550TIP3    H128535   8.139   4.642   3.538
 9550TIP3    H228536   8.258   4.577   3.471
 9551TIP3   OH228537   7.398   4.906   3.331
 9551TIP3    H128538   7.389   4.979   3.270
 9551TIP3    H228539   7.314   4.903   3.378
 9552TIP3   OH228540   6.947   4.181   3.040
 9552TIP3    H128541   6.992   4.262   3.065
 9552TIP3    H228542   6.866   4.182   3.091
 9553TIP3   OH228543   7.461   4.659   3.222
 9553TIP3    H128544   7.453   4.748   3.257
 9553TIP3    H228545   7.440   4.602   3.296
 9554TIP3   OH228546   7.302   5.122   3.172
 9554TIP3    H128547   7.216   5.128   3.213
 9554TIP3    H228548   7.338   5.211   3.178
 9555TIP3   OH228549   8.018   4.884   3.766
 9555TIP3    H128550   8.001   4.881   3.860
 9555TIP3    H228551   8.105   4.846   3.756
 9556TIP3   OH228552   8.009   4.764   2.623
 9556TIP3    H128553   8.062   4.736   2.697
 9556TIP3    H228554   7.925   4.719   2.634
 9557TIP3   OH228555   8.266   5.390   3.798
 9557TIP3    H128556   8.203   5.321   3.817
 9557TIP3    H228557   8.231   5.435   3.721
 9558TIP3   OH228558   8.334   5.232   2.429
 9558TIP3    H128559   8.370   5.293   2.366
 9558TIP3    H228560   8.261   5.279   2.471
 9559TIP3   OH228561   7.352   4.004   4.285
 9559TIP3    H128562   7.257   4.018   4.288
 9559TIP3    H228563   7.369   3.943   4.357
 9560TIP3   OH228564   8.186   4.676   2.811
 9560TIP3    H128565   8.173   4.622   2.890
 9560TIP3    H228566   8.280   4.685   2.804
 9561TIP3   OH228567   7.357   4.728   2.636
 9561TIP3    H128568   7.374   4.637   2.611
 9561TIP3    H228569   7.348   4.725   2.731
 9562TIP3   OH228570   7.302   4.744   2.911
 9562TIP3    H128571   7.363   4.715   2.978
 9562TIP3    H228572   7.305   4.840   2.916
 9563TIP3   OH228573   7.047   4.431   3.118
 9563TIP3    H128574   6.988   4.481   3.174
 9563TIP3    H228575   7.067   4.491   3.046
 9564TIP3   OH228576   8.241   4.034   3.905
 9564TIP3    H128577   8.289   4.102   3.951
 9564TIP3    H228578   8.217   3.971   3.973
 9565TIP3   OH228579   8.089   3.812   3.175
 9565TIP3    H128580   8.066   3.826   3.083
 9565TIP3    H228581   8.125   3.895   3.204
 9566TIP3   OH228582   7.572   4.921   2.839
 9566TIP3    H128583   7.490   4.949   2.880
 9566TIP3    H228584   7.603   4.999   2.791
 9567TIP3   OH228585   7.745   4.015   3.276
 9567TIP3    H128586   7.808   4.080   3.246
 9567TIP3    H228587   7.761   4.007   3.370
 9568TIP3   OH228588   8.046   4.320   4.064
 9568TIP3    H128589   8.059   4.386   4.132
 9568TIP3    H228590   8.086   4.240   4.100
 9569TIP3   OH228591   7.921   3.690   3.357
 9569TIP3    H128592   7.949   3.730   3.440
 9569TIP3    H228593   7.977   3.730   3.291
 9570TIP3   OH228594   7.325   5.017   2.920
 9570TIP3    H128595   7.308   5.090   2.860
 9570TIP3    H228596   7.317   5.055   3.007
 9571TIP3   OH228597   7.427   3.729   3.164
 9571TIP3    H128598   7.414   3.819   3.194
 9571TIP3    H228599   7.521   3.714   3.174
 9572TIP3   OH228600   8.646   4.232   4.059
 9572TIP3    H128601   8.552   4.219   4.048
 9572TIP3    H228602   8.680   4.235   3.969
 9573TIP3   OH228603   8.308   4.393   3.432
 9573TIP3    H128604   8.229   4.340   3.439
 9573TIP3    H228605   8.369   4.355   3.496
 9574TIP3   OH228606   7.061   4.610   2.888
 9574TIP3    H128607   7.132   4.673   2.903
 9574TIP3    H228608   7.101   4.542   2.834
 9575TIP3   OH228609   6.969   3.902   3.033
 9575TIP3    H128610   6.983   3.997   3.042
 9575TIP3    H228611   6.898   3.894   2.970
 9576TIP3   OH228612   8.303   5.381   3.366
 9576TIP3    H128613   8.264   5.432   3.295
 9576TIP3    H228614   8.397   5.391   3.355
 9577TIP3   OH228615   7.370   3.624   3.904
 9577TIP3    H128616   7.338   3.587   3.822
 9577TIP3    H228617   7.365   3.552   3.966
 9578TIP3   OH228618   6.891   4.888   3.284
 9578TIP3    H128619   6.852   4.922   3.365
 9578TIP3    H228620   6.843   4.933   3.215
 9579TIP3   OH228621   7.566   5.331   4.378
 9579TIP3    H128622   7.651   5.287   4.385
 9579TIP3    H228623   7.538   5.314   4.288
 9580TIP3   OH228624   7.516   4.929   2.525
 9580TIP3    H128625   7.470   4.858   2.572
 9580TIP3    H228626   7.592   4.886   2.486
 9581TIP3   OH228627   8.195   5.267   4.162
 9581TIP3    H128628   8.207   5.197   4.226
 9581TIP3    H228629   8.266   5.329   4.179
 9582TIP3   OH228630   7.961   4.971   2.449
 9582TIP3    H128631   7.994   4.906   2.512
 9582TIP3    H228632   8.022   4.966   2.376
 9583TIP3   OH228633   7.195   4.417   2.751
 9583TIP3    H128634   7.246   4.391   2.828
 9583TIP3    H228635   7.260   4.430   2.682
 9584TIP3   OH228636   7.779   4.910   4.337
 9584TIP3    H128637   7.738   4.941   4.256
 9584TIP3    H228638   7.816   4.825   4.315
 9585TIP3   OH228639   7.752   4.642   2.582
 9585TIP3    H128640   7.733   4.650   2.675
 9585TIP3    H228641   7.737   4.549   2.562
 9586TIP3   OH228642   8.287   4.940   3.939
 9586TIP3    H128643   8.365   4.969   3.890
 9586TIP3    H228644   8.226   5.013   3.930
 9587TIP3   OH228645   7.344   4.505   4.536
 9587TIP3    H128646   7.424   4.523   4.487
 9587TIP3    H228647   7.351   4.558   4.615
 9588TIP3   OH228648   7.363   4.359   2.962
 9588TIP3    H128649   7.344   4.329   3.051
 9588TIP3    H228650   7.412   4.287   2.923
 9589TIP3   OH228651   7.691   4.448   4.200
 9589TIP3    H128652   7.601   4.481   4.205
 9589TIP3    H228653   7.724   4.480   4.116
 9590TIP3   OH228654   7.505   4.181   2.802
 9590TIP3    H128655   7.476   4.183   2.711
 9590TIP3    H228656   7.601   4.190   2.796
 9591TIP3   OH228657   8.171   4.823   4.295
 9591TIP3    H128658   8.241   4.786   4.241
 9591TIP3    H228659   8.168   4.766   4.372
 9592TIP3   OH228660   8.293   4.467   2.483
 9592TIP3    H128661   8.280   4.427   2.397
 9592TIP3    H228662   8.268   4.559   2.471
 9593TIP3   OH228663   7.775   4.219   4.325
 9593TIP3    H128664   7.779   4.146   4.263
 9593TIP3    H228665   7.746   4.294   4.274
 9594TIP3   OH228666   7.789   4.021   4.123
 9594TIP3    H128667   7.814   4.062   4.040
 9594TIP3    H228668   7.700   3.991   4.109
 9595TIP3   OH228669   7.797   4.564   3.978
 9595TIP3    H128670   7.877   4.617   3.978
 9595TIP3    H228671   7.730   4.620   3.939
 9596TIP3   OH228672   8.385   4.492   4.374
 9596TIP3    H128673   8.420   4.404   4.386
 9596TIP3    H228674   8.461   4.547   4.358
 9597TIP3   OH228675   8.416   4.770   4.108
 9597TIP3    H128676   8.361   4.830   4.057
 9597TIP3    H228677   8.505   4.788   4.077
 9598TIP3   OH228678   7.667   4.291   4.572
 9598TIP3    H128679   7.599   4.227   4.591
 9598TIP3    H228680   7.695   4.270   4.483
 9599TIP3   OH228681   7.921   3.792   4.219
 9599TIP3    H128682   7.877   3.872   4.191
 9599TIP3    H228683   7.855   3.723   4.210
 9600TIP3   OH228684   8.032   4.268   4.421
 9600TIP3    H128685   8.035   4.241   4.512
 9600TIP3    H228686   7.944   4.244   4.391
 9601TIP3   OH228687   8.267   4.207   4.279
 9601TIP3    H128688   8.190   4.211   4.336
 9601TIP3    H228689   8.340   4.186   4.338
 9602TIP3   OH228690   8.497   4.187   4.442
 9602TIP3    H128691   8.509   4.093   4.449
 9602TIP3    H228692   8.498   4.218   4.533
 9603TIP3   OH228693   7.502   4.067   4.635
 9603TIP3    H128694   7.508   3.980   4.596
 9603TIP3    H228695   7.542   4.058   4.721
 9604TIP3   OH228696   7.984   3.760   4.491
 9604TIP3    H128697   8.055   3.696   4.481
 9604TIP3    H228698   7.953   3.775   4.402
 9605TIP3   OH228699   8.092   4.004   4.574
 9605TIP3    H128700   8.064   3.916   4.549
 9605TIP3    H228701   8.013   4.047   4.606
 9606TIP3   OH228702   7.323   5.222   2.734
 9606TIP3    H128703   7.414   5.203   2.712
 9606TIP3    H228704   7.290   5.271   2.658
 9607TIP3   OH228705   6.796   4.591   2.947
 9607TIP3    H128706   6.889   4.604   2.928
 9607TIP3    H228707   6.774   4.508   2.905
 9608TIP3   OH228708   6.684   5.182   3.372
 9608TIP3    H128709   6.632   5.120   3.322
 9608TIP3    H228710   6.733   5.128   3.435
 9609TIP3   OH228711   6.842   5.031   3.542
 9609TIP3    H128712   6.832   4.964   3.610
 9609TIP3    H228713   6.895   5.099   3.584
 9610TIP3   OH228714   8.573   5.427   3.363
 9610TIP3    H128715   8.601   5.452   3.451
 9610TIP3    H228716   8.631   5.476   3.305
 9611TIP3   OH228717   8.608   5.456   3.646
 9611TIP3    H128718   8.554   5.377   3.638
 9611TIP3    H228719   8.671   5.436   3.714
 9612TIP3   OH228720   8.639   5.156   4.200
 9612TIP3    H128721   8.568   5.162   4.263
 9612TIP3    H228722   8.676   5.244   4.197
 9613TIP3   OH228723   8.463   4.680   2.813
 9613TIP3    H128724   8.522   4.750   2.786
 9613TIP3    H228725   8.506   4.640   2.888
 9614TIP3   OH228726   8.581   4.534   3.015
 9614TIP3    H128727   8.516   4.498   3.076
 9614TIP3    H228728   8.646   4.576   3.072
 9615TIP3   OH228729   8.635   4.936   3.442
 9615TIP3    H128730   8.681   4.865   3.399
 9615TIP3    H228731   8.642   5.010   3.381
 9616TIP3   OH228732   8.445   5.233   3.640
 9616TIP3    H128733   8.376   5.275   3.692
 9616TIP3    H228734   8.398   5.192   3.568
 9617TIP3   OH228735   8.498   4.452   2.664
 9617TIP3    H128736   8.428   4.451   2.598
 9617TIP3    H228737   8.483   4.532   2.714
 9618TIP3   OH228738   8.346   4.102   2.601
 9618TIP3    H128739   8.306   4.137   2.522
 9618TIP3    H228740   8.339   4.007   2.591
 9619TIP3   OH228741   8.390   4.396   3.164
 9619TIP3    H128742   8.395   4.302   3.147
 9619TIP3    H228743   8.366   4.403   3.256
 9620TIP3   OH228744   7.000   4.465   3.934
 9620TIP3    H128745   6.993   4.430   3.845
 9620TIP3    H228746   7.093   4.459   3.955
 9621TIP3   OH228747   8.674   4.820   4.017
 9621TIP3    H128748   8.737   4.750   3.999
 9621TIP3    H228749   8.703   4.893   3.962
 9622TIP3   OH228750   8.835   4.595   4.010
 9622TIP3    H128751   8.762   4.566   4.064
 9622TIP3    H228752   8.905   4.532   4.028
 9623TIP3   OH228753   8.315   3.832   2.574
 9623TIP3    H128754   8.382   3.802   2.636
 9623TIP3    H228755   8.235   3.788   2.603
 9624TIP3   OH228756   8.386   4.121   3.041
 9624TIP3    H128757   8.433   4.039   3.052
 9624TIP3    H228758   8.424   4.160   2.962
 9625TIP3   OH228759   8.529   4.276   3.578
 9625TIP3    H128760   8.592   4.319   3.520
 9625TIP3    H228761   8.528   4.330   3.657
 9626TIP3   OH228762   8.591   4.440   3.793
 9626TIP3    H128763   8.525   4.472   3.855
 9626TIP3    H228764   8.621   4.519   3.747
 9627TIP3   OH228765   7.235   4.126   4.567
 9627TIP3    H128766   7.329   4.123   4.588
 9627TIP3    H228767   7.200   4.044   4.601
 9628TIP3   OH228768   9.003   4.026   4.342
 9628TIP3    H128769   9.097   4.025   4.329
 9628TIP3    H228770   8.969   4.072   4.265
 9629TIP3   OH228771   8.495   3.868   3.100
 9629TIP3    H128772   8.546   3.842   3.177
 9629TIP3    H228773   8.433   3.796   3.087
 9630TIP3   OH228774   7.210   3.851   3.914
 9630TIP3    H128775   7.262   3.771   3.923
 9630TIP3    H228776   7.275   3.921   3.900
 9631TIP3   OH228777   6.991   4.118   3.977
 9631TIP3    H128778   7.043   4.110   3.897
 9631TIP3    H228779   7.026   4.194   4.022
 9632TIP3   OH228780   8.895   4.131   4.117
 9632TIP3    H128781   8.806   4.165   4.129
 9632TIP3    H228782   8.883   4.047   4.073
 9633TIP3   OH228783   8.544   3.783   2.730
 9633TIP3    H128784   8.590   3.723   2.671
 9633TIP3    H228785   8.597   3.863   2.729
 9634TIP3   OH228786   6.978   3.615   3.478
 9634TIP3    H128787   6.895   3.607   3.526
 9634TIP3    H228788   6.958   3.673   3.405
 9635TIP3   OH228789   8.131   5.346   2.997
 9635TIP3    H128790   8.188   5.335   2.921
 9635TIP3    H228791   8.174   5.412   3.050
 9636TIP3   OH228792   7.210   3.702   4.318
 9636TIP3    H128793   7.153   3.674   4.390
 9636TIP3    H228794   7.151   3.741   4.254
 9637TIP3   OH228795   7.888   5.412   4.051
 9637TIP3    H128796   7.915   5.407   4.143
 9637TIP3    H228797   7.955   5.466   4.010
 9638TIP3   OH228798   8.068   5.579   3.924
 9638TIP3    H128799   8.138   5.524   3.888
 9638TIP3    H228800   8.113   5.639   3.982
 9639TIP3   OH228801   8.845   3.883   3.999
 9639TIP3    H128802   8.760   3.865   4.039
 9639TIP3    H228803   8.890   3.798   3.998
 9640TIP3   OH228804   7.770   5.486   3.579
 9640TIP3    H128805   7.679   5.468   3.557
 9640TIP3    H228806   7.766   5.540   3.658
 9641TIP3   OH228807   8.016   5.373   3.633
 9641TIP3    H128808   7.925   5.402   3.621
 9641TIP3    H228809   8.068   5.445   3.599
 9642TIP3   OH228810   8.227   5.555   3.567
 9642TIP3    H128811   8.221   5.640   3.523
 9642TIP3    H228812   8.254   5.494   3.497
 9643TIP3   OH228813   7.025   5.221   3.692
 9643TIP3    H128814   7.071   5.244   3.773
 9643TIP3    H228815   7.090   5.173   3.640
 9644TIP3   OH228816   7.215   5.086   3.550
 9644TIP3    H128817   7.228   4.999   3.589
 9644TIP3    H228818   7.300   5.130   3.561
 9645TIP3   OH228819   7.469   5.192   3.613
 9645TIP3    H128820   7.510   5.105   3.611
 9645TIP3    H228821   7.488   5.226   3.700
 9646TIP3   OH228822   7.988   3.776   3.612
 9646TIP3    H128823   7.958   3.725   3.688
 9646TIP3    H228824   8.083   3.777   3.620
 9647TIP3   OH228825   8.505   3.918   3.532
 9647TIP3    H128826   8.560   3.868   3.472
 9647TIP3    H228827   8.428   3.862   3.547
 9648TIP3   OH228828   8.652   3.799   3.328
 9648TIP3    H128829   8.717   3.738   3.293
 9648TIP3    H228830   8.686   3.886   3.305
 9649TIP3   OH228831   7.278   3.520   3.663
 9649TIP3    H128832   7.190   3.486   3.676
 9649TIP3    H228833   7.333   3.442   3.656
 9650TIP3   OH228834   7.084   3.419   3.303
 9650TIP3    H128835   7.120   3.471   3.231
 9650TIP3    H228836   7.055   3.484   3.368
 9651TIP3   OH228837   7.750   3.562   3.550
 9651TIP3    H128838   7.800   3.609   3.484
 9651TIP3    H228839   7.788   3.590   3.634
 9652TIP3   OH228840   8.301   3.731   3.532
 9652TIP3    H128841   8.302   3.683   3.449
 9652TIP3    H228842   8.293   3.663   3.599
 9653TIP3   OH228843   8.311   3.662   3.101
 9653TIP3    H128844   8.228   3.704   3.121
 9653TIP3    H228845   8.302   3.573   3.136
 9654TIP3   OH228846   6.744   5.016   3.081
 9654TIP3    H128847   6.662   5.013   3.131
 9654TIP3    H228848   6.736   5.095   3.027
 9655TIP3   OH228849   7.214   3.559   3.077
 9655TIP3    H128850   7.260   3.498   3.020
 9655TIP3    H228851   7.283   3.615   3.113
 9656TIP3   OH228852   7.704   3.760   3.183
 9656TIP3    H128853   7.762   3.708   3.238
 9656TIP3    H228854   7.717   3.850   3.213
 9657TIP3   OH228855   7.581   5.151   2.670
 9657TIP3    H128856   7.664   5.178   2.632
 9657TIP3    H228857   7.551   5.079   2.615
 9658TIP3   OH228858   8.283   5.297   2.770
 9658TIP3    H128859   8.276   5.201   2.764
 9658TIP3    H228860   8.242   5.328   2.689
 9659TIP3   OH228861   7.527   3.792   4.568
 9659TIP3    H128862   7.486   3.725   4.622
 9659TIP3    H228863   7.618   3.795   4.598
 9660TIP3   OH228864   7.770   3.782   4.703
 9660TIP3    H128865   7.847   3.763   4.649
 9660TIP3    H228866   7.765   3.708   4.764
 9661TIP3   OH228867   6.831   4.926   2.747
 9661TIP3    H128868   6.843   4.987   2.820
 9661TIP3    H228869   6.920   4.912   2.712
 9662TIP3   OH228870   8.555   3.918   4.461
 9662TIP3    H128871   8.578   3.884   4.547
 9662TIP3    H228872   8.633   3.901   4.407
 9663TIP3   OH228873   8.492   5.434   3.960
 9663TIP3    H128874   8.415   5.406   3.910
 9663TIP3    H228875   8.482   5.529   3.968
 9664TIP3   OH228876   9.032   4.691   3.534
 9664TIP3    H128877   9.061   4.623   3.595
 9664TIP3    H228878   9.062   4.773   3.574
 9665TIP3   OH228879   9.009   5.120   3.192
 9665TIP3    H128880   8.979   5.036   3.227
 9665TIP3    H228881   9.100   5.104   3.166
 9666TIP3   OH228882   8.720   4.300   2.943
 9666TIP3    H128883   8.686   4.387   2.965
 9666TIP3    H228884   8.650   4.259   2.892
 9667TIP3   OH228885   8.812   4.625   3.136
 9667TIP3    H128886   8.856   4.543   3.158
 9667TIP3    H228887   8.869   4.666   3.071
 9668TIP3   OH228888   9.661   5.343   2.805
 9668TIP3    H128889   9.721   5.418   2.799
 9668TIP3    H228890   9.616   5.355   2.888
 9669TIP3   OH228891   9.531   5.076   3.191
 9669TIP3    H128892   9.577   5.075   3.107
 9669TIP3    H228893   9.596   5.110   3.254
 9670TIP3   OH228894   9.340   4.226   3.211
 9670TIP3    H128895   9.343   4.227   3.116
 9670TIP3    H228896   9.375   4.140   3.236
 9671TIP3   OH228897   8.914   4.386   3.231
 9671TIP3    H128898   8.982   4.355   3.291
 9671TIP3    H228899   8.916   4.324   3.158
 9672TIP3   OH228900   9.455   4.616   3.052
 9672TIP3    H128901   9.538   4.578   3.080
 9672TIP3    H228902   9.391   4.546   3.066
 9673TIP3   OH228903   9.284   4.131   3.630
 9673TIP3    H128904   9.240   4.083   3.560
 9673TIP3    H228905   9.212   4.166   3.683
 9674TIP3   OH228906   9.393   4.939   3.380
 9674TIP3    H128907   9.335   5.006   3.416
 9674TIP3    H228908   9.453   4.988   3.324
 9675TIP3   OH228909   9.118   4.284   3.384
 9675TIP3    H128910   9.153   4.369   3.410
 9675TIP3    H228911   9.190   4.240   3.339
 9676TIP3   OH228912   9.226   5.145   3.456
 9676TIP3    H128913   9.221   5.233   3.418
 9676TIP3    H228914   9.142   5.133   3.500
 9677TIP3   OH228915   8.632   4.872   2.703
 9677TIP3    H128916   8.586   4.884   2.619
 9677TIP3    H228917   8.651   4.961   2.732
 9678TIP3   OH228918   8.982   4.776   2.971
 9678TIP3    H128919   8.951   4.836   2.904
 9678TIP3    H228920   9.069   4.749   2.940
 9679TIP3   OH228921   9.338   5.266   3.024
 9679TIP3    H128922   9.307   5.181   3.052
 9679TIP3    H228923   9.429   5.270   3.055
 9680TIP3   OH228924   9.277   4.765   3.205
 9680TIP3    H128925   9.333   4.705   3.156
 9680TIP3    H228926   9.335   4.804   3.270
 9681TIP3   OH228927   9.388   5.253   3.655
 9681TIP3    H128928   9.328   5.321   3.684
 9681TIP3    H228929   9.335   5.198   3.598
 9682TIP3   OH228930   9.125   4.888   3.709
 9682TIP3    H128931   9.136   4.974   3.750
 9682TIP3    H228932   9.054   4.847   3.759
 9683TIP3   OH228933   9.584   5.292   2.548
 9683TIP3    H128934   9.607   5.289   2.641
 9683TIP3    H228935   9.621   5.375   2.517
 9684TIP3   OH228936   9.197   5.444   3.686
 9684TIP3    H128937   9.164   5.429   3.598
 9684TIP3    H228938   9.122   5.428   3.743
 9685TIP3   OH228939   9.012   4.544   2.666
 9685TIP3    H128940   8.946   4.605   2.633
 9685TIP3    H228941   9.016   4.561   2.760
 9686TIP3   OH228942   8.825   4.986   3.639
 9686TIP3    H128943   8.755   4.967   3.576
 9686TIP3    H228944   8.850   4.901   3.673
 9687TIP3   OH228945   8.704   5.165   3.290
 9687TIP3    H128946   8.799   5.181   3.287
 9687TIP3    H228947   8.669   5.242   3.335
 9688TIP3   OH228948   9.573   5.349   3.484
 9688TIP3    H128949   9.604   5.428   3.528
 9688TIP3    H228950   9.508   5.311   3.543
 9689TIP3   OH228951   9.402   5.588   2.368
 9689TIP3    H128952   9.325   5.531   2.361
 9689TIP3    H228953   9.366   5.673   2.396
 9690TIP3   OH228954   8.852   5.363   2.809
 9690TIP3    H128955   8.894   5.357   2.895
 9690TIP3    H228956   8.798   5.284   2.803
 9691TIP3   OH228957   8.997   5.197   3.606
 9691TIP3    H128958   9.045   5.191   3.689
 9691TIP3    H228959   8.933   5.126   3.611
 9692TIP3   OH228960   9.480   3.983   3.419
 9692TIP3    H128961   9.495   3.929   3.341
 9692TIP3    H228962   9.386   3.997   3.420
 9693TIP3   OH228963   9.484   4.559   3.346
 9693TIP3    H128964   9.500   4.486   3.406
 9693TIP3    H228965   9.390   4.559   3.332
 9694TIP3   OH228966   9.315   4.257   2.941
 9694TIP3    H128967   9.230   4.254   2.897
 9694TIP3    H228968   9.363   4.327   2.896
 9695TIP3   OH228969   9.171   4.500   3.691
 9695TIP3    H128970   9.197   4.553   3.767
 9695TIP3    H228971   9.148   4.415   3.729
 9696TIP3   OH228972   9.256   4.028   2.330
 9696TIP3    H128973   9.181   4.002   2.384
 9696TIP3    H228974   9.221   4.035   2.241
 9697TIP3   OH228975   8.737   4.036   3.235
 9697TIP3    H128976   8.804   4.079   3.287
 9697TIP3    H228977   8.778   4.022   3.149
 9698TIP3   OH228978   8.691   4.020   2.741
 9698TIP3    H128979   8.739   4.056   2.665
 9698TIP3    H228980   8.625   4.086   2.760
 9699TIP3   OH228981   8.961   4.207   3.029
 9699TIP3    H128982   8.876   4.213   2.986
 9699TIP3    H228983   9.000   4.126   2.997
 9700TIP3   OH228984   9.174   4.266   2.702
 9700TIP3    H128985   9.246   4.327   2.692
 9700TIP3    H228986   9.129   4.266   2.618
 9701TIP3   OH228987   9.081   4.236   2.452
 9701TIP3    H128988   9.001   4.217   2.403
 9701TIP3    H228989   9.144   4.263   2.385
 9702TIP3   OH228990   9.137   5.131   3.837
 9702TIP3    H128991   9.225   5.140   3.875
 9702TIP3    H228992   9.079   5.130   3.913
 9703TIP3   OH228993   9.094   3.980   2.944
 9703TIP3    H128994   9.060   3.905   2.993
 9703TIP3    H228995   9.092   3.952   2.852
 9704TIP3   OH228996   9.374   4.837   2.490
 9704TIP3    H128997   9.432   4.761   2.484
 9704TIP3    H228998   9.349   4.842   2.582
 9705TIP3   OH228999   9.720   5.149   3.373
 9705TIP3    H129000   9.809   5.141   3.408
 9705TIP3    H229001   9.691   5.235   3.403
 9706TIP3   OH229002   9.015   4.844   3.237
 9706TIP3    H129003   8.987   4.823   3.148
 9706TIP3    H229004   9.102   4.805   3.245
 9707TIP3   OH229005   8.890   4.759   3.792
 9707TIP3    H129006   8.902   4.715   3.876
 9707TIP3    H229007   8.824   4.707   3.747
 9708TIP3   OH229008   9.701   4.799   3.767
 9708TIP3    H129009   9.605   4.797   3.762
 9708TIP3    H229010   9.728   4.710   3.744
 9709TIP3   OH229011   9.076   5.107   2.799
 9709TIP3    H129012   9.108   5.188   2.760
 9709TIP3    H229013   8.982   5.122   2.813
 9710TIP3   OH229014   8.735   4.445   2.522
 9710TIP3    H129015   8.772   4.533   2.534
 9710TIP3    H229016   8.654   4.446   2.574
 9711TIP3   OH229017   9.244   4.897   2.731
 9711TIP3    H129018   9.195   4.967   2.774
 9711TIP3    H229019   9.233   4.821   2.788
 9712TIP3   OH229020   9.432   5.486   3.282
 9712TIP3    H129021   9.470   5.569   3.252
 9712TIP3    H229022   9.497   5.450   3.342
 9713TIP3   OH229023   9.089   5.381   2.675
 9713TIP3    H129024   9.000   5.380   2.712
 9713TIP3    H229025   9.107   5.473   2.658
 9714TIP3   OH229026   9.108   4.254   3.799
 9714TIP3    H129027   9.014   4.234   3.801
 9714TIP3    H229028   9.141   4.219   3.881
 9715TIP3   OH229029   8.876   5.388   3.434
 9715TIP3    H129030   8.921   5.324   3.488
 9715TIP3    H229031   8.888   5.471   3.480
 9716TIP3   OH229032   9.062   4.943   2.072
 9716TIP3    H129033   9.067   4.848   2.082
 9716TIP3    H229034   9.027   4.974   2.156
 9717TIP3   OH229035   9.012   5.052   2.321
 9717TIP3    H129036   9.061   4.998   2.382
 9717TIP3    H229037   9.021   5.141   2.355
 9718TIP3   OH229038   8.817   4.710   2.577
 9718TIP3    H129039   8.752   4.759   2.628
 9718TIP3    H229040   8.846   4.773   2.510
 9719TIP3   OH229041   9.366   5.217   2.249
 9719TIP3    H129042   9.338   5.262   2.329
 9719TIP3    H229043   9.460   5.206   2.259
 9720TIP3   OH229044   9.044   5.315   2.394
 9720TIP3    H129045   9.063   5.397   2.349
 9720TIP3    H229046   9.073   5.329   2.484
 9721TIP3   OH229047   9.147   3.974   2.646
 9721TIP3    H129048   9.127   4.067   2.637
 9721TIP3    H229049   9.234   3.972   2.686
 9722TIP3   OH229050   8.790   4.895   2.336
 9722TIP3    H129051   8.858   4.962   2.334
 9722TIP3    H229052   8.828   4.821   2.289
 9723TIP3   OH229053   8.771   4.170   2.528
 9723TIP3    H129054   8.776   4.265   2.540
 9723TIP3    H229055   8.740   4.159   2.439
 9724TIP3   OH229056   9.001   3.841   3.376
 9724TIP3    H129057   9.002   3.813   3.284
 9724TIP3    H229058   9.021   3.761   3.426
 9725TIP3   OH229059   8.687   5.139   2.786
 9725TIP3    H129060   8.639   5.171   2.862
 9725TIP3    H229061   8.645   5.180   2.711
 9726TIP3   OH229062   8.894   5.674   3.854
 9726TIP3    H129063   8.964   5.687   3.917
 9726TIP3    H229064   8.895   5.580   3.836
 9727TIP3   OH229065   9.325   5.648   3.810
 9727TIP3    H129066   9.373   5.618   3.887
 9727TIP3    H229067   9.281   5.570   3.777
 9728TIP3   OH229068   9.354   5.256   1.956
 9728TIP3    H129069   9.275   5.243   2.007
 9728TIP3    H229070   9.415   5.190   1.989
 9729TIP3   OH229071   8.966   5.088   4.050
 9729TIP3    H129072   8.998   4.997   4.049
 9729TIP3    H229073   8.880   5.084   4.010
 9730TIP3   OH229074   8.909   4.683   2.215
 9730TIP3    H129075   8.936   4.626   2.288
 9730TIP3    H229076   8.981   4.677   2.152
 9731TIP3   OH229077   9.604   5.163   3.816
 9731TIP3    H129078   9.591   5.258   3.812
 9731TIP3    H229079   9.578   5.131   3.729
 9732TIP3   OH229080   9.080   4.837   4.029
 9732TIP3    H129081   9.134   4.770   3.987
 9732TIP3    H229082   9.122   4.851   4.114
 9733TIP3   OH229083   9.043   4.534   2.394
 9733TIP3    H129084   9.039   4.510   2.487
 9733TIP3    H229085   9.106   4.472   2.356
 9734TIP3   OH229086   9.520   4.590   3.680
 9734TIP3    H129087   9.453   4.646   3.643
 9734TIP3    H229088   9.575   4.565   3.606
 9735TIP3   OH229089   9.252   4.382   2.283
 9735TIP3    H129090   9.239   4.392   2.188
 9735TIP3    H229091   9.346   4.366   2.292
 9736TIP3   OH229092   9.444   4.370   3.823
 9736TIP3    H129093   9.473   4.300   3.765
 9736TIP3    H229094   9.439   4.448   3.768
 9737TIP3   OH229095   9.596   4.188   3.662
 9737TIP3    H129096   9.686   4.212   3.641
 9737TIP3    H229097   9.552   4.182   3.577
 9738TIP3   OH229098   9.630   4.776   3.438
 9738TIP3    H129099   9.601   4.693   3.399
 9738TIP3    H229100   9.555   4.835   3.426
 9739TIP3   OH229101   9.452   4.505   4.058
 9739TIP3    H129102   9.385   4.460   4.109
 9739TIP3    H229103   9.453   4.460   3.974
 9740TIP3   OH229104   9.250   4.362   4.172
 9740TIP3    H129105   9.251   4.281   4.122
 9740TIP3    H229106   9.283   4.337   4.258
 9741TIP3   OH229107   9.124   5.526   2.231
 9741TIP3    H129108   9.209   5.524   2.187
 9741TIP3    H229109   9.069   5.577   2.171
 9742TIP3   OH229110   8.545   4.841   2.433
 9742TIP3    H129111   8.631   4.870   2.402
 9742TIP3    H229112   8.533   4.756   2.392
 9743TIP3   OH229113   8.485   5.449   2.871
 9743TIP3    H129114   8.421   5.395   2.824
 9743TIP3    H229115   8.530   5.387   2.929
 9744TIP3   OH229116   8.630   5.281   3.037
 9744TIP3    H129117   8.625   5.211   3.102
 9744TIP3    H229118   8.676   5.352   3.081
 9745TIP3   OH229119   8.788   4.705   3.399
 9745TIP3    H129120   8.791   4.687   3.305
 9745TIP3    H229121   8.880   4.719   3.423
 9746TIP3   OH229122   8.994   4.379   4.057
 9746TIP3    H129123   9.084   4.386   4.089
 9746TIP3    H229124   8.964   4.294   4.089
 9747TIP3   OH229125   8.919   4.098   3.437
 9747TIP3    H129126   8.954   4.010   3.420
 9747TIP3    H229127   8.994   4.156   3.424
 9748TIP3   OH229128   8.729   4.398   3.443
 9748TIP3    H129129   8.781   4.383   3.364
 9748TIP3    H229130   8.755   4.486   3.472
 9749TIP3   OH229131   8.755   3.897   2.974
 9749TIP3    H129132   8.667   3.879   3.007
 9749TIP3    H229133   8.741   3.946   2.893
 9750TIP3   OH229134   8.980   3.976   3.773
 9750TIP3    H129135   8.956   3.957   3.863
 9750TIP3    H229136   8.906   3.944   3.721
 9751TIP3   OH229137   9.014   5.421   3.885
 9751TIP3    H129138   8.929   5.383   3.907
 9751TIP3    H229139   9.065   5.413   3.966
 9752TIP3   OH229140   9.198   5.415   3.400
 9752TIP3    H129141   9.146   5.489   3.368
 9752TIP3    H229142   9.286   5.432   3.366
 9753TIP3   OH229143   9.634   5.579   3.619
 9753TIP3    H129144   9.699   5.631   3.666
 9753TIP3    H229145   9.601   5.637   3.551
 9754TIP3   OH229146   8.890   5.687   3.469
 9754TIP3    H129147   8.799   5.704   3.447
 9754TIP3    H229148   8.913   5.754   3.533
 9755TIP3   OH229149   9.106   5.660   3.303
 9755TIP3    H129150   9.027   5.669   3.357
 9755TIP3    H229151   9.081   5.694   3.217
 9756TIP3   OH229152   9.504   5.705   3.131
 9756TIP3    H129153   9.517   5.674   3.042
 9756TIP3    H229154   9.450   5.783   3.122
 9757TIP3   OH229155   0.100   5.666   3.174
 9757TIP3    H129156   0.087   5.585   3.125
 9757TIP3    H229157   0.103   5.735   3.107
 9758TIP3   OH229158   8.793   5.469   3.185
 9758TIP3    H129159   8.821   5.447   3.274
 9758TIP3    H229160   8.863   5.436   3.128
 9759TIP3   OH229161   8.991   5.353   3.044
 9759TIP3    H129162   9.003   5.272   3.095
 9759TIP3    H229163   9.074   5.399   3.053
 9760TIP3   OH229164   9.229   5.504   3.069
 9760TIP3    H129165   9.272   5.423   3.043
 9760TIP3    H229166   9.270   5.527   3.152
 9761TIP3   OH229167   9.026   3.771   3.105
 9761TIP3    H129168   8.941   3.727   3.112
 9761TIP3    H229169   9.090   3.701   3.120
 9762TIP3   OH229170   8.861   3.686   2.812
 9762TIP3    H129171   8.879   3.732   2.730
 9762TIP3    H229172   8.832   3.754   2.872
 9763TIP3   OH229173   8.574   5.259   2.570
 9763TIP3    H129174   8.492   5.223   2.534
 9763TIP3    H229175   8.576   5.349   2.537
 9764TIP3   OH229176   8.945   3.805   2.571
 9764TIP3    H129177   8.988   3.737   2.519
 9764TIP3    H229178   9.016   3.864   2.597
 9765TIP3   OH229179   9.358   5.493   2.100
 9765TIP3    H129180   9.433   5.505   2.157
 9765TIP3    H229181   9.365   5.403   2.068
 9766TIP3   OH229182   9.229   4.134   4.020
 9766TIP3    H129183   9.224   4.069   4.090
 9766TIP3    H229184   9.301   4.104   3.965
 9767TIP3   OH229185   9.496   4.148   4.215
 9767TIP3    H129186   9.582   4.136   4.172
 9767TIP3    H229187   9.482   4.067   4.263
 9768TIP3   OH229188   8.644   5.241   2.248
 9768TIP3    H129189   8.673   5.256   2.338
 9768TIP3    H229190   8.722   5.209   2.202
 9769TIP3   OH229191   0.499   5.358   4.946
 9769TIP3    H129192   0.492   5.446   4.985
 9769TIP3    H229193   0.436   5.358   4.874
 9770TIP3   OH229194   0.498   5.355   5.306
 9770TIP3    H129195   0.439   5.400   5.366
 9770TIP3    H229196   0.441   5.316   5.240
 9771TIP3   OH229197   0.709   5.650   4.988
 9771TIP3    H129198   0.709   5.584   5.057
 9771TIP3    H229199   0.737   5.731   5.031
 9772TIP3   OH229200   0.357   6.025   5.159
 9772TIP3    H129201   0.410   6.048   5.082
 9772TIP3    H229202   0.311   5.945   5.132
 9773TIP3   OH229203   0.223   5.455   5.344
 9773TIP3    H129204   0.244   5.398   5.270
 9773TIP3    H229205   0.128   5.466   5.341
 9774TIP3   OH229206   1.265   4.894   5.357
 9774TIP3    H129207   1.285   4.979   5.394
 9774TIP3    H229208   1.285   4.904   5.263
 9775TIP3   OH229209   0.633   5.057   5.376
 9775TIP3    H129210   0.676   4.974   5.399
 9775TIP3    H229211   0.621   5.053   5.281
 9776TIP3   OH229212   0.054   4.740   5.298
 9776TIP3    H129213  -0.011   4.792   5.345
 9776TIP3    H229214   0.004   4.667   5.261
 9777TIP3   OH229215   0.704   4.823   4.956
 9777TIP3    H129216   0.767   4.811   5.027
 9777TIP3    H229217   0.756   4.855   4.882
 9778TIP3   OH229218   9.822   5.252   5.210
 9778TIP3    H129219   9.819   5.158   5.195
 9778TIP3    H229220   9.733   5.275   5.239
 9779TIP3   OH229221   1.317   5.123   5.535
 9779TIP3    H129222   1.233   5.146   5.495
 9779TIP3    H229223   1.338   5.198   5.590
 9780TIP3   OH229224   0.377   5.552   4.765
 9780TIP3    H129225   0.330   5.524   4.687
 9780TIP3    H229226   0.326   5.624   4.800
 9781TIP3   OH229227   0.862   4.830   5.176
 9781TIP3    H129228   0.820   4.809   5.260
 9781TIP3    H229229   0.917   4.905   5.196
 9782TIP3   OH229230   0.769   5.890   5.124
 9782TIP3    H129231   0.693   5.886   5.182
 9782TIP3    H229232   0.765   5.977   5.084
 9783TIP3   OH229233   1.039   4.799   5.514
 9783TIP3    H129234   0.958   4.805   5.464
 9783TIP3    H229235   1.107   4.823   5.452
 9784TIP3   OH229236   0.375   4.407   5.512
 9784TIP3    H129237   0.343   4.319   5.535
 9784TIP3    H229238   0.298   4.463   5.517
 9785TIP3   OH229239   0.495   5.891   4.752
 9785TIP3    H129240   0.547   5.811   4.747
 9785TIP3    H229241   0.549   5.958   4.711
 9786TIP3   OH229242   0.630   5.660   4.726
 9786TIP3    H129243   0.554   5.603   4.730
 9786TIP3    H229244   0.673   5.651   4.811
 9787TIP3   OH229245   1.001   5.783   5.479
 9787TIP3    H129246   0.984   5.709   5.421
 9787TIP3    H229247   1.001   5.859   5.421
 9788TIP3   OH229248   0.331   5.249   4.751
 9788TIP3    H129249   0.246   5.207   4.753
 9788TIP3    H229250   0.358   5.246   4.659
 9789TIP3   OH229251   0.297   4.974   4.468
 9789TIP3    H129252   0.363   5.035   4.503
 9789TIP3    H229253   0.349   4.907   4.422
 9790TIP3   OH229254   1.159   5.429   5.343
 9790TIP3    H129255   1.078   5.481   5.347
 9790TIP3    H229256   1.199   5.455   5.260
 9791TIP3   OH229257   0.651   5.288   4.722
 9791TIP3    H129258   0.607   5.315   4.803
 9791TIP3    H229259   0.738   5.259   4.751
 9792TIP3   OH229260   0.909   5.288   5.687
 9792TIP3    H129261   0.913   5.371   5.735
 9792TIP3    H229262   0.824   5.290   5.643
 9793TIP3   OH229263   9.677   5.278   5.477
 9793TIP3    H129264   9.610   5.291   5.410
 9793TIP3    H229265   9.677   5.359   5.528
 9794TIP3   OH229266   0.561   5.876   5.298
 9794TIP3    H129267   0.477   5.911   5.267
 9794TIP3    H229268   0.537   5.804   5.357
 9795TIP3   OH229269   0.499   5.147   4.541
 9795TIP3    H129270   0.555   5.206   4.591
 9795TIP3    H229271   0.530   5.155   4.451
 9796TIP3   OH229272   0.261   5.817   4.898
 9796TIP3    H129273   0.345   5.846   4.863
 9796TIP3    H229274   0.207   5.799   4.821
 9797TIP3   OH229275   0.966   4.368   4.602
 9797TIP3    H129276   0.890   4.389   4.656
 9797TIP3    H229277   0.977   4.443   4.544
 9798TIP3   OH229278   0.794   5.739   4.161
 9798TIP3    H129279   0.792   5.831   4.134
 9798TIP3    H229280   0.883   5.710   4.142
 9799TIP3   OH229281   1.214   6.183   5.547
 9799TIP3    H129282   1.225   6.088   5.552
 9799TIP3    H229283   1.133   6.200   5.595
 9800TIP3   OH229284   0.126   6.042   4.644
 9800TIP3    H129285   0.114   6.035   4.549
 9800TIP3    H229286   0.038   6.059   4.677
 9801TIP3   OH229287   0.332   5.978   4.266
 9801TIP3    H129288   0.387   5.906   4.235
 9801TIP3    H229289   0.368   5.999   4.353
 9802TIP3   OH229290   0.386   6.080   4.527
 9802TIP3    H129291   0.316   6.087   4.592
 9802TIP3    H229292   0.466   6.091   4.579
 9803TIP3   OH229293   0.128   4.507   5.657
 9803TIP3    H129294   0.056   4.498   5.595
 9803TIP3    H229295   0.182   4.578   5.622
 9804TIP3   OH229296   0.648   4.614   5.847
 9804TIP3    H129297   0.721   4.585   5.902
 9804TIP3    H229298   0.570   4.583   5.893
 9805TIP3   OH229299   0.579   5.131   4.283
 9805TIP3    H129300   0.523   5.129   4.206
 9805TIP3    H229301   0.655   5.182   4.257
 9806TIP3   OH229302   0.274   4.524   4.548
 9806TIP3    H129303   0.255   4.533   4.642
 9806TIP3    H229304   0.241   4.438   4.525
 9807TIP3   OH229305   9.671   5.087   5.671
 9807TIP3    H129306   9.754   5.102   5.716
 9807TIP3    H229307   9.669   5.152   5.601
 9808TIP3   OH229308   9.604   5.053   5.123
 9808TIP3    H129309   9.564   5.134   5.155
 9808TIP3    H229310   9.598   5.060   5.027
 9809TIP3   OH229311   0.431   5.027   4.878
 9809TIP3    H129312   0.411   5.113   4.839
 9809TIP3    H229313   0.485   4.984   4.812
 9810TIP3   OH229314   0.659   5.223   5.923
 9810TIP3    H129315   0.622   5.195   6.006
 9810TIP3    H229316   0.672   5.317   5.933
 9811TIP3   OH229317   0.578   5.018   5.111
 9811TIP3    H129318   0.515   5.047   5.046
 9811TIP3    H229319   0.617   4.940   5.073
 9812TIP3   OH229320   9.757   4.481   4.603
 9812TIP3    H129321   9.829   4.535   4.637
 9812TIP3    H229322   9.710   4.540   4.544
 9813TIP3   OH229323   0.669   5.285   5.555
 9813TIP3    H129324   0.657   5.261   5.463
 9813TIP3    H229325   0.624   5.215   5.603
 9814TIP3   OH229326   0.289   4.721   5.151
 9814TIP3    H129327   0.199   4.716   5.184
 9814TIP3    H229328   0.330   4.789   5.204
 9815TIP3   OH229329   9.782   4.900   4.942
 9815TIP3    H129330   9.870   4.866   4.924
 9815TIP3    H229331   9.729   4.870   4.868
 9816TIP3   OH229332   0.738   4.795   5.425
 9816TIP3    H129333   0.731   4.807   5.520
 9816TIP3    H229334   0.669   4.732   5.403
 9817TIP3   OH229335   9.447   4.881   4.603
 9817TIP3    H129336   9.373   4.837   4.644
 9817TIP3    H229337   9.455   4.841   4.517
 9818TIP3   OH229338   0.927   6.497   5.632
 9818TIP3    H129339   0.924   6.515   5.538
 9818TIP3    H229340   1.003   6.546   5.663
 9819TIP3   OH229341   0.377   4.918   5.310
 9819TIP3    H129342   0.437   4.981   5.269
 9819TIP3    H229343   0.391   4.930   5.404
 9820TIP3   OH229344   9.683   4.515   5.231
 9820TIP3    H129345   9.609   4.455   5.221
 9820TIP3    H229346   9.683   4.566   5.150
 9821TIP3   OH229347   0.363   4.943   5.591
 9821TIP3    H129348   0.286   4.997   5.571
 9821TIP3    H229349   0.429   5.006   5.622
 9822TIP3   OH229350   0.042   5.377   4.759
 9822TIP3    H129351   0.063   5.285   4.770
 9822TIP3    H229352  -0.017   5.397   4.832
 9823TIP3   OH229353   0.938   5.587   5.299
 9823TIP3    H129354   0.973   5.640   5.228
 9823TIP3    H229355   0.860   5.545   5.261
 9824TIP3   OH229356   0.511   4.652   4.606
 9824TIP3    H129357   0.420   4.634   4.582
 9824TIP3    H229358   0.516   4.747   4.613
 9825TIP3   OH229359   0.506   5.679   5.741
 9825TIP3    H129360   0.569   5.619   5.781
 9825TIP3    H229361   0.430   5.677   5.799
 9826TIP3   OH229362   0.575   4.915   4.668
 9826TIP3    H129363   0.670   4.913   4.680
 9826TIP3    H229364   0.559   4.991   4.613
 9827TIP3   OH229365   0.206   5.474   4.560
 9827TIP3    H129366   0.154   5.553   4.546
 9827TIP3    H229367   0.152   5.420   4.618
 9828TIP3   OH229368   0.426   5.415   6.055
 9828TIP3    H129369   0.388   5.344   6.004
 9828TIP3    H229370   0.505   5.439   6.006
 9829TIP3   OH229371   0.603   5.908   5.617
 9829TIP3    H129372   0.555   5.837   5.659
 9829TIP3    H229373   0.621   5.970   5.688
 9830TIP3   OH229374   0.966   5.002   4.491
 9830TIP3    H129375   0.908   4.957   4.430
 9830TIP3    H229376   0.973   5.091   4.457
 9831TIP3   OH229377   1.240   5.912   5.572
 9831TIP3    H129378   1.156   5.882   5.606
 9831TIP3    H229379   1.254   5.861   5.493
 9832TIP3   OH229380   0.694   5.800   4.428
 9832TIP3    H129381   0.685   5.731   4.494
 9832TIP3    H229382   0.718   5.753   4.348
 9833TIP3   OH229383   0.725   5.451   5.187
 9833TIP3    H129384   0.647   5.420   5.233
 9833TIP3    H229385   0.758   5.373   5.143
 9834TIP3   OH229386   9.710   5.416   4.990
 9834TIP3    H129387   9.795   5.446   5.023
 9834TIP3    H229388   9.668   5.376   5.066
 9835TIP3   OH229389   0.517   5.631   5.458
 9835TIP3    H129390   0.513   5.650   5.552
 9835TIP3    H229391   0.600   5.585   5.446
 9836TIP3   OH229392   0.500   5.558   4.299
 9836TIP3    H129393   0.545   5.517   4.373
 9836TIP3    H229394   0.419   5.593   4.337
 9837TIP3   OH229395   0.770   6.153   5.445
 9837TIP3    H129396   0.692   6.100   5.428
 9837TIP3    H229397   0.767   6.220   5.376
 9838TIP3   OH229398   0.814   6.004   4.094
 9838TIP3    H129399   0.853   6.069   4.035
 9838TIP3    H229400   0.738   6.049   4.131
 9839TIP3   OH229401   0.656   5.447   4.494
 9839TIP3    H129402   0.643   5.406   4.579
 9839TIP3    H229403   0.750   5.462   4.488
 9840TIP3   OH229404   9.620   5.570   4.321
 9840TIP3    H129405   9.582   5.499   4.270
 9840TIP3    H229406   9.575   5.565   4.406
 9841TIP3   OH229407   0.726   4.828   5.698
 9841TIP3    H129408   0.812   4.831   5.740
 9841TIP3    H229409   0.679   4.758   5.743
 9842TIP3   OH229410   0.566   4.599   4.870
 9842TIP3    H129411   0.544   4.618   4.779
 9842TIP3    H229412   0.606   4.681   4.902
 9843TIP3   OH229413   9.793   5.651   4.554
 9843TIP3    H129414   9.700   5.639   4.571
 9843TIP3    H229415   9.797   5.713   4.481
 9844TIP3   OH229416   0.243   4.830   4.906
 9844TIP3    H129417   0.310   4.896   4.891
 9844TIP3    H229418   0.264   4.794   4.992
 9845TIP3   OH229419   0.586   5.070   5.709
 9845TIP3    H129420   0.629   5.112   5.784
 9845TIP3    H229421   0.630   4.986   5.700
 9846TIP3   OH229422   0.379   4.490   5.038
 9846TIP3    H129423   0.351   4.569   5.085
 9846TIP3    H229424   0.452   4.519   4.984
 9847TIP3   OH229425   9.782   4.393   4.891
 9847TIP3    H129426   9.748   4.441   4.815
 9847TIP3    H229427   9.844   4.330   4.854
 9848TIP3   OH229428   1.116   5.024   5.746
 9848TIP3    H129429   1.081   4.960   5.684
 9848TIP3    H229430   1.146   5.097   5.692
 9849TIP3   OH229431   0.798   5.193   5.102
 9849TIP3    H129432   0.717   5.143   5.110
 9849TIP3    H229433   0.860   5.148   5.159
 9850TIP3   OH229434   0.800   6.159   5.047
 9850TIP3    H129435   0.755   6.204   4.975
 9850TIP3    H229436   0.892   6.180   5.035
 9851TIP3   OH229437   9.805   5.766   4.297
 9851TIP3    H129438   9.736   5.701   4.304
 9851TIP3    H229439   9.812   5.786   4.204
 9852TIP3   OH229440   0.646   6.066   5.839
 9852TIP3    H129441   0.671   5.999   5.902
 9852TIP3    H229442   0.721   6.126   5.836
 9853TIP3   OH229443   0.477   5.783   4.138
 9853TIP3    H129444   0.510   5.713   4.194
 9853TIP3    H229445   0.524   5.770   4.055
 9854TIP3   OH229446   0.282   5.707   5.905
 9854TIP3    H129447   0.215   5.770   5.931
 9854TIP3    H229448   0.246   5.622   5.930
 9855TIP3   OH229449   0.208   5.409   4.263
 9855TIP3    H129450   0.222   5.451   4.348
 9855TIP3    H229451   0.247   5.322   4.273
 9856TIP3   OH229452   0.800   5.713   5.646
 9856TIP3    H129453   0.878   5.738   5.595
 9856TIP3    H229454   0.736   5.780   5.626
 9857TIP3   OH229455   9.645   5.049   4.718
 9857TIP3    H129456   9.569   4.992   4.702
 9857TIP3    H229457   9.705   5.029   4.646
 9858TIP3   OH229458   0.024   5.311   5.754
 9858TIP3    H129459   0.039   5.290   5.847
 9858TIP3    H229460   0.109   5.343   5.723
 9859TIP3   OH229461   0.026   4.977   4.529
 9859TIP3    H129462   0.007   4.993   4.437
 9859TIP3    H229463   0.122   4.976   4.534
 9860TIP3   OH229464   0.661   5.508   5.938
 9860TIP3    H129465   0.747   5.515   5.897
 9860TIP3    H229466   0.664   5.571   6.010
 9861TIP3   OH229467   0.780   5.267   4.153
 9861TIP3    H129468   0.764   5.223   4.070
 9861TIP3    H229469   0.751   5.357   4.139
 9862TIP3   OH229470   0.157   4.961   6.116
 9862TIP3    H129471   0.089   4.901   6.146
 9862TIP3    H229472   0.146   4.964   6.021
 9863TIP3   OH229473   0.309   4.732   5.764
 9863TIP3    H129474   0.332   4.783   5.686
 9863TIP3    H229475   0.213   4.737   5.769
 9864TIP3   OH229476   0.279   5.405   5.701
 9864TIP3    H129477   0.313   5.347   5.633
 9864TIP3    H229478   0.275   5.491   5.660
 9865TIP3   OH229479   0.913   5.538   5.821
 9865TIP3    H129480   0.880   5.600   5.755
 9865TIP3    H229481   1.007   5.553   5.823
 9866TIP3   OH229482   0.394   4.505   5.895
 9866TIP3    H129483   0.367   4.577   5.838
 9866TIP3    H229484   0.341   4.431   5.865
 9867TIP3   OH229485   0.528   5.094   6.128
 9867TIP3    H129486   0.581   5.042   6.189
 9867TIP3    H229487   0.498   5.030   6.063
 9868TIP3   OH229488   0.940   4.958   6.038
 9868TIP3    H129489   0.958   4.870   6.072
 9868TIP3    H229490   0.899   5.004   6.110
 9869TIP3   OH229491   0.474   4.500   6.164
 9869TIP3    H129492   0.546   4.437   6.150
 9869TIP3    H229493   0.436   4.511   6.077
 9870TIP3   OH229494   0.576   4.728   6.285
 9870TIP3    H129495   0.551   4.647   6.241
 9870TIP3    H229496   0.501   4.787   6.273
 9871TIP3   OH229497   1.046   6.264   5.027
 9871TIP3    H129498   1.084   6.273   5.115
 9871TIP3    H229499   1.121   6.275   4.968
 9872TIP3   OH229500   1.064   6.250   5.317
 9872TIP3    H129501   1.028   6.163   5.300
 9872TIP3    H229502   1.130   6.237   5.384
 9873TIP3   OH229503   1.074   5.977   5.833
 9873TIP3    H129504   1.035   5.953   5.917
 9873TIP3    H229505   1.135   6.047   5.855
 9874TIP3   OH229506   0.932   5.466   4.503
 9874TIP3    H129507   0.987   5.539   4.473
 9874TIP3    H229508   0.979   5.430   4.578
 9875TIP3   OH229509   1.067   5.327   4.701
 9875TIP3    H129510   1.004   5.285   4.759
 9875TIP3    H229511   1.133   5.364   4.760
 9876TIP3   OH229512   1.109   5.731   5.137
 9876TIP3    H129513   1.162   5.659   5.102
 9876TIP3    H229514   1.124   5.803   5.075
 9877TIP3   OH229515   0.952   5.995   5.309
 9877TIP3    H129516   0.882   6.032   5.362
 9877TIP3    H229517   0.907   5.950   5.237
 9878TIP3   OH229518   0.966   5.239   4.353
 9878TIP3    H129519   0.901   5.244   4.283
 9878TIP3    H229520   0.950   5.318   4.405
 9879TIP3   OH229521   0.813   4.891   4.298
 9879TIP3    H129522   0.772   4.930   4.220
 9879TIP3    H229523   0.809   4.797   4.283
 9880TIP3   OH229524   0.877   5.179   4.839
 9880TIP3    H129525   0.877   5.084   4.825
 9880TIP3    H229526   0.855   5.189   4.932
 9881TIP3   OH229527   1.303   5.351   5.697
 9881TIP3    H129528   1.273   5.428   5.745
 9881TIP3    H229529   1.378   5.319   5.748
 9882TIP3   OH229530   0.785   4.622   4.262
 9882TIP3    H129531   0.853   4.594   4.322
 9882TIP3    H229532   0.706   4.577   4.293
 9883TIP3   OH229533   0.854   4.907   4.731
 9883TIP3    H129534   0.899   4.823   4.742
 9883TIP3    H229535   0.895   4.945   4.653
 9884TIP3   OH229536   0.994   5.061   5.250
 9884TIP3    H129537   1.077   5.080   5.205
 9884TIP3    H229538   1.003   5.103   5.335
 9885TIP3   OH229539   1.064   5.206   5.476
 9885TIP3    H129540   1.007   5.237   5.546
 9885TIP3    H229541   1.093   5.286   5.432
 9886TIP3   OH229542   1.533   4.821   6.008
 9886TIP3    H129543   1.596   4.760   5.971
 9886TIP3    H229544   1.495   4.865   5.932
 9887TIP3   OH229545   0.964   4.656   4.781
 9887TIP3    H129546   1.007   4.640   4.864
 9887TIP3    H229547   0.901   4.584   4.772
 9888TIP3   OH229548   1.381   4.916   5.798
 9888TIP3    H129549   1.299   4.965   5.784
 9888TIP3    H229550   1.367   4.832   5.753
 9889TIP3   OH229551   1.008   4.567   4.418
 9889TIP3    H129552   1.058   4.508   4.362
 9889TIP3    H229553   1.061   4.647   4.421
 9890TIP3   OH229554   0.630   6.105   4.655
 9890TIP3    H129555   0.689   6.092   4.581
 9890TIP3    H229556   0.656   6.190   4.691
 9891TIP3   OH229557   0.591   6.379   5.510
 9891TIP3    H129558   0.591   6.302   5.452
 9891TIP3    H229559   0.650   6.355   5.581
 9892TIP3   OH229560   1.290   4.662   5.718
 9892TIP3    H129561   1.201   4.638   5.692
 9892TIP3    H229562   1.340   4.581   5.712
 9893TIP3   OH229563   0.221   6.311   5.249
 9893TIP3    H129564   0.127   6.303   5.234
 9893TIP3    H229565   0.229   6.326   5.343
 9894TIP3   OH229566   0.515   6.186   5.321
 9894TIP3    H129567   0.453   6.140   5.265
 9894TIP3    H229568   0.568   6.238   5.261
 9895TIP3   OH229569   0.734   6.341   5.236
 9895TIP3    H129570   0.718   6.422   5.189
 9895TIP3    H229571   0.765   6.280   5.170
 9896TIP3   OH229572   0.532   4.605   5.382
 9896TIP3    H129573   0.489   4.529   5.421
 9896TIP3    H229574   0.588   4.570   5.314
 9897TIP3   OH229575   1.001   4.529   5.244
 9897TIP3    H129576   1.037   4.576   5.169
 9897TIP3    H229577   0.906   4.542   5.238
 9898TIP3   OH229578   1.116   4.599   5.005
 9898TIP3    H129579   1.185   4.539   4.976
 9898TIP3    H229580   1.155   4.686   4.994
 9899TIP3   OH229581   0.366   4.294   5.241
 9899TIP3    H129582   0.354   4.370   5.184
 9899TIP3    H229583   0.342   4.325   5.328
 9900TIP3   OH229584   0.721   4.490   5.218
 9900TIP3    H129585   0.718   4.453   5.130
 9900TIP3    H229586   0.728   4.414   5.275
 9901TIP3   OH229587   0.780   4.444   4.788
 9901TIP3    H129588   0.701   4.492   4.814
 9901TIP3    H229589   0.768   4.357   4.826
 9902TIP3   OH229590   9.358   4.172   4.717
 9902TIP3    H129591   9.420   4.243   4.698
 9902TIP3    H229592   9.284   4.216   4.759
 9903TIP3   OH229593   0.219   4.569   4.810
 9903TIP3    H129594   0.258   4.524   4.884
 9903TIP3    H229595   0.220   4.662   4.834
 9904TIP3   OH229596   0.084   6.016   4.381
 9904TIP3    H129597   0.164   6.013   4.329
 9904TIP3    H229598   0.039   5.934   4.360
 9905TIP3   OH229599   0.766   6.063   4.424
 9905TIP3    H129600   0.746   5.969   4.423
 9905TIP3    H229601   0.726   6.097   4.344
 9906TIP3   OH229602   0.217   4.563   6.274
 9906TIP3    H129603   0.308   4.568   6.244
 9906TIP3    H229604   0.224   4.542   6.367
 9907TIP3   OH229605   1.038   4.714   6.130
 9907TIP3    H129606   1.047   4.686   6.221
 9907TIP3    H229607   1.126   4.706   6.094
 9908TIP3   OH229608   0.959   6.223   5.642
 9908TIP3    H129609   0.896   6.188   5.580
 9908TIP3    H229610   0.946   6.318   5.638
 9909TIP3   OH229611   2.233   5.616   4.378
 9909TIP3    H129612   2.201   5.703   4.355
 9909TIP3    H229613   2.161   5.557   4.358
 9910TIP3   OH229614   2.236   5.600   4.804
 9910TIP3    H129615   2.287   5.587   4.884
 9910TIP3    H229616   2.189   5.517   4.793
 9911TIP3   OH229617   1.528   5.463   5.153
 9911TIP3    H129618   1.568   5.413   5.223
 9911TIP3    H229619   1.601   5.489   5.097
 9912TIP3   OH229620   2.495   5.914   4.475
 9912TIP3    H129621   2.486   5.848   4.543
 9912TIP3    H229622   2.520   5.994   4.522
 9913TIP3   OH229623   1.484   5.877   4.860
 9913TIP3    H129624   1.466   5.784   4.848
 9913TIP3    H229625   1.579   5.884   4.853
 9914TIP3   OH229626   1.205   5.092   4.626
 9914TIP3    H129627   1.171   5.179   4.648
 9914TIP3    H229628   1.132   5.047   4.584
 9915TIP3   OH229629   1.287   5.407   4.850
 9915TIP3    H129630   1.337   5.330   4.879
 9915TIP3    H229631   1.354   5.472   4.828
 9916TIP3   OH229632   2.116   6.349   4.487
 9916TIP3    H129633   2.157   6.276   4.442
 9916TIP3    H229634   2.040   6.311   4.531
 9917TIP3   OH229635   2.037   5.818   4.828
 9917TIP3    H129636   2.085   5.743   4.791
 9917TIP3    H229637   2.106   5.876   4.861
 9918TIP3   OH229638   3.090   5.136   4.837
 9918TIP3    H129639   3.104   5.220   4.880
 9918TIP3    H229640   3.120   5.150   4.748
 9919TIP3   OH229641   2.437   5.306   4.854
 9919TIP3    H129642   2.472   5.220   4.879
 9919TIP3    H229643   2.403   5.293   4.766
 9920TIP3   OH229644   1.798   4.966   4.810
 9920TIP3    H129645   1.778   5.041   4.753
 9920TIP3    H229646   1.742   4.896   4.778
 9921TIP3   OH229647   2.493   5.074   4.444
 9921TIP3    H129648   2.557   5.068   4.515
 9921TIP3    H229649   2.543   5.109   4.370
 9922TIP3   OH229650   1.421   5.183   4.950
 9922TIP3    H129651   1.506   5.168   4.990
 9922TIP3    H229652   1.424   5.133   4.868
 9923TIP3   OH229653   1.842   5.384   4.753
 9923TIP3    H129654   1.936   5.369   4.761
 9923TIP3    H229655   1.807   5.302   4.719
 9924TIP3   OH229656   3.128   5.362   4.995
 9924TIP3    H129657   3.040   5.399   4.989
 9924TIP3    H229658   3.162   5.394   5.078
 9925TIP3   OH229659   1.776   4.983   5.273
 9925TIP3    H129660   1.730   5.019   5.197
 9925TIP3    H229661   1.718   5.002   5.347
 9926TIP3   OH229662   2.125   5.836   4.245
 9926TIP3    H129663   2.084   5.810   4.162
 9926TIP3    H229664   2.068   5.906   4.278
 9927TIP3   OH229665   1.867   5.746   5.034
 9927TIP3    H129666   1.812   5.818   5.063
 9927TIP3    H229667   1.916   5.783   4.960
 9928TIP3   OH229668   2.651   5.098   4.665
 9928TIP3    H129669   2.611   5.072   4.747
 9928TIP3    H229670   2.708   5.171   4.688
 9929TIP3   OH229671   1.674   5.080   5.033
 9929TIP3    H129672   1.727   5.157   5.052
 9929TIP3    H229673   1.718   5.037   4.960
 9930TIP3   OH229674   1.713   5.951   5.137
 9930TIP3    H129675   1.699   6.039   5.102
 9930TIP3    H229676   1.636   5.936   5.193
 9931TIP3   OH229677   1.097   5.657   4.388
 9931TIP3    H129678   1.066   5.677   4.300
 9931TIP3    H229679   1.119   5.743   4.425
 9932TIP3   OH229680   2.545   6.157   4.616
 9932TIP3    H129681   2.464   6.146   4.665
 9932TIP3    H229682   2.537   6.242   4.574
 9933TIP3   OH229683   2.861   5.057   4.982
 9933TIP3    H129684   2.784   5.087   4.933
 9933TIP3    H229685   2.935   5.077   4.925
 9934TIP3   OH229686   2.104   4.691   4.973
 9934TIP3    H129687   2.094   4.598   4.995
 9934TIP3    H229688   2.032   4.734   5.020
 9935TIP3   OH229689   2.226   6.186   4.279
 9935TIP3    H129690   2.281   6.108   4.268
 9935TIP3    H229691   2.283   6.259   4.255
 9936TIP3   OH229692   2.378   5.960   4.227
 9936TIP3    H129693   2.302   5.902   4.231
 9936TIP3    H229694   2.428   5.940   4.306
 9937TIP3   OH229695   2.766   6.049   4.967
 9937TIP3    H129696   2.750   5.975   4.907
 9937TIP3    H229697   2.750   6.127   4.913
 9938TIP3   OH229698   2.055   5.449   4.242
 9938TIP3    H129699   1.974   5.495   4.221
 9938TIP3    H229700   2.103   5.446   4.160
 9939TIP3   OH229701   2.021   5.269   3.918
 9939TIP3    H129702   2.086   5.314   3.972
 9939TIP3    H229703   2.070   5.202   3.871
 9940TIP3   OH229704   2.948   5.708   4.834
 9940TIP3    H129705   2.864   5.754   4.834
 9940TIP3    H229706   2.984   5.723   4.747
 9941TIP3   OH229707   2.420   5.540   4.194
 9941TIP3    H129708   2.365   5.572   4.267
 9941TIP3    H229709   2.503   5.517   4.235
 9942TIP3   OH229710   2.649   5.572   5.142
 9942TIP3    H129711   2.647   5.657   5.186
 9942TIP3    H229712   2.568   5.569   5.091
 9943TIP3   OH229713   1.642   5.516   4.599
 9943TIP3    H129714   1.609   5.454   4.534
 9943TIP3    H229715   1.716   5.471   4.640
 9944TIP3   OH229716   1.750   5.883   4.774
 9944TIP3    H129717   1.732   5.902   4.682
 9944TIP3    H229718   1.845   5.877   4.779
 9945TIP3   OH229719   1.737   5.514   4.975
 9945TIP3    H129720   1.776   5.480   4.894
 9945TIP3    H229721   1.782   5.597   4.991
 9946TIP3   OH229722   2.328   6.138   4.773
 9946TIP3    H129723   2.296   6.223   4.806
 9946TIP3    H229724   2.292   6.074   4.835
 9947TIP3   OH229725   1.915   6.047   5.302
 9947TIP3    H129726   1.854   6.108   5.344
 9947TIP3    H229727   1.861   5.997   5.241
 9948TIP3   OH229728   2.242   5.403   4.036
 9948TIP3    H129729   2.304   5.458   4.083
 9948TIP3    H229730   2.268   5.411   3.944
 9949TIP3   OH229731   1.670   5.587   5.450
 9949TIP3    H129732   1.675   5.680   5.471
 9949TIP3    H229733   1.576   5.571   5.436
 9950TIP3   OH229734   1.975   6.064   4.313
 9950TIP3    H129735   2.053   6.120   4.306
 9950TIP3    H229736   1.911   6.118   4.359
 9951TIP3   OH229737   1.709   6.211   5.381
 9951TIP3    H129738   1.684   6.221   5.289
 9951TIP3    H229739   1.628   6.194   5.427
 9952TIP3   OH229740   2.756   4.627   4.089
 9952TIP3    H129741   2.680   4.648   4.143
 9952TIP3    H229742   2.767   4.702   4.031
 9953TIP3   OH229743   1.520   5.357   4.397
 9953TIP3    H129744   1.442   5.407   4.372
 9953TIP3    H229745   1.487   5.268   4.412
 9954TIP3   OH229746   2.566   6.006   3.634
 9954TIP3    H129747   2.571   6.101   3.624
 9954TIP3    H229748   2.654   5.975   3.616
 9955TIP3   OH229749   1.298   5.764   5.347
 9955TIP3    H129750   1.230   5.746   5.282
 9955TIP3    H229751   1.328   5.677   5.375
 9956TIP3   OH229752   1.214   5.940   4.970
 9956TIP3    H129753   1.299   5.920   4.933
 9956TIP3    H229754   1.229   6.014   5.029
 9957TIP3   OH229755   3.003   6.414   5.043
 9957TIP3    H129756   3.007   6.319   5.060
 9957TIP3    H229757   2.923   6.442   5.087
 9958TIP3   OH229758   2.116   6.191   5.181
 9958TIP3    H129759   2.102   6.283   5.204
 9958TIP3    H229760   2.042   6.145   5.221
 9959TIP3   OH229761   1.874   6.304   4.077
 9959TIP3    H129762   1.812   6.293   4.005
 9959TIP3    H229763   1.838   6.375   4.130
 9960TIP3   OH229764   1.312   6.147   4.501
 9960TIP3    H129765   1.370   6.140   4.577
 9960TIP3    H229766   1.271   6.061   4.494
 9961TIP3   OH229767   2.097   6.214   3.738
 9961TIP3    H129768   2.161   6.151   3.707
 9961TIP3    H229769   2.120   6.230   3.829
 9962TIP3   OH229770   2.134   6.263   4.009
 9962TIP3    H129771   2.043   6.273   4.037
 9962TIP3    H229772   2.179   6.229   4.086
 9963TIP3   OH229773   2.883   5.520   5.312
 9963TIP3    H129774   2.808   5.537   5.256
 9963TIP3    H229775   2.905   5.428   5.296
 9964TIP3   OH229776   1.502   5.945   5.315
 9964TIP3    H129777   1.546   5.936   5.400
 9964TIP3    H229778   1.428   5.886   5.319
 9965TIP3   OH229779   1.877   4.765   5.127
 9965TIP3    H129780   1.794   4.731   5.094
 9965TIP3    H229781   1.853   4.846   5.172
 9966TIP3   OH229782   2.630   5.308   5.221
 9966TIP3    H129783   2.610   5.311   5.315
 9966TIP3    H229784   2.630   5.399   5.193
 9967TIP3   OH229785   2.314   5.403   3.774
 9967TIP3    H129786   2.292   5.375   3.685
 9967TIP3    H229787   2.397   5.449   3.764
 9968TIP3   OH229788   2.033   4.799   4.084
 9968TIP3    H129789   1.995   4.808   4.171
 9968TIP3    H229790   1.998   4.716   4.051
 9969TIP3   OH229791   1.822   5.295   5.125
 9969TIP3    H129792   1.777   5.304   5.209
 9969TIP3    H229793   1.799   5.375   5.077
 9970TIP3   OH229794   1.702   5.167   4.650
 9970TIP3    H129795   1.613   5.146   4.676
 9970TIP3    H229796   1.709   5.136   4.560
 9971TIP3   OH229797   2.180   5.244   4.377
 9971TIP3    H129798   2.133   5.318   4.337
 9971TIP3    H229799   2.238   5.213   4.307
 9972TIP3   OH229800   2.370   5.513   5.449
 9972TIP3    H129801   2.352   5.446   5.515
 9972TIP3    H229802   2.462   5.537   5.465
 9973TIP3   OH229803   2.346   5.257   4.601
 9973TIP3    H129804   2.279   5.279   4.536
 9973TIP3    H229805   2.395   5.185   4.561
 9974TIP3   OH229806   1.662   5.311   5.349
 9974TIP3    H129807   1.667   5.381   5.414
 9974TIP3    H229808   1.638   5.233   5.400
 9975TIP3   OH229809   1.701   4.779   4.065
 9975TIP3    H129810   1.691   4.785   4.160
 9975TIP3    H229811   1.622   4.822   4.030
 9976TIP3   OH229812   1.248   4.824   4.938
 9976TIP3    H129813   1.320   4.862   4.989
 9976TIP3    H229814   1.282   4.818   4.849
 9977TIP3   OH229815   1.152   4.804   4.429
 9977TIP3    H129816   1.196   4.839   4.352
 9977TIP3    H229817   1.089   4.872   4.453
 9978TIP3   OH229818   2.398   5.514   5.024
 9978TIP3    H129819   2.419   5.445   4.961
 9978TIP3    H229820   2.348   5.469   5.092
 9979TIP3   OH229821   2.065   4.955   4.694
 9979TIP3    H129822   1.989   4.956   4.752
 9979TIP3    H229823   2.140   4.952   4.753
 9980TIP3   OH229824   1.462   5.045   4.715
 9980TIP3    H129825   1.375   5.051   4.675
 9980TIP3    H229826   1.492   4.956   4.696
 9981TIP3   OH229827   1.712   5.048   4.402
 9981TIP3    H129828   1.807   5.058   4.393
 9981TIP3    H229829   1.677   5.065   4.315
 9982TIP3   OH229830   2.515   5.046   4.903
 9982TIP3    H129831   2.507   5.049   4.998
 9982TIP3    H229832   2.445   4.988   4.875
 9983TIP3   OH229833   1.603   5.069   4.152
 9983TIP3    H129834   1.540   5.020   4.099
 9983TIP3    H229835   1.657   5.116   4.088
 9984TIP3   OH229836   2.716   6.759   5.148
 9984TIP3    H129837   2.745   6.795   5.064
 9984TIP3    H229838   2.765   6.809   5.214
 9985TIP3   OH229839   1.636   5.838   5.567
 9985TIP3    H129840   1.716   5.868   5.611
 9985TIP3    H229841   1.569   5.840   5.634
 9986TIP3   OH229842   2.115   5.328   4.808
 9986TIP3    H129843   2.184   5.285   4.757
 9986TIP3    H229844   2.118   5.285   4.893
 9987TIP3   OH229845   1.603   4.797   4.692
 9987TIP3    H129846   1.575   4.721   4.742
 9987TIP3    H229847   1.621   4.762   4.604
 9988TIP3   OH229848   2.089   5.228   5.082
 9988TIP3    H129849   2.001   5.263   5.097
 9988TIP3    H229850   2.147   5.288   5.130
 9989TIP3   OH229851   1.824   5.590   4.179
 9989TIP3    H129852   1.748   5.536   4.155
 9989TIP3    H229853   1.797   5.632   4.261
 9990TIP3   OH229854   2.713   5.845   4.787
 9990TIP3    H129855   2.750   5.896   4.715
 9990TIP3    H229856   2.634   5.805   4.751
 9991TIP3   OH229857   2.286   4.903   4.092
 9991TIP3    H129858   2.193   4.881   4.086
 9991TIP3    H229859   2.288   4.998   4.102
 9992TIP3   OH229860   2.230   5.923   5.222
 9992TIP3    H129861   2.285   5.919   5.300
 9992TIP3    H229862   2.195   6.012   5.221
 9993TIP3   OH229863   2.343   5.169   4.159
 9993TIP3    H129864   2.438   5.174   4.169
 9993TIP3    H229865   2.320   5.247   4.108
 9994TIP3   OH229866   1.500   5.589   4.826
 9994TIP3    H129867   1.540   5.579   4.740
 9994TIP3    H229868   1.570   5.571   4.888
 9995TIP3   OH229869   1.974   5.752   4.013
 9995TIP3    H129870   1.928   5.836   4.017
 9995TIP3    H229871   1.921   5.694   4.069
 9996TIP3   OH229872   1.397   5.528   5.475
 9996TIP3    H129873   1.408   5.515   5.569
 9996TIP3    H229874   1.320   5.476   5.452
 9997TIP3   OH229875   2.137   5.668   5.497
 9997TIP3    H129876   2.067   5.611   5.464
 9997TIP3    H229877   2.217   5.630   5.461
 9998TIP3   OH229878   2.381   6.211   5.098
 9998TIP3    H129879   2.286   6.200   5.104
 9998TIP3    H229880   2.405   6.254   5.180
 9999TIP3   OH229881   2.757   5.253   3.975
 9999TIP3    H129882   2.701   5.209   3.911
 9999TIP3    H229883   2.763   5.343   3.942
10000TIP3   OH229884   3.011   6.124   5.063
10000TIP3    H129885   2.917   6.114   5.052
10000TIP3    H229886   3.048   6.099   4.978
10001TIP3   OH229887   2.494   6.071   3.933
10001TIP3    H129888   2.464   6.022   4.010
10001TIP3    H229889   2.513   6.003   3.869
10002TIP3   OH229890   2.488   5.710   4.679
10002TIP3    H129891   2.398   5.691   4.707
10002TIP3    H229892   2.519   5.627   4.643
10003TIP3   OH229893   1.674   5.953   4.513
10003TIP3    H129894   1.719   6.037   4.513
10003TIP3    H229895   1.598   5.966   4.456
10004TIP3   OH229896   1.204   5.229   4.216
10004TIP3    H129897   1.245   5.313   4.236
10004TIP3    H229898   1.123   5.229   4.267
10005TIP3   OH229899   1.720   5.702   4.404
10005TIP3    H129900   1.720   5.790   4.442
10005TIP3    H229901   1.692   5.645   4.476
10006TIP3   OH229902   1.925   6.257   4.976
10006TIP3    H129903   1.947   6.325   4.912
10006TIP3    H229904   2.009   6.233   5.015
10007TIP3   OH229905   1.519   6.125   4.319
10007TIP3    H129906   1.441   6.150   4.368
10007TIP3    H229907   1.590   6.175   4.361
10008TIP3   OH229908   2.269   5.923   4.947
10008TIP3    H129909   2.253   5.920   5.042
10008TIP3    H229910   2.360   5.895   4.937
10009TIP3   OH229911   2.254   5.809   3.805
10009TIP3    H129912   2.315   5.777   3.872
10009TIP3    H229913   2.167   5.787   3.841
10010TIP3   OH229914   2.525   6.432   4.970
10010TIP3    H129915   2.453   6.370   4.983
10010TIP3    H229916   2.497   6.487   4.898
10011TIP3   OH229917   2.581   6.279   3.610
10011TIP3    H129918   2.614   6.346   3.550
10011TIP3    H229919   2.507   6.321   3.654
10012TIP3   OH229920   1.597   5.062   5.482
10012TIP3    H129921   1.503   5.072   5.495
10012TIP3    H229922   1.626   5.011   5.557
10013TIP3   OH229923   2.445   5.714   3.977
10013TIP3    H129924   2.429   5.663   4.056
10013TIP3    H229925   2.540   5.724   3.974
10014TIP3   OH229926   1.338   6.165   5.118
10014TIP3    H129927   1.396   6.110   5.171
10014TIP3    H229928   1.354   6.254   5.150
10015TIP3   OH229929   1.596   5.769   3.817
10015TIP3    H129930   1.613   5.679   3.789
10015TIP3    H229931   1.589   5.764   3.912
10016TIP3   OH229932   1.561   5.786   4.092
10016TIP3    H129933   1.620   5.768   4.165
10016TIP3    H229934   1.560   5.882   4.084
10017TIP3   OH229935   1.293   5.481   4.296
10017TIP3    H129936   1.229   5.529   4.348
10017TIP3    H229937   1.312   5.539   4.222
10018TIP3   OH229938   2.486   5.085   5.175
10018TIP3    H129939   2.542   5.162   5.179
10018TIP3    H229940   2.505   5.037   5.256
10019TIP3   OH229941   2.347   4.854   4.358
10019TIP3    H129942   2.326   4.873   4.267
10019TIP3    H229943   2.390   4.934   4.390
10020TIP3   OH229944   1.840   5.986   4.039
10020TIP3    H129945   1.747   6.009   4.039
10020TIP3    H229946   1.881   6.057   4.088
10021TIP3   OH229947   1.992   5.054   4.445
10021TIP3    H129948   2.054   5.122   4.419
10021TIP3    H229949   2.016   5.031   4.535
10022TIP3   OH229950   2.292   5.357   5.228
10022TIP3    H129951   2.313   5.414   5.303
10022TIP3    H229952   2.349   5.281   5.240
10023TIP3   OH229953   2.158   4.747   4.527
10023TIP3    H129954   2.135   4.823   4.580
10023TIP3    H229955   2.229   4.777   4.470
10024TIP3   OH229956   1.572   6.057   4.062
10024TIP3    H129957   1.560   6.133   4.006
10024TIP3    H229958   1.549   6.087   4.150
10025TIP3   OH229959   1.670   4.774   4.345
10025TIP3    H129960   1.658   4.866   4.371
10025TIP3    H229961   1.764   4.759   4.349
10026TIP3   OH229962   2.902   5.258   5.212
10026TIP3    H129963   2.806   5.259   5.207
10026TIP3    H229964   2.929   5.195   5.145
10027TIP3   OH229965   2.576   5.445   4.598
10027TIP3    H129966   2.498   5.390   4.610
10027TIP3    H229967   2.642   5.407   4.655
10028TIP3   OH229968   1.317   5.656   4.078
10028TIP3    H129969   1.390   5.717   4.091
10028TIP3    H229970   1.349   5.594   4.012
10029TIP3   OH229971   1.220   4.951   4.208
10029TIP3    H129972   1.235   5.045   4.219
10029TIP3    H229973   1.166   4.945   4.129
10030TIP3   OH229974   2.553   6.426   4.539
10030TIP3    H129975   2.513   6.477   4.469
10030TIP3    H229976   2.647   6.441   4.529
10031TIP3   OH229977   1.621   4.669   5.078
10031TIP3    H129978   1.592   4.640   4.992
10031TIP3    H229979   1.611   4.593   5.135
10032TIP3   OH229980   1.140   5.920   4.477
10032TIP3    H129981   1.102   5.961   4.555
10032TIP3    H229982   1.103   5.968   4.403
10033TIP3   OH229983   1.338   6.460   5.538
10033TIP3    H129984   1.422   6.457   5.583
10033TIP3    H229985   1.310   6.369   5.534
10034TIP3   OH229986   1.811   6.370   5.581
10034TIP3    H129987   1.904   6.347   5.589
10034TIP3    H229988   1.780   6.318   5.506
10035TIP3   OH229989   1.784   5.931   3.697
10035TIP3    H129990   1.713   5.888   3.745
10035TIP3    H229991   1.857   5.869   3.703
10036TIP3   OH229992   2.430   6.319   5.346
10036TIP3    H129993   2.447   6.249   5.409
10036TIP3    H229994   2.504   6.378   5.355
10037TIP3   OH229995   2.280   6.028   3.642
10037TIP3    H129996   2.257   5.954   3.698
10037TIP3    H229997   2.375   6.036   3.651
10038TIP3   OH229998   1.424   5.836   5.760
10038TIP3    H129999   1.381   5.762   5.803
10038TIP3    H230000   1.359   5.868   5.697
10039TIP3   OH230001   1.441   5.468   3.922
10039TIP3    H130002   1.493   5.446   3.999
10039TIP3    H230003   1.505   5.481   3.853
10040TIP3   OH230004   2.064   5.945   5.510
10040TIP3    H130005   2.022   5.969   5.427
10040TIP3    H230006   2.102   5.859   5.494
10041TIP3   OH230007   1.946   5.711   3.742
10041TIP3    H130008   1.954   5.717   3.837
10041TIP3    H230009   1.956   5.618   3.722
10042TIP3   OH230010   2.538   5.982   5.108
10042TIP3    H130011   2.617   6.011   5.063
10042TIP3    H230012   2.478   6.057   5.103
10043TIP3   OH230013   1.589   5.523   5.729
10043TIP3    H130014   1.638   5.559   5.655
10043TIP3    H230015   1.596   5.590   5.797
10044TIP3   OH230016   1.614   5.411   4.134
10044TIP3    H130017   1.592   5.383   4.222
10044TIP3    H230018   1.661   5.337   4.096
10045TIP3   OH230019   1.935   5.490   5.396
10045TIP3    H130020   1.848   5.528   5.406
10045TIP3    H230021   1.967   5.524   5.312
10046TIP3   OH230022   1.752   5.224   3.980
10046TIP3    H130023   1.721   5.229   3.889
10046TIP3    H230024   1.847   5.236   3.973
10047TIP3   OH230025   2.419   5.865   5.471
10047TIP3    H130026   2.491   5.832   5.418
10047TIP3    H230027   2.418   5.810   5.549
10048TIP3   OH230028   2.546   5.515   3.671
10048TIP3    H130029   2.539   5.474   3.585
10048TIP3    H230030   2.517   5.606   3.656
10049TIP3   OH230031   2.051   5.263   5.499
10049TIP3    H130032   2.045   5.191   5.436
10049TIP3    H230033   2.013   5.338   5.453
10050TIP3   OH230034   2.043   5.053   5.309
10050TIP3    H130035   2.071   5.091   5.226
10050TIP3    H230036   1.951   5.030   5.295
10051TIP3   OH230037   2.051   5.605   5.178
10051TIP3    H130038   2.131   5.655   5.168
10051TIP3    H230039   1.986   5.653   5.127
10052TIP3   OH230040   2.640   5.573   5.539
10052TIP3    H130041   2.700   5.503   5.513
10052TIP3    H230042   2.694   5.652   5.540
10053TIP3   OH230043   2.666   5.817   5.281
10053TIP3    H130044   2.612   5.875   5.228
10053TIP3    H230045   2.755   5.834   5.251
10054TIP3   OH230046   1.921   5.348   5.742
10054TIP3    H130047   1.846   5.292   5.760
10054TIP3    H230048   1.943   5.330   5.651
10055TIP3   OH230049   2.132   4.824   5.454
10055TIP3    H130050   2.113   4.905   5.407
10055TIP3    H230051   2.066   4.762   5.423
10056TIP3   OH230052   2.302   5.294   5.612
10056TIP3    H130053   2.277   5.308   5.703
10056TIP3    H230054   2.219   5.279   5.566
10057TIP3   OH230055   2.564   5.279   5.483
10057TIP3    H130056   2.488   5.277   5.541
10057TIP3    H230057   2.638   5.255   5.540
10058TIP3   OH230058   2.792   5.215   5.644
10058TIP3    H130059   2.814   5.127   5.674
10058TIP3    H230060   2.780   5.266   5.724
10059TIP3   OH230061   1.753   5.127   5.810
10059TIP3    H130062   1.762   5.037   5.777
10059TIP3    H230063   1.788   5.123   5.899
10060TIP3   OH230064   2.239   5.012   5.812
10060TIP3    H130065   2.229   5.012   5.717
10060TIP3    H230066   2.207   5.097   5.841
10061TIP3   OH230067   1.586   6.273   3.892
10061TIP3    H130068   1.669   6.243   3.854
10061TIP3    H230069   1.546   6.326   3.824
10062TIP3   OH230070   1.046   5.651   4.100
10062TIP3    H130071   1.141   5.663   4.094
10062TIP3    H230072   1.031   5.566   4.058
10063TIP3   OH230073   0.956   6.223   4.542
10063TIP3    H130074   0.902   6.164   4.488
10063TIP3    H230075   0.999   6.165   4.605
10064TIP3   OH230076   1.092   6.064   4.726
10064TIP3    H130077   1.091   5.997   4.794
10064TIP3    H230078   1.150   6.132   4.760
10065TIP3   OH230079   2.823   6.484   4.542
10065TIP3    H130080   2.839   6.498   4.635
10065TIP3    H230081   2.859   6.562   4.499
10066TIP3   OH230082   2.846   6.508   4.819
10066TIP3    H130083   2.797   6.426   4.820
10066TIP3    H230084   2.919   6.494   4.880
10067TIP3   OH230085   2.900   6.200   5.386
10067TIP3    H130086   2.827   6.213   5.446
10067TIP3    H230087   2.948   6.283   5.388
10068TIP3   OH230088   2.724   5.723   3.990
10068TIP3    H130089   2.781   5.795   3.962
10068TIP3    H230090   2.769   5.686   4.067
10069TIP3   OH230091   2.853   5.580   4.192
10069TIP3    H130092   2.786   5.544   4.250
10069TIP3    H230093   2.918   5.618   4.251
10070TIP3   OH230094   2.897   5.988   4.631
10070TIP3    H130095   2.947   5.922   4.584
10070TIP3    H230096   2.897   6.064   4.573
10071TIP3   OH230097   2.700   6.271   4.821
10071TIP3    H130098   2.631   6.315   4.870
10071TIP3    H230099   2.655   6.232   4.746
10072TIP3   OH230100   2.757   5.494   3.843
10072TIP3    H130101   2.683   5.495   3.781
10072TIP3    H230102   2.744   5.573   3.895
10073TIP3   OH230103   2.608   5.142   3.773
10073TIP3    H130104   2.567   5.176   3.694
10073TIP3    H230105   2.599   5.047   3.766
10074TIP3   OH230106   2.646   5.443   4.328
10074TIP3    H130107   2.650   5.348   4.314
10074TIP3    H230108   2.627   5.452   4.422
10075TIP3   OH230109   1.265   5.506   5.104
10075TIP3    H130110   1.257   5.475   5.014
10075TIP3    H230111   1.360   5.502   5.121
10076TIP3   OH230112   2.926   5.860   5.193
10076TIP3    H130113   2.992   5.794   5.175
10076TIP3    H230114   2.949   5.933   5.136
10077TIP3   OH230115   3.097   5.643   5.184
10077TIP3    H130116   3.024   5.603   5.232
10077TIP3    H230117   3.172   5.586   5.203
10078TIP3   OH230118   2.568   4.871   3.745
10078TIP3    H130119   2.633   4.844   3.809
10078TIP3    H230120   2.486   4.833   3.778
10079TIP3   OH230121   2.636   5.163   4.216
10079TIP3    H130122   2.682   5.081   4.230
10079TIP3    H230123   2.676   5.201   4.138
10080TIP3   OH230124   2.792   5.324   4.745
10080TIP3    H130125   2.870   5.343   4.693
10080TIP3    H230126   2.807   5.368   4.829
10081TIP3   OH230127   2.866   5.480   4.966
10081TIP3    H130128   2.794   5.511   5.021
10081TIP3    H230129   2.899   5.559   4.923
10082TIP3   OH230130   1.484   5.178   5.813
10082TIP3    H130131   1.579   5.180   5.812
10082TIP3    H230132   1.462   5.085   5.806
10083TIP3   OH230133   2.755   4.915   4.270
10083TIP3    H130134   2.799   4.900   4.354
10083TIP3    H230135   2.692   4.843   4.263
10084TIP3   OH230136   1.462   4.897   5.101
10084TIP3    H130137   1.515   4.817   5.103
10084TIP3    H230138   1.524   4.967   5.081
10085TIP3   OH230139   1.241   5.157   5.169
10085TIP3    H130140   1.295   5.153   5.091
10085TIP3    H230141   1.247   5.248   5.197
10086TIP3   OH230142   3.189   5.180   5.312
10086TIP3    H130143   3.125   5.221   5.370
10086TIP3    H230144   3.146   5.100   5.282
10087TIP3   OH230145   2.795   4.825   3.902
10087TIP3    H130146   2.844   4.765   3.846
10087TIP3    H230147   2.850   4.903   3.908
10088TIP3   OH230148   1.228   4.675   4.658
10088TIP3    H130149   1.143   4.661   4.698
10088TIP3    H230150   1.209   4.728   4.580
10089TIP3   OH230151   2.380   6.383   4.178
10089TIP3    H130152   2.438   6.376   4.102
10089TIP3    H230153   2.419   6.452   4.232
10090TIP3   OH230154   1.441   4.718   5.482
10090TIP3    H130155   1.384   4.704   5.557
10090TIP3    H230156   1.390   4.773   5.423
10091TIP3   OH230157   1.493   6.177   5.551
10091TIP3    H130158   1.399   6.168   5.540
10091TIP3    H230159   1.507   6.172   5.645
10092TIP3   OH230160   1.686   6.228   5.101
10092TIP3    H130161   1.642   6.307   5.069
10092TIP3    H230162   1.772   6.230   5.059
10093TIP3   OH230163   2.090   6.462   5.245
10093TIP3    H130164   2.128   6.457   5.333
10093TIP3    H230165   2.152   6.515   5.195
10094TIP3   OH230166   2.282   6.617   5.118
10094TIP3    H130167   2.346   6.566   5.069
10094TIP3    H230168   2.334   6.676   5.172
10095TIP3   OH230169   3.062   4.931   5.229
10095TIP3    H130170   2.974   4.917   5.194
10095TIP3    H230171   3.075   4.859   5.291
10096TIP3   OH230172   1.355   6.455   5.156
10096TIP3    H130173   1.269   6.488   5.132
10096TIP3    H230174   1.387   6.517   5.222
10097TIP3   OH230175   1.587   6.466   5.002
10097TIP3    H130176   1.501   6.466   5.044
10097TIP3    H230177   1.570   6.487   4.911
10098TIP3   OH230178   1.998   6.469   4.806
10098TIP3    H130179   1.929   6.484   4.743
10098TIP3    H230180   2.013   6.555   4.846
10099TIP3   OH230181   2.263   6.400   4.840
10099TIP3    H130182   2.171   6.417   4.823
10099TIP3    H230183   2.309   6.469   4.792
10100TIP3   OH230184   2.462   6.585   4.746
10100TIP3    H130185   2.466   6.674   4.711
10100TIP3    H230186   2.492   6.530   4.674
10101TIP3   OH230187   1.280   6.241   4.858
10101TIP3    H130188   1.306   6.216   4.946
10101TIP3    H230189   1.353   6.212   4.802
10102TIP3   OH230190   1.486   6.131   4.713
10102TIP3    H130191   1.503   6.048   4.757
10102TIP3    H230192   1.571   6.160   4.681
10103TIP3   OH230193   2.299   4.874   4.830
10103TIP3    H130194   2.254   4.802   4.874
10103TIP3    H230195   2.366   4.832   4.776
10104TIP3   OH230196   2.805   4.770   4.732
10104TIP3    H130197   2.843   4.819   4.659
10104TIP3    H230198   2.714   4.798   4.736
10105TIP3   OH230199   2.912   4.857   4.495
10105TIP3    H130200   2.979   4.797   4.463
10105TIP3    H230201   2.949   4.944   4.481
10106TIP3   OH230202   1.534   4.569   4.837
10106TIP3    H130203   1.444   4.535   4.844
10106TIP3    H230204   1.587   4.490   4.827
10107TIP3   OH230205   1.364   4.483   4.497
10107TIP3    H130206   1.387   4.530   4.416
10107TIP3    H230207   1.325   4.550   4.553
10108TIP3   OH230208   2.005   4.610   4.720
10108TIP3    H130209   2.052   4.651   4.647
10108TIP3    H230210   2.039   4.654   4.798
10109TIP3   OH230211   2.514   4.757   4.697
10109TIP3    H130212   2.537   4.723   4.611
10109TIP3    H230213   2.511   4.680   4.754
10110TIP3   OH230214   2.568   4.705   4.275
10110TIP3    H130215   2.489   4.753   4.300
10110TIP3    H230216   2.557   4.618   4.312
10111TIP3   OH230217   1.039   6.048   4.256
10111TIP3    H130218   0.961   6.009   4.216
10111TIP3    H230219   1.040   6.138   4.223
10112TIP3   OH230220   1.462   4.606   4.253
10112TIP3    H130221   1.508   4.545   4.195
10112TIP3    H230222   1.531   4.662   4.288
10113TIP3   OH230223   1.945   4.803   4.346
10113TIP3    H130224   2.006   4.750   4.398
10113TIP3    H230225   1.960   4.892   4.375
10114TIP3   OH230226   1.824   6.191   3.794
10114TIP3    H130227   1.916   6.210   3.776
10114TIP3    H230228   1.814   6.098   3.773
10115TIP3   OH230229   2.536   6.342   3.948
10115TIP3    H130230   2.525   6.247   3.944
10115TIP3    H230231   2.490   6.374   3.870
10116TIP3   OH230232   1.759   4.851   5.722
10116TIP3    H130233   1.726   4.781   5.778
10116TIP3    H230234   1.849   4.863   5.751
10117TIP3   OH230235   1.992   4.883   5.867
10117TIP3    H130236   2.086   4.899   5.859
10117TIP3    H230237   1.986   4.809   5.929
10118TIP3   OH230238   1.133   6.029   3.908
10118TIP3    H130239   1.145   6.046   4.001
10118TIP3    H230240   1.215   5.986   3.881
10119TIP3   OH230241   2.751   6.487   5.131
10119TIP3    H130242   2.674   6.460   5.081
10119TIP3    H230243   2.740   6.581   5.143
10120TIP3   OH230244   4.031   5.870   3.867
10120TIP3    H130245   3.999   5.957   3.842
10120TIP3    H230246   3.959   5.811   3.845
10121TIP3   OH230247   4.026   5.859   4.295
10121TIP3    H130248   4.080   5.843   4.373
10121TIP3    H230249   3.982   5.776   4.279
10122TIP3   OH230250   3.322   5.722   4.640
10122TIP3    H130251   3.360   5.672   4.713
10122TIP3    H230252   3.397   5.750   4.588
10123TIP3   OH230253   4.293   6.170   3.969
10123TIP3    H130254   4.283   6.102   4.036
10123TIP3    H230255   4.314   6.249   4.018
10124TIP3   OH230256   3.321   6.139   4.311
10124TIP3    H130257   3.301   6.047   4.326
10124TIP3    H230258   3.417   6.143   4.311
10125TIP3   OH230259   2.998   5.351   4.110
10125TIP3    H130260   2.960   5.435   4.135
10125TIP3    H230261   2.925   5.303   4.071
10126TIP3   OH230262   3.081   5.668   4.333
10126TIP3    H130263   3.130   5.590   4.360
10126TIP3    H230264   3.147   5.733   4.313
10127TIP3   OH230265   3.953   6.596   3.986
10127TIP3    H130266   3.979   6.530   3.922
10127TIP3    H230267   3.957   6.551   4.070
10128TIP3   OH230268   3.838   6.080   4.301
10128TIP3    H130269   3.884   6.000   4.275
10128TIP3    H230270   3.907   6.138   4.334
10129TIP3   OH230271   4.875   5.405   4.314
10129TIP3    H130272   4.890   5.489   4.358
10129TIP3    H230273   4.904   5.419   4.224
10130TIP3   OH230274   4.238   5.568   4.335
10130TIP3    H130275   4.272   5.483   4.363
10130TIP3    H230276   4.201   5.551   4.248
10131TIP3   OH230277   3.592   5.227   4.295
10131TIP3    H130278   3.573   5.300   4.236
10131TIP3    H230279   3.538   5.155   4.263
10132TIP3   OH230280   4.289   5.329   3.929
10132TIP3    H130281   4.352   5.323   4.002
10132TIP3    H230282   4.340   5.363   3.856
10133TIP3   OH230283   3.217   5.444   4.425
10133TIP3    H130284   3.300   5.427   4.469
10133TIP3    H230285   3.221   5.392   4.344
10134TIP3   OH230286   3.638   5.643   4.239
10134TIP3    H130287   3.732   5.628   4.244
10134TIP3    H230288   3.602   5.561   4.206
10135TIP3   OH230289   4.922   5.628   4.475
10135TIP3    H130290   4.833   5.660   4.473
10135TIP3    H230291   4.958   5.663   4.557
10136TIP3   OH230292   3.570   5.224   4.746
10136TIP3    H130293   3.519   5.261   4.674
10136TIP3    H230294   3.520   5.247   4.825
10137TIP3   OH230295   3.925   6.088   3.730
10137TIP3    H130296   3.885   6.056   3.649
10137TIP3    H230297   3.872   6.162   3.756
10138TIP3   OH230298   3.664   6.009   4.507
10138TIP3    H130299   3.612   6.081   4.542
10138TIP3    H230300   3.715   6.049   4.436
10139TIP3   OH230301   4.445   5.360   4.150
10139TIP3    H130302   4.405   5.332   4.233
10139TIP3    H230303   4.502   5.433   4.174
10140TIP3   OH230304   3.464   5.338   4.517
10140TIP3    H130305   3.518   5.414   4.540
10140TIP3    H230306   3.510   5.297   4.443
10141TIP3   OH230307   3.510   6.211   4.619
10141TIP3    H130308   3.499   6.302   4.591
10141TIP3    H230309   3.432   6.192   4.670
10142TIP3   OH230310   2.891   5.917   3.874
10142TIP3    H130311   2.854   5.939   3.788
10142TIP3    H230312   2.915   6.001   3.913
10143TIP3   OH230313   4.327   6.417   4.109
10143TIP3    H130314   4.240   6.408   4.148
10143TIP3    H230315   4.324   6.501   4.064
10144TIP3   OH230316   4.646   5.330   4.463
10144TIP3    H130317   4.563   5.337   4.416
10144TIP3    H230318   4.713   5.351   4.398
10145TIP3   OH230319   3.915   4.925   4.469
10145TIP3    H130320   3.904   4.835   4.499
10145TIP3    H230321   3.836   4.970   4.499
10146TIP3   OH230322   4.037   6.446   3.766
10146TIP3    H130323   4.091   6.367   3.756
10146TIP3    H230324   4.094   6.517   3.737
10147TIP3   OH230325   4.176   6.215   3.723
10147TIP3    H130326   4.101   6.155   3.723
10147TIP3    H230327   4.225   6.192   3.801
10148TIP3   OH230328   4.560   6.307   4.453
10148TIP3    H130329   4.544   6.232   4.397
10148TIP3    H230330   4.546   6.383   4.397
10149TIP3   OH230331   3.854   5.706   3.726
10149TIP3    H130332   3.771   5.749   3.707
10149TIP3    H230333   3.901   5.705   3.642
10150TIP3   OH230334   3.818   5.522   3.410
10150TIP3    H130335   3.884   5.568   3.461
10150TIP3    H230336   3.866   5.452   3.366
10151TIP3   OH230337   4.743   5.965   4.330
10151TIP3    H130338   4.659   6.011   4.327
10151TIP3    H230339   4.781   5.978   4.243
10152TIP3   OH230340   4.216   5.795   3.681
10152TIP3    H130341   4.161   5.825   3.753
10152TIP3    H230342   4.299   5.770   3.722
10153TIP3   OH230343   4.443   5.816   4.644
10153TIP3    H130344   4.441   5.903   4.684
10153TIP3    H230345   4.363   5.812   4.591
10154TIP3   OH230346   3.441   5.776   4.085
10154TIP3    H130347   3.405   5.714   4.022
10154TIP3    H230348   3.514   5.729   4.126
10155TIP3   OH230349   3.588   6.197   4.228
10155TIP3    H130350   3.566   6.183   4.136
10155TIP3    H230351   3.675   6.159   4.238
10156TIP3   OH230352   3.536   5.771   4.463
10156TIP3    H130353   3.576   5.735   4.384
10156TIP3    H230354   3.583   5.854   4.478
10157TIP3   OH230355   4.089   6.406   4.240
10157TIP3    H130356   4.076   6.488   4.288
10157TIP3    H230357   4.074   6.338   4.306
10158TIP3   OH230358   3.712   6.303   4.788
10158TIP3    H130359   3.653   6.361   4.836
10158TIP3    H230360   3.654   6.253   4.730
10159TIP3   OH230361   4.042   5.658   3.516
10159TIP3    H130362   4.103   5.715   3.563
10159TIP3    H230363   4.072   5.660   3.425
10160TIP3   OH230364   3.462   5.849   4.930
10160TIP3    H130365   3.470   5.942   4.952
10160TIP3    H230366   3.368   5.833   4.925
10161TIP3   OH230367   3.789   6.326   3.769
10161TIP3    H130368   3.871   6.375   3.778
10161TIP3    H230369   3.729   6.387   3.725
10162TIP3   OH230370   3.506   6.463   4.876
10162TIP3    H130371   3.480   6.478   4.785
10162TIP3    H230372   3.424   6.444   4.922
10163TIP3   OH230373   4.552   4.882   3.576
10163TIP3    H130374   4.476   4.902   3.631
10163TIP3    H230375   4.561   4.958   3.519
10164TIP3   OH230376   3.313   5.617   3.887
10164TIP3    H130377   3.235   5.664   3.860
10164TIP3    H230378   3.282   5.528   3.906
10165TIP3   OH230379   4.379   6.258   3.131
10165TIP3    H130380   4.372   6.352   3.114
10165TIP3    H230381   4.467   6.235   3.104
10166TIP3   OH230382   3.099   6.024   4.825
10166TIP3    H130383   3.028   6.007   4.762
10166TIP3    H230384   3.132   5.937   4.848
10167TIP3   OH230385   2.936   6.231   4.487
10167TIP3    H130386   3.024   6.260   4.513
10167TIP3    H230387   2.879   6.306   4.508
10168TIP3   OH230388   4.800   6.669   4.532
10168TIP3    H130389   4.808   6.575   4.545
10168TIP3    H230390   4.720   6.693   4.578
10169TIP3   OH230391   3.899   6.450   4.651
10169TIP3    H130392   3.891   6.541   4.680
10169TIP3    H230393   3.831   6.404   4.700
10170TIP3   OH230394   3.680   6.549   3.603
10170TIP3    H130395   3.630   6.530   3.523
10170TIP3    H230396   3.644   6.632   3.634
10171TIP3   OH230397   3.116   6.406   3.981
10171TIP3    H130398   3.161   6.399   4.065
10171TIP3    H230399   3.067   6.323   3.973
10172TIP3   OH230400   3.881   6.483   3.228
10172TIP3    H130401   3.932   6.410   3.194
10172TIP3    H230402   3.914   6.497   3.317
10173TIP3   OH230403   3.933   6.525   3.498
10173TIP3    H130404   3.847   6.528   3.540
10173TIP3    H230405   3.991   6.489   3.565
10174TIP3   OH230406   4.691   5.757   4.799
10174TIP3    H130407   4.608   5.783   4.758
10174TIP3    H230408   4.703   5.666   4.770
10175TIP3   OH230409   3.283   6.225   4.779
10175TIP3    H130410   3.315   6.242   4.868
10175TIP3    H230411   3.219   6.155   4.790
10176TIP3   OH230412   3.676   5.027   4.569
10176TIP3    H130413   3.592   4.992   4.539
10176TIP3    H230414   3.654   5.108   4.615
10177TIP3   OH230415   4.224   5.110   4.780
10177TIP3    H130416   4.273   5.051   4.837
10177TIP3    H230417   4.135   5.111   4.817
10178TIP3   OH230418   4.431   5.553   4.754
10178TIP3    H130419   4.397   5.551   4.843
10178TIP3    H230420   4.419   5.643   4.725
10179TIP3   OH230421   4.121   5.630   3.253
10179TIP3    H130422   4.077   5.633   3.168
10179TIP3    H230423   4.202   5.679   3.240
10180TIP3   OH230424   3.830   5.057   3.572
10180TIP3    H130425   3.793   5.065   3.661
10180TIP3    H230426   3.794   4.975   3.539
10181TIP3   OH230427   3.613   5.551   4.613
10181TIP3    H130428   3.569   5.558   4.697
10181TIP3    H230429   3.591   5.632   4.566
10182TIP3   OH230430   3.496   5.427   4.134
10182TIP3    H130431   3.407   5.403   4.159
10182TIP3    H230432   3.505   5.394   4.044
10183TIP3   OH230433   3.975   5.500   3.862
10183TIP3    H130434   3.929   5.574   3.822
10183TIP3    H230435   4.033   5.468   3.794
10184TIP3   OH230436   4.165   5.766   4.920
10184TIP3    H130437   4.135   5.706   4.989
10184TIP3    H230438   4.253   5.790   4.946
10185TIP3   OH230439   4.144   5.514   4.084
10185TIP3    H130440   4.076   5.534   4.020
10185TIP3    H230441   4.193   5.441   4.045
10186TIP3   OH230442   3.456   5.567   4.836
10186TIP3    H130443   3.462   5.635   4.903
10186TIP3    H230444   3.439   5.487   4.886
10187TIP3   OH230445   3.497   5.037   3.551
10187TIP3    H130446   3.488   5.041   3.647
10187TIP3    H230447   3.418   5.080   3.518
10188TIP3   OH230448   3.042   5.080   4.418
10188TIP3    H130449   3.110   5.121   4.470
10188TIP3    H230450   3.080   5.070   4.331
10189TIP3   OH230451   2.947   5.058   3.917
10189TIP3    H130452   2.992   5.094   3.841
10189TIP3    H230453   2.883   5.125   3.941
10190TIP3   OH230454   4.195   5.771   4.508
10190TIP3    H130455   4.218   5.704   4.444
10190TIP3    H230456   4.146   5.723   4.575
10191TIP3   OH230457   3.864   5.213   4.184
10191TIP3    H130458   3.788   5.213   4.242
10191TIP3    H230459   3.939   5.205   4.242
10192TIP3   OH230460   3.257   5.302   4.194
10192TIP3    H130461   3.170   5.306   4.155
10192TIP3    H230462   3.286   5.212   4.176
10193TIP3   OH230463   3.509   5.304   3.888
10193TIP3    H130464   3.604   5.315   3.879
10193TIP3    H230465   3.474   5.322   3.801
10194TIP3   OH230466   4.314   5.308   4.394
10194TIP3    H130467   4.296   5.322   4.487
10194TIP3    H230468   4.248   5.245   4.366
10195TIP3   OH230469   3.399   5.327   3.639
10195TIP3    H130470   3.336   5.278   3.586
10195TIP3    H230471   3.452   5.374   3.574
10196TIP3   OH230472   4.514   7.012   4.617
10196TIP3    H130473   4.514   7.029   4.523
10196TIP3    H230474   4.586   7.064   4.651
10197TIP3   OH230475   3.458   6.104   5.036
10197TIP3    H130476   3.536   6.133   5.083
10197TIP3    H230477   3.385   6.128   5.093
10198TIP3   OH230478   3.911   5.591   4.286
10198TIP3    H130479   3.978   5.541   4.240
10198TIP3    H230480   3.907   5.550   4.373
10199TIP3   OH230481   3.400   5.054   4.174
10199TIP3    H130482   3.370   4.976   4.221
10199TIP3    H230483   3.424   5.021   4.087
10200TIP3   OH230484   3.878   5.496   4.549
10200TIP3    H130485   3.793   5.530   4.574
10200TIP3    H230486   3.941   5.546   4.602
10201TIP3   OH230487   3.617   5.839   3.668
10201TIP3    H130488   3.541   5.785   3.643
10201TIP3    H230489   3.589   5.884   3.748
10202TIP3   OH230490   4.508   6.101   4.277
10202TIP3    H130491   4.545   6.149   4.203
10202TIP3    H230492   4.429   6.059   4.241
10203TIP3   OH230493   4.082   5.161   3.575
10203TIP3    H130494   3.989   5.139   3.573
10203TIP3    H230495   4.084   5.256   3.590
10204TIP3   OH230496   4.024   6.184   4.694
10204TIP3    H130497   4.074   6.176   4.775
10204TIP3    H230498   3.982   6.270   4.700
10205TIP3   OH230499   4.139   5.426   3.646
10205TIP3    H130500   4.234   5.429   3.657
10205TIP3    H230501   4.118   5.505   3.595
10206TIP3   OH230502   3.303   5.847   4.315
10206TIP3    H130503   3.343   5.833   4.229
10206TIP3    H230504   3.371   5.820   4.377
10207TIP3   OH230505   3.768   6.002   3.511
10207TIP3    H130506   3.720   6.085   3.509
10207TIP3    H230507   3.714   5.944   3.564
10208TIP3   OH230508   3.189   5.786   4.955
10208TIP3    H130509   3.192   5.760   5.046
10208TIP3    H230510   3.113   5.741   4.919
10209TIP3   OH230511   3.932   5.925   4.976
10209TIP3    H130512   3.860   5.868   4.949
10209TIP3    H230513   4.010   5.885   4.938
10210TIP3   OH230514   4.169   6.473   4.573
10210TIP3    H130515   4.074   6.459   4.580
10210TIP3    H230516   4.193   6.510   4.658
10211TIP3   OH230517   4.554   5.510   3.459
10211TIP3    H130518   4.498   5.464   3.396
10211TIP3    H230519   4.558   5.599   3.427
10212TIP3   OH230520   4.806   6.381   4.549
10212TIP3    H130521   4.711   6.371   4.540
10212TIP3    H230522   4.842   6.355   4.465
10213TIP3   OH230523   4.297   6.331   3.401
10213TIP3    H130524   4.269   6.265   3.465
10213TIP3    H230525   4.314   6.281   3.322
10214TIP3   OH230526   4.281   5.965   4.169
10214TIP3    H130527   4.191   5.945   4.195
10214TIP3    H230528   4.314   5.883   4.132
10215TIP3   OH230529   3.434   6.203   3.989
10215TIP3    H130530   3.425   6.277   3.929
10215TIP3    H230531   3.354   6.205   4.041
10216TIP3   OH230532   2.992   5.485   3.701
10216TIP3    H130533   3.035   5.567   3.723
10216TIP3    H230534   2.912   5.484   3.753
10217TIP3   OH230535   3.508   5.959   3.885
10217TIP3    H130536   3.493   6.048   3.917
10217TIP3    H230537   3.486   5.902   3.959
10218TIP3   OH230538   3.718   6.524   4.443
10218TIP3    H130539   3.753   6.598   4.394
10218TIP3    H230540   3.792   6.492   4.495
10219TIP3   OH230541   3.349   6.424   3.835
10219TIP3    H130542   3.263   6.429   3.876
10219TIP3    H230543   3.385   6.512   3.842
10220TIP3   OH230544   4.067   6.189   4.420
10220TIP3    H130545   4.051   6.185   4.515
10220TIP3    H230546   4.151   6.145   4.409
10221TIP3   OH230547   4.060   6.064   3.283
10221TIP3    H130548   4.114   6.035   3.357
10221TIP3    H230549   3.976   6.021   3.297
10222TIP3   OH230550   4.322   6.682   4.456
10222TIP3    H130551   4.253   6.618   4.476
10222TIP3    H230552   4.286   6.735   4.385
10223TIP3   OH230553   4.375   6.532   3.094
10223TIP3    H130554   4.404   6.599   3.031
10223TIP3    H230555   4.301   6.572   3.140
10224TIP3   OH230556   3.416   5.311   4.961
10224TIP3    H130557   3.321   5.315   4.973
10224TIP3    H230558   3.448   5.266   5.039
10225TIP3   OH230559   4.242   5.973   3.468
10225TIP3    H130560   4.225   5.922   3.547
10225TIP3    H230561   4.337   5.983   3.465
10226TIP3   OH230562   3.143   6.413   4.599
10226TIP3    H130563   3.196   6.358   4.656
10226TIP3    H230564   3.152   6.501   4.635
10227TIP3   OH230565   3.410   6.028   3.302
10227TIP3    H130566   3.421   5.936   3.277
10227TIP3    H230567   3.396   6.024   3.397
10228TIP3   OH230568   3.347   6.046   3.574
10228TIP3    H130569   3.403   6.019   3.647
10228TIP3    H230570   3.348   6.142   3.577
10229TIP3   OH230571   3.085   5.737   3.781
10229TIP3    H130572   3.021   5.785   3.835
10229TIP3    H230573   3.102   5.794   3.707
10230TIP3   OH230574   4.252   5.363   4.660
10230TIP3    H130575   4.328   5.408   4.698
10230TIP3    H230576   4.248   5.279   4.706
10231TIP3   OH230577   4.143   5.109   3.843
10231TIP3    H130578   4.123   5.128   3.751
10231TIP3    H230579   4.186   5.188   3.875
10232TIP3   OH230580   3.621   6.229   3.504
10232TIP3    H130581   3.537   6.252   3.544
10232TIP3    H230582   3.646   6.306   3.453
10233TIP3   OH230583   3.788   5.311   3.935
10233TIP3    H130584   3.850   5.379   3.909
10233TIP3    H230585   3.813   5.289   4.024
10234TIP3   OH230586   4.087   5.602   4.699
10234TIP3    H130587   4.113   5.648   4.779
10234TIP3    H230588   4.139   5.522   4.700
10235TIP3   OH230589   3.955   5.004   4.016
10235TIP3    H130590   3.933   5.081   4.070
10235TIP3    H230591   4.026   5.034   3.959
10236TIP3   OH230592   3.372   6.319   3.583
10236TIP3    H130593   3.353   6.391   3.524
10236TIP3    H230594   3.363   6.357   3.671
10237TIP3   OH230595   3.467   5.031   3.831
10237TIP3    H130596   3.456   5.122   3.858
10237TIP3    H230597   3.562   5.016   3.837
10238TIP3   OH230598   4.688   5.493   4.689
10238TIP3    H130599   4.597   5.503   4.715
10238TIP3    H230600   4.685   5.439   4.610
10239TIP3   OH230601   4.371   5.705   4.084
10239TIP3    H130602   4.294   5.649   4.095
10239TIP3    H230603   4.438   5.667   4.141
10240TIP3   OH230604   3.101   5.913   3.562
10240TIP3    H130605   3.172   5.976   3.573
10240TIP3    H230606   3.135   5.850   3.498
10241TIP3   OH230607   3.015   5.207   3.697
10241TIP3    H130608   3.028   5.301   3.705
10241TIP3    H230609   2.955   5.197   3.623
10242TIP3   OH230610   4.348   6.683   4.025
10242TIP3    H130611   4.309   6.735   3.955
10242TIP3    H230612   4.443   6.696   4.014
10243TIP3   OH230613   3.414   4.938   4.541
10243TIP3    H130614   3.384   4.907   4.456
10243TIP3    H230615   3.405   4.862   4.599
10244TIP3   OH230616   2.939   6.183   3.962
10244TIP3    H130617   2.900   6.222   4.040
10244TIP3    H230618   2.896   6.228   3.889
10245TIP3   OH230619   3.133   6.712   4.990
10245TIP3    H130620   3.210   6.720   5.047
10245TIP3    H230621   3.083   6.640   5.028
10246TIP3   OH230622   3.600   6.630   5.077
10246TIP3    H130623   3.693   6.611   5.087
10246TIP3    H230624   3.572   6.575   5.003
10247TIP3   OH230625   3.566   6.225   3.187
10247TIP3    H130626   3.520   6.157   3.235
10247TIP3    H230627   3.642   6.181   3.149
10248TIP3   OH230628   4.230   6.572   4.821
10248TIP3    H130629   4.241   6.502   4.886
10248TIP3    H230630   4.304   6.631   4.836
10249TIP3   OH230631   4.011   6.272   3.112
10249TIP3    H130632   4.042   6.207   3.175
10249TIP3    H230633   4.070   6.264   3.038
10250TIP3   OH230634   3.243   6.117   5.216
10250TIP3    H130635   3.259   6.023   5.226
10250TIP3    H230636   3.156   6.122   5.176
10251TIP3   OH230637   3.230   5.725   3.410
10251TIP3    H130638   3.281   5.701   3.488
10251TIP3    H230639   3.296   5.738   3.342
10252TIP3   OH230640   3.868   6.203   4.993
10252TIP3    H130641   3.821   6.224   4.912
10252TIP3    H230642   3.902   6.115   4.978
10253TIP3   OH230643   3.799   5.947   3.244
10253TIP3    H130644   3.777   5.958   3.337
10253TIP3    H230645   3.781   5.855   3.225
10254TIP3   OH230646   4.335   6.246   4.603
10254TIP3    H130647   4.414   6.275   4.556
10254TIP3    H230648   4.272   6.317   4.591
10255TIP3   OH230649   3.358   5.858   5.225
10255TIP3    H130650   3.433   5.864   5.164
10255TIP3    H230651   3.394   5.884   5.309
10256TIP3   OH230652   3.404   5.666   3.621
10256TIP3    H130653   3.384   5.637   3.710
10256TIP3    H230654   3.452   5.593   3.583
10257TIP3   OH230655   3.724   5.756   4.879
10257TIP3    H130656   3.637   5.793   4.889
10257TIP3    H230657   3.753   5.786   4.793
10258TIP3   OH230658   3.548   5.483   3.468
10258TIP3    H130659   3.518   5.486   3.377
10258TIP3    H230660   3.643   5.493   3.462
10259TIP3   OH230661   4.212   6.123   4.963
10259TIP3    H130662   4.282   6.083   4.910
10259TIP3    H230663   4.212   6.072   5.044
10260TIP3   OH230664   4.337   5.771   3.152
10260TIP3    H130665   4.326   5.730   3.066
10260TIP3    H230666   4.314   5.863   3.138
10261TIP3   OH230667   3.822   5.522   4.980
10261TIP3    H130668   3.822   5.453   4.913
10261TIP3    H230669   3.787   5.599   4.934
10262TIP3   OH230670   3.826   5.328   4.776
10262TIP3    H130671   3.851   5.366   4.691
10262TIP3    H230672   3.736   5.296   4.762
10263TIP3   OH230673   3.838   5.852   4.651
10263TIP3    H130674   3.924   5.893   4.643
10263TIP3    H230675   3.779   5.909   4.601
10264TIP3   OH230676   4.424   5.824   5.022
10264TIP3    H130677   4.482   5.748   5.024
10264TIP3    H230678   4.482   5.900   5.023
10265TIP3   OH230679   4.465   6.069   4.764
10265TIP3    H130680   4.409   6.130   4.715
10265TIP3    H230681   4.554   6.088   4.732
10266TIP3   OH230682   3.726   5.608   5.230
10266TIP3    H130683   3.649   5.554   5.251
10266TIP3    H230684   3.746   5.586   5.139
10267TIP3   OH230685   3.968   5.112   4.877
10267TIP3    H130686   3.926   5.192   4.847
10267TIP3    H230687   3.903   5.043   4.862
10268TIP3   OH230688   4.073   5.566   5.084
10268TIP3    H130689   4.057   5.548   5.177
10268TIP3    H230690   3.990   5.547   5.042
10269TIP3   OH230691   4.331   5.510   5.006
10269TIP3    H130692   4.239   5.525   5.027
10269TIP3    H230693   4.368   5.468   5.084
10270TIP3   OH230694   3.538   5.419   5.305
10270TIP3    H130695   3.546   5.336   5.259
10270TIP3    H230696   3.576   5.402   5.392
10271TIP3   OH230697   3.994   5.055   5.145
10271TIP3    H130698   3.988   4.959   5.146
10271TIP3    H230699   3.992   5.078   5.052
10272TIP3   OH230700   4.126   5.271   5.270
10272TIP3    H130701   4.083   5.199   5.223
10272TIP3    H230702   4.058   5.338   5.277
10273TIP3   OH230703   3.373   6.530   3.401
10273TIP3    H130704   3.462   6.506   3.373
10273TIP3    H230705   3.336   6.576   3.326
10274TIP3   OH230706   2.825   5.913   3.577
10274TIP3    H130707   2.920   5.923   3.577
10274TIP3    H230708   2.810   5.827   3.537
10275TIP3   OH230709   2.741   6.495   4.045
10275TIP3    H130710   2.676   6.441   4.001
10275TIP3    H230711   2.785   6.435   4.105
10276TIP3   OH230712   2.888   6.326   4.211
10276TIP3    H130713   2.879   6.260   4.279
10276TIP3    H230714   2.940   6.395   4.251
10277TIP3   OH230715   4.621   6.732   4.025
10277TIP3    H130716   4.640   6.754   4.116
10277TIP3    H230717   4.677   6.791   3.974
10278TIP3   OH230718   4.647   6.759   4.304
10278TIP3    H130719   4.597   6.677   4.301
10278TIP3    H230720   4.714   6.744   4.370
10279TIP3   OH230721   4.695   6.450   4.879
10279TIP3    H130722   4.621   6.463   4.939
10279TIP3    H230723   4.742   6.533   4.880
10280TIP3   OH230724   4.522   5.978   3.477
10280TIP3    H130725   4.578   6.050   3.450
10280TIP3    H230726   4.566   5.941   3.553
10281TIP3   OH230727   4.649   5.836   3.681
10281TIP3    H130728   4.582   5.799   3.738
10281TIP3    H230729   4.713   5.874   3.740
10282TIP3   OH230730   4.688   6.239   4.116
10282TIP3    H130731   4.741   6.171   4.074
10282TIP3    H230732   4.692   6.313   4.055
10283TIP3   OH230733   4.495   6.527   4.302
10283TIP3    H130734   4.429   6.571   4.355
10283TIP3    H230735   4.446   6.486   4.231
10284TIP3   OH230736   4.548   5.751   3.326
10284TIP3    H130737   4.475   5.752   3.265
10284TIP3    H230738   4.536   5.829   3.380
10285TIP3   OH230739   4.406   5.396   3.257
10285TIP3    H130740   4.357   5.432   3.183
10285TIP3    H230741   4.399   5.301   3.248
10286TIP3   OH230742   4.442   5.698   3.815
10286TIP3    H130743   4.447   5.603   3.801
10286TIP3    H230744   4.423   5.708   3.908
10287TIP3   OH230745   3.058   5.760   4.590
10287TIP3    H130746   3.049   5.730   4.500
10287TIP3    H230747   3.152   5.756   4.607
10288TIP3   OH230748   4.725   6.117   4.677
10288TIP3    H130749   4.789   6.049   4.658
10288TIP3    H230750   4.750   6.190   4.620
10289TIP3   OH230751   4.891   5.899   4.672
10289TIP3    H130752   4.821   5.853   4.718
10289TIP3    H230753   4.970   5.847   4.689
10290TIP3   OH230754   4.366   5.124   3.226
10290TIP3    H130755   4.430   5.100   3.294
10290TIP3    H230756   4.283   5.089   3.259
10291TIP3   OH230757   4.432   5.418   3.701
10291TIP3    H130758   4.478   5.336   3.715
10291TIP3    H230759   4.473   5.456   3.623
10292TIP3   OH230760   4.586   5.585   4.231
10292TIP3    H130761   4.666   5.603   4.182
10292TIP3    H230762   4.601   5.626   4.316
10293TIP3   OH230763   4.659   5.735   4.459
10293TIP3    H130764   4.587   5.762   4.516
10293TIP3    H230765   4.689   5.816   4.418
10294TIP3   OH230766   3.271   5.430   5.228
10294TIP3    H130767   3.362   5.441   5.256
10294TIP3    H230768   3.244   5.346   5.264
10295TIP3   OH230769   5.147   5.367   4.923
10295TIP3    H130770   5.106   5.296   4.972
10295TIP3    H230771   5.076   5.405   4.872
10296TIP3   OH230772   4.550   5.170   3.756
10296TIP3    H130773   4.594   5.156   3.840
10296TIP3    H230774   4.488   5.098   3.750
10297TIP3   OH230775   3.252   5.158   4.587
10297TIP3    H130776   3.306   5.080   4.581
10297TIP3    H230777   3.311   5.230   4.566
10298TIP3   OH230778   3.027   5.423   4.636
10298TIP3    H130779   3.082   5.413   4.558
10298TIP3    H230780   3.051   5.508   4.672
10299TIP3   OH230781   4.947   5.438   4.755
10299TIP3    H130782   4.858   5.468   4.741
10299TIP3    H230783   4.944   5.344   4.736
10300TIP3   OH230784   4.589   5.082   3.389
10300TIP3    H130785   4.638   5.021   3.334
10300TIP3    H230786   4.645   5.159   3.395
10301TIP3   OH230787   3.022   4.929   4.145
10301TIP3    H130788   2.937   4.917   4.188
10301TIP3    H230789   3.003   4.981   4.068
10302TIP3   OH230790   4.176   6.649   3.658
10302TIP3    H130791   4.235   6.639   3.583
10302TIP3    H230792   4.216   6.716   3.712
10303TIP3   OH230793   3.209   4.928   4.987
10303TIP3    H130794   3.166   4.938   5.072
10303TIP3    H230795   3.173   5.000   4.934
10304TIP3   OH230796   3.283   6.404   5.031
10304TIP3    H130797   3.189   6.415   5.024
10304TIP3    H230798   3.303   6.423   5.123
10305TIP3   OH230799   3.490   6.488   4.593
10305TIP3    H130800   3.438   6.562   4.563
10305TIP3    H230801   3.575   6.498   4.548
10306TIP3   OH230802   3.886   6.717   4.727
10306TIP3    H130803   3.922   6.710   4.815
10306TIP3    H230804   3.949   6.771   4.679
10307TIP3   OH230805   4.079   6.871   4.604
10307TIP3    H130806   4.143   6.817   4.557
10307TIP3    H230807   4.131   6.929   4.659
10308TIP3   OH230808   4.920   5.166   4.707
10308TIP3    H130809   4.838   5.137   4.667
10308TIP3    H230810   4.953   5.089   4.753
10309TIP3   OH230811   3.143   6.711   4.635
10309TIP3    H130812   3.052   6.729   4.611
10309TIP3    H230813   3.162   6.772   4.706
10310TIP3   OH230814   3.377   6.718   4.490
10310TIP3    H130815   3.294   6.718   4.537
10310TIP3    H230816   3.354   6.743   4.401
10311TIP3   OH230817   3.791   6.736   4.280
10311TIP3    H130818   3.717   6.749   4.221
10311TIP3    H230819   3.802   6.821   4.324
10312TIP3   OH230820   4.055   6.668   4.322
10312TIP3    H130821   3.964   6.691   4.306
10312TIP3    H230822   4.105   6.739   4.281
10313TIP3   OH230823   4.258   6.843   4.232
10313TIP3    H130824   4.256   6.930   4.193
10313TIP3    H230825   4.287   6.785   4.161
10314TIP3   OH230826   3.063   6.504   4.344
10314TIP3    H130827   3.078   6.481   4.435
10314TIP3    H230828   3.138   6.468   4.297
10315TIP3   OH230829   3.269   6.385   4.209
10315TIP3    H130830   3.278   6.301   4.253
10315TIP3    H230831   3.355   6.427   4.219
10316TIP3   OH230832   3.534   6.473   4.240
10316TIP3    H130833   3.555   6.381   4.225
10316TIP3    H230834   3.587   6.498   4.315
10317TIP3   OH230835   4.101   5.128   4.312
10317TIP3    H130836   4.071   5.053   4.364
10317TIP3    H230837   4.170   5.092   4.255
10318TIP3   OH230838   4.601   5.033   4.220
10318TIP3    H130839   4.638   5.082   4.147
10318TIP3    H230840   4.507   5.053   4.217
10319TIP3   OH230841   4.708   5.116   3.980
10319TIP3    H130842   4.776   5.055   3.953
10319TIP3    H230843   4.746   5.203   3.966
10320TIP3   OH230844   3.326   4.822   4.309
10320TIP3    H130845   3.237   4.789   4.320
10320TIP3    H230846   3.380   4.744   4.307
10321TIP3   OH230847   3.153   4.736   3.980
10321TIP3    H130848   3.178   4.785   3.901
10321TIP3    H230849   3.115   4.803   4.037
10322TIP3   OH230850   3.809   4.864   4.212
10322TIP3    H130851   3.856   4.908   4.142
10322TIP3    H230852   3.853   4.892   4.292
10323TIP3   OH230853   4.318   5.025   4.168
10323TIP3    H130854   4.338   4.988   4.082
10323TIP3    H230855   4.311   4.950   4.226
10324TIP3   OH230856   4.364   4.959   3.763
10324TIP3    H130857   4.284   5.006   3.787
10324TIP3    H230858   4.354   4.872   3.802
10325TIP3   OH230859   2.826   6.304   3.743
10325TIP3    H130860   2.740   6.271   3.715
10325TIP3    H230861   2.829   6.393   3.708
10326TIP3   OH230862   3.259   4.862   3.740
10326TIP3    H130863   3.305   4.801   3.683
10326TIP3    H230864   3.328   4.918   3.776
10327TIP3   OH230865   3.742   5.060   3.835
10327TIP3    H130866   3.802   5.007   3.888
10327TIP3    H230867   3.757   5.150   3.865
10328TIP3   OH230868   3.626   6.451   3.330
10328TIP3    H130869   3.710   6.478   3.292
10328TIP3    H230870   3.598   6.378   3.274
10329TIP3   OH230871   4.332   6.600   3.432
10329TIP3    H130872   4.324   6.505   3.426
10329TIP3    H230873   4.287   6.632   3.354
10330TIP3   OH230874   3.535   5.169   5.190
10330TIP3    H130875   3.470   5.121   5.241
10330TIP3    H230876   3.619   5.140   5.223
10331TIP3   OH230877   3.781   5.105   5.319
10331TIP3    H130878   3.852   5.106   5.254
10331TIP3    H230879   3.795   5.025   5.369
10332TIP3   OH230880   2.938   6.299   3.392
10332TIP3    H130881   2.939   6.307   3.487
10332TIP3    H230882   3.018   6.251   3.371
10333TIP3   OH230883   4.545   6.736   4.620
10333TIP3    H130884   4.469   6.707   4.570
10333TIP3    H230885   4.533   6.831   4.629
10334TIP3   OH230886   5.829   6.134   3.350
10334TIP3    H130887   5.795   6.219   3.322
10334TIP3    H230888   5.757   6.073   3.332
10335TIP3   OH230889   5.823   6.110   3.782
10335TIP3    H130890   5.874   6.093   3.861
10335TIP3    H230891   5.777   6.028   3.764
10336TIP3   OH230892   5.118   5.978   4.129
10336TIP3    H130893   5.156   5.928   4.201
10336TIP3    H230894   5.193   6.005   4.077
10337TIP3   OH230895   6.087   6.413   3.460
10337TIP3    H130896   6.075   6.339   3.520
10337TIP3    H230897   6.108   6.487   3.517
10338TIP3   OH230898   5.115   6.398   3.800
10338TIP3    H130899   5.094   6.305   3.814
10338TIP3    H230900   5.210   6.402   3.804
10339TIP3   OH230901   4.794   5.609   3.594
10339TIP3    H130902   4.756   5.692   3.621
10339TIP3    H230903   4.720   5.560   3.557
10340TIP3   OH230904   4.876   5.927   3.824
10340TIP3    H130905   4.925   5.848   3.849
10340TIP3    H230906   4.943   5.992   3.803
10341TIP3   OH230907   5.754   6.859   3.476
10341TIP3    H130908   5.775   6.790   3.413
10341TIP3    H230909   5.713   6.813   3.549
10342TIP3   OH230910   5.632   6.333   3.784
10342TIP3    H130911   5.673   6.252   3.755
10342TIP3    H230912   5.703   6.382   3.826
10343TIP3   OH230913   6.667   5.661   3.781
10343TIP3    H130914   6.674   5.749   3.819
10343TIP3    H230915   6.711   5.668   3.697
10344TIP3   OH230916   6.037   5.824   3.824
10344TIP3    H130917   6.075   5.742   3.854
10344TIP3    H230918   5.999   5.804   3.739
10345TIP3   OH230919   5.383   5.484   3.784
10345TIP3    H130920   5.363   5.556   3.725
10345TIP3    H230921   5.329   5.412   3.753
10346TIP3   OH230922   6.086   5.583   3.416
10346TIP3    H130923   6.148   5.580   3.489
10346TIP3    H230924   6.137   5.620   3.344
10347TIP3   OH230925   5.011   5.702   3.911
10347TIP3    H130926   5.094   5.685   3.955
10347TIP3    H230927   5.014   5.649   3.831
10348TIP3   OH230928   5.433   5.899   3.726
10348TIP3    H130929   5.527   5.883   3.734
10348TIP3    H230930   5.397   5.817   3.694
10349TIP3   OH230931   6.701   5.890   3.951
10349TIP3    H130932   6.610   5.919   3.944
10349TIP3    H230933   6.722   5.898   4.044
10350TIP3   OH230934   5.364   5.493   4.234
10350TIP3    H130935   5.312   5.531   4.163
10350TIP3    H230936   5.312   5.508   4.313
10351TIP3   OH230937   5.725   6.351   3.211
10351TIP3    H130938   5.681   6.317   3.133
10351TIP3    H230939   5.672   6.427   3.237
10352TIP3   OH230940   5.466   6.263   3.996
10352TIP3    H130941   5.413   6.334   4.032
10352TIP3    H230942   5.514   6.303   3.924
10353TIP3   OH230943   6.242   5.620   3.635
10353TIP3    H130944   6.207   5.593   3.720
10353TIP3    H230945   6.301   5.693   3.656
10354TIP3   OH230946   5.257   5.601   4.003
10354TIP3    H130947   5.313   5.675   4.026
10354TIP3    H230948   5.304   5.556   3.932
10355TIP3   OH230949   5.308   6.464   4.102
10355TIP3    H130950   5.294   6.553   4.071
10355TIP3    H230951   5.231   6.444   4.156
10356TIP3   OH230952   4.689   6.173   3.360
10356TIP3    H130953   4.650   6.196   3.276
10356TIP3    H230954   4.712   6.257   3.400
10357TIP3   OH230955   6.100   6.663   3.595
10357TIP3    H130956   6.029   6.658   3.659
10357TIP3    H230957   6.060   6.700   3.517
10358TIP3   OH230958   6.450   5.605   3.947
10358TIP3    H130959   6.367   5.579   3.906
10358TIP3    H230960   6.511   5.611   3.874
10359TIP3   OH230961   5.692   5.177   3.964
10359TIP3    H130962   5.682   5.086   3.992
10359TIP3    H230963   5.617   5.223   4.002
10360TIP3   OH230964   5.844   6.722   3.246
10360TIP3    H130965   5.896   6.642   3.237
10360TIP3    H230966   5.905   6.792   3.226
10361TIP3   OH230967   5.972   6.484   3.220
10361TIP3    H130968   5.899   6.424   3.210
10361TIP3    H230969   6.021   6.451   3.295
10362TIP3   OH230970   6.348   6.579   3.929
10362TIP3    H130971   6.334   6.501   3.876
10362TIP3    H230972   6.336   6.652   3.869
10363TIP3   OH230973   5.652   5.965   3.214
10363TIP3    H130974   5.567   6.006   3.195
10363TIP3    H230975   5.697   5.962   3.130
10364TIP3   OH230976   5.616   5.777   2.897
10364TIP3    H130977   5.681   5.823   2.949
10364TIP3    H230978   5.665   5.707   2.853
10365TIP3   OH230979   6.539   6.229   3.812
10365TIP3    H130980   6.456   6.275   3.810
10365TIP3    H230981   6.572   6.235   3.722
10366TIP3   OH230982   6.013   6.056   3.165
10366TIP3    H130983   5.959   6.086   3.237
10366TIP3    H230984   6.095   6.028   3.206
10367TIP3   OH230985   6.238   6.077   4.124
10367TIP3    H130986   6.237   6.161   4.169
10367TIP3    H230987   6.155   6.075   4.076
10368TIP3   OH230988   5.239   6.033   3.572
10368TIP3    H130989   5.202   5.970   3.510
10368TIP3    H230990   5.311   5.985   3.614
10369TIP3   OH230991   5.383   6.455   3.715
10369TIP3    H130992   5.359   6.437   3.625
10369TIP3    H230993   5.469   6.415   3.726
10370TIP3   OH230994   5.331   6.029   3.950
10370TIP3    H130995   5.371   5.992   3.872
10370TIP3    H230996   5.380   6.109   3.967
10371TIP3   OH230997   5.906   6.655   3.784
10371TIP3    H130998   5.920   6.698   3.868
10371TIP3    H230999   5.880   6.566   3.807
10372TIP3   OH231000   5.510   6.548   4.277
10372TIP3    H131001   5.456   6.613   4.322
10372TIP3    H231002   5.448   6.501   4.220
10373TIP3   OH231003   5.839   5.915   3.004
10373TIP3    H131004   5.900   5.972   3.052
10373TIP3    H231005   5.869   5.918   2.914
10374TIP3   OH231006   5.266   6.118   4.409
10374TIP3    H131007   5.270   6.212   4.431
10374TIP3    H231008   5.173   6.099   4.404
10375TIP3   OH231009   5.598   6.594   3.254
10375TIP3    H131010   5.677   6.647   3.257
10375TIP3    H231011   5.534   6.649   3.209
10376TIP3   OH231012   5.316   6.736   4.335
10376TIP3    H131013   5.283   6.737   4.246
10376TIP3    H231014   5.238   6.726   4.390
10377TIP3   OH231015   6.349   5.129   3.068
10377TIP3    H131016   6.276   5.161   3.121
10377TIP3    H231017   6.363   5.198   3.003
10378TIP3   OH231018   5.110   5.873   3.374
10378TIP3    H131019   5.030   5.919   3.347
10378TIP3    H231020   5.080   5.785   3.396
10379TIP3   OH231021   6.180   6.516   2.617
10379TIP3    H131022   6.171   6.609   2.596
10379TIP3    H231023   6.270   6.494   2.593
10380TIP3   OH231024   4.890   6.279   4.311
10380TIP3    H131025   4.820   6.259   4.249
10380TIP3    H231026   4.925   6.194   4.336
10381TIP3   OH231027   4.733   6.479   3.968
10381TIP3    H131028   4.821   6.505   3.995
10381TIP3    H231029   4.677   6.552   3.994
10382TIP3   OH231030   6.592   6.911   4.002
10382TIP3    H131031   6.591   6.818   4.026
10382TIP3    H231032   6.507   6.944   4.029
10383TIP3   OH231033   5.686   6.702   4.133
10383TIP3    H131034   5.684   6.791   4.169
10383TIP3    H231035   5.624   6.653   4.186
10384TIP3   OH231036   5.478   6.810   3.087
10384TIP3    H131037   5.423   6.790   3.011
10384TIP3    H231038   5.443   6.893   3.121
10385TIP3   OH231039   4.911   6.662   3.468
10385TIP3    H131040   4.955   6.654   3.553
10385TIP3    H231041   4.862   6.580   3.459
10386TIP3   OH231042   5.680   6.743   2.717
10386TIP3    H131043   5.729   6.668   2.684
10386TIP3    H231044   5.713   6.755   2.807
10387TIP3   OH231045   5.733   6.785   2.989
10387TIP3    H131046   5.643   6.792   3.023
10387TIP3    H231047   5.782   6.746   3.061
10388TIP3   OH231048   6.495   6.031   4.268
10388TIP3    H131049   6.406   6.047   4.236
10388TIP3    H231050   6.508   5.936   4.257
10389TIP3   OH231051   5.091   6.463   4.271
10389TIP3    H131052   5.141   6.457   4.353
10389TIP3    H231053   5.019   6.402   4.283
10390TIP3   OH231054   5.464   5.280   4.085
10390TIP3    H131055   5.380   5.249   4.049
10390TIP3    H231056   5.442   5.361   4.129
10391TIP3   OH231057   6.010   5.337   4.280
10391TIP3    H131058   6.043   5.261   4.328
10391TIP3    H231059   5.921   5.349   4.313
10392TIP3   OH231060   6.245   5.813   4.224
10392TIP3    H131061   6.205   5.806   4.311
10392TIP3    H231062   6.226   5.902   4.196
10393TIP3   OH231063   5.920   5.895   2.743
10393TIP3    H131064   5.872   5.895   2.661
10393TIP3    H231065   6.002   5.941   2.723
10394TIP3   OH231066   5.627   5.312   3.062
10394TIP3    H131067   5.592   5.320   3.151
10394TIP3    H231068   5.590   5.231   3.028
10395TIP3   OH231069   5.411   5.809   4.101
10395TIP3    H131070   5.367   5.816   4.185
10395TIP3    H231071   5.390   5.890   4.056
10396TIP3   OH231072   5.290   5.685   3.621
10396TIP3    H131073   5.202   5.660   3.647
10396TIP3    H231074   5.300   5.650   3.532
10397TIP3   OH231075   5.773   5.759   3.351
10397TIP3    H131076   5.727   5.833   3.311
10397TIP3    H231077   5.830   5.726   3.281
10398TIP3   OH231078   5.961   6.012   4.418
10398TIP3    H131079   5.938   5.946   4.482
10398TIP3    H231080   6.051   6.036   4.439
10399TIP3   OH231081   5.942   5.769   3.572
10399TIP3    H131082   5.873   5.788   3.509
10399TIP3    H231083   5.990   5.695   3.535
10400TIP3   OH231084   5.251   5.822   4.324
10400TIP3    H131085   5.267   5.886   4.393
10400TIP3    H231086   5.233   5.740   4.371
10401TIP3   OH231087   5.294   5.295   3.037
10401TIP3    H131088   5.286   5.297   3.132
10401TIP3    H231089   5.215   5.338   3.005
10402TIP3   OH231090   4.838   5.338   3.900
10402TIP3    H131091   4.908   5.378   3.952
10402TIP3    H231092   4.878   5.320   3.815
10403TIP3   OH231093   4.744   5.314   3.404
10403TIP3    H131094   4.790   5.349   3.328
10403TIP3    H231095   4.681   5.382   3.428
10404TIP3   OH231096   5.985   6.027   3.997
10404TIP3    H131097   6.012   5.961   3.933
10404TIP3    H231098   5.945   5.976   4.068
10405TIP3   OH231099   5.650   5.481   3.671
10405TIP3    H131100   5.574   5.477   3.729
10405TIP3    H231101   5.724   5.460   3.727
10406TIP3   OH231102   5.052   5.558   3.680
10406TIP3    H131103   4.965   5.562   3.642
10406TIP3    H231104   5.081   5.468   3.665
10407TIP3   OH231105   5.304   5.560   3.376
10407TIP3    H131106   5.399   5.572   3.367
10407TIP3    H231107   5.269   5.578   3.288
10408TIP3   OH231108   6.125   5.565   3.884
10408TIP3    H131109   6.107   5.578   3.977
10408TIP3    H231110   6.072   5.490   3.859
10409TIP3   OH231111   5.195   5.586   3.125
10409TIP3    H131112   5.132   5.535   3.074
10409TIP3    H231113   5.249   5.630   3.060
10410TIP3   OH231114   6.309   7.270   4.120
10410TIP3    H131115   6.314   7.281   4.025
10410TIP3    H231116   6.390   7.309   4.153
10411TIP3   OH231117   5.243   6.381   4.510
10411TIP3    H131118   5.325   6.394   4.558
10411TIP3    H231119   5.174   6.398   4.574
10412TIP3   OH231120   5.705   5.846   3.777
10412TIP3    H131121   5.770   5.792   3.731
10412TIP3    H231122   5.702   5.808   3.866
10413TIP3   OH231123   5.194   5.309   3.664
10413TIP3    H131124   5.165   5.232   3.713
10413TIP3    H231125   5.221   5.274   3.579
10414TIP3   OH231126   5.679   5.755   4.042
10414TIP3    H131127   5.594   5.790   4.069
10414TIP3    H231128   5.742   5.803   4.096
10415TIP3   OH231129   5.412   6.095   3.155
10415TIP3    H131130   5.337   6.040   3.130
10415TIP3    H231131   5.384   6.139   3.236
10416TIP3   OH231132   6.303   6.364   3.758
10416TIP3    H131133   6.338   6.409   3.681
10416TIP3    H231134   6.226   6.317   3.726
10417TIP3   OH231135   5.878   5.419   3.059
10417TIP3    H131136   5.786   5.395   3.059
10417TIP3    H231137   5.879   5.513   3.075
10418TIP3   OH231138   5.839   6.439   4.188
10418TIP3    H131139   5.888   6.421   4.268
10418TIP3    H231140   5.779   6.509   4.211
10419TIP3   OH231141   5.935   5.683   3.133
10419TIP3    H131142   6.029   5.686   3.146
10419TIP3    H231143   5.914   5.761   3.083
10420TIP3   OH231144   5.100   6.107   3.802
10420TIP3    H131145   5.140   6.091   3.716
10420TIP3    H231146   5.167   6.079   3.865
10421TIP3   OH231147   5.563   6.260   2.999
10421TIP3    H131148   5.514   6.343   2.997
10421TIP3    H231149   5.508   6.202   3.052
10422TIP3   OH231150   4.994   6.055   4.445
10422TIP3    H131151   5.011   6.044   4.538
10422TIP3    H231152   4.919   5.998   4.427
10423TIP3   OH231153   5.732   6.172   4.458
10423TIP3    H131154   5.661   6.112   4.435
10423TIP3    H231155   5.811   6.126   4.432
10424TIP3   OH231156   5.950   6.721   4.053
10424TIP3    H131157   5.859   6.702   4.074
10424TIP3    H231158   5.988   6.753   4.136
10425TIP3   OH231159   6.345   5.773   2.948
10425TIP3    H131160   6.289   5.728   2.884
10425TIP3    H231161   6.351   5.862   2.915
10426TIP3   OH231162   6.598   6.623   4.036
10426TIP3    H131163   6.504   6.618   4.023
10426TIP3    H231164   6.635   6.603   3.950
10427TIP3   OH231165   6.095   6.580   2.885
10427TIP3    H131166   6.065   6.511   2.944
10427TIP3    H231167   6.113   6.535   2.802
10428TIP3   OH231168   6.075   6.214   3.658
10428TIP3    H131169   5.986   6.191   3.687
10428TIP3    H231170   6.110   6.132   3.624
10429TIP3   OH231171   5.228   6.458   3.477
10429TIP3    H131172   5.217   6.533   3.418
10429TIP3    H231173   5.146   6.455   3.527
10430TIP3   OH231174   4.786   5.741   3.188
10430TIP3    H131175   4.830   5.823   3.212
10430TIP3    H231176   4.706   5.740   3.240
10431TIP3   OH231177   5.307   6.216   3.372
10431TIP3    H131178   5.289   6.304   3.405
10431TIP3    H231179   5.285   6.158   3.445
10432TIP3   OH231180   5.513   6.775   3.925
10432TIP3    H131181   5.557   6.839   3.869
10432TIP3    H231182   5.581   6.743   3.984
10433TIP3   OH231183   5.144   6.679   3.323
10433TIP3    H131184   5.058   6.685   3.363
10433TIP3    H231185   5.180   6.767   3.329
10434TIP3   OH231186   5.865   6.414   3.914
10434TIP3    H131187   5.854   6.424   4.009
10434TIP3    H231188   5.938   6.353   3.904
10435TIP3   OH231189   5.861   6.320   2.765
10435TIP3    H131190   5.911   6.295   2.842
10435TIP3    H231191   5.778   6.274   2.774
10436TIP3   OH231192   6.094   6.924   3.935
10436TIP3    H131193   6.051   6.853   3.982
10436TIP3    H231194   6.027   6.959   3.876
10437TIP3   OH231195   6.163   6.788   2.570
10437TIP3    H131196   6.168   6.845   2.493
10437TIP3    H231197   6.096   6.828   2.625
10438TIP3   OH231198   5.201   5.567   4.447
10438TIP3    H131199   5.106   5.575   4.452
10438TIP3    H231200   5.226   5.524   4.529
10439TIP3   OH231201   6.039   6.245   2.961
10439TIP3    H131202   6.020   6.189   3.036
10439TIP3    H231203   6.134   6.249   2.957
10440TIP3   OH231204   4.942   6.660   4.093
10440TIP3    H131205   4.995   6.598   4.144
10440TIP3    H231206   4.952   6.743   4.139
10441TIP3   OH231207   5.209   6.284   2.788
10441TIP3    H131208   5.219   6.193   2.762
10441TIP3    H231209   5.195   6.281   2.883
10442TIP3   OH231210   5.149   6.303   3.060
10442TIP3    H131211   5.204   6.277   3.134
10442TIP3    H231212   5.148   6.399   3.064
10443TIP3   OH231213   4.881   5.992   3.268
10443TIP3    H131214   4.818   6.041   3.321
10443TIP3    H231215   4.901   6.050   3.195
10444TIP3   OH231216   6.062   5.604   4.153
10444TIP3    H131217   6.136   5.651   4.191
10444TIP3    H231218   6.055   5.524   4.205
10445TIP3   OH231219   5.939   5.366   3.328
10445TIP3    H131220   5.918   5.386   3.236
10445TIP3    H231221   5.982   5.446   3.360
10446TIP3   OH231222   5.421   6.491   2.994
10446TIP3    H131223   5.336   6.512   3.032
10446TIP3    H231224   5.442   6.566   2.938
10447TIP3   OH231225   5.582   5.572   3.419
10447TIP3    H131226   5.646   5.639   3.396
10447TIP3    H231227   5.603   5.549   3.510
10448TIP3   OH231228   5.894   5.854   4.193
10448TIP3    H131229   5.917   5.899   4.274
10448TIP3    H231230   5.944   5.772   4.196
10449TIP3   OH231231   5.753   5.264   3.505
10449TIP3    H131232   5.739   5.338   3.564
10449TIP3    H231233   5.823   5.292   3.446
10450TIP3   OH231234   5.170   6.576   3.070
10450TIP3    H131235   5.150   6.649   3.011
10450TIP3    H231236   5.159   6.613   3.158
10451TIP3   OH231237   5.267   5.287   3.316
10451TIP3    H131238   5.254   5.377   3.345
10451TIP3    H231239   5.361   5.271   3.323
10452TIP3   OH231240   6.505   5.760   4.165
10452TIP3    H131241   6.414   5.770   4.193
10452TIP3    H231242   6.500   5.705   4.086
10453TIP3   OH231243   6.164   5.961   3.567
10453TIP3    H131244   6.090   5.903   3.582
10453TIP3    H231245   6.235   5.923   3.621
10454TIP3   OH231246   4.906   6.167   3.050
10454TIP3    H131247   4.977   6.230   3.060
10454TIP3    H231248   4.938   6.104   2.986
10455TIP3   OH231249   4.809   5.462   3.182
10455TIP3    H131250   4.823   5.557   3.192
10455TIP3    H231251   4.742   5.454   3.115
10456TIP3   OH231252   5.205   5.193   4.035
10456TIP3    H131253   5.179   5.160   3.949
10456TIP3    H231254   5.196   5.117   4.093
10457TIP3   OH231255   4.735   6.441   3.446
10457TIP3    H131256   4.694   6.477   3.524
10457TIP3    H231257   4.691   6.484   3.373
10458TIP3   OH231258   4.933   6.970   4.521
10458TIP3    H131259   5.006   6.974   4.583
10458TIP3    H231260   4.925   6.877   4.499
10459TIP3   OH231261   5.403   6.951   4.491
10459TIP3    H131262   5.393   6.908   4.576
10459TIP3    H231263   5.392   6.881   4.427
10460TIP3   OH231264   5.362   6.483   2.672
10460TIP3    H131265   5.315   6.415   2.720
10460TIP3    H231266   5.436   6.437   2.633
10461TIP3   OH231267   6.058   6.822   4.279
10461TIP3    H131268   6.054   6.759   4.350
10461TIP3    H231269   6.128   6.883   4.304
10462TIP3   OH231270   5.805   6.530   2.599
10462TIP3    H131271   5.837   6.464   2.660
10462TIP3    H231272   5.862   6.521   2.523
10463TIP3   OH231273   5.039   6.386   4.701
10463TIP3    H131274   5.059   6.294   4.712
10463TIP3    H231275   4.950   6.387   4.664
10464TIP3   OH231276   5.029   5.980   2.894
10464TIP3    H131277   5.079   5.954   2.972
10464TIP3    H231278   5.096   5.993   2.827
10465TIP3   OH231279   5.663   6.444   4.482
10465TIP3    H131280   5.613   6.467   4.403
10465TIP3    H231281   5.694   6.355   4.465
10466TIP3   OH231282   5.609   6.200   2.736
10466TIP3    H131283   5.583   6.212   2.827
10466TIP3    H231284   5.587   6.109   2.716
10467TIP3   OH231285   6.139   6.493   4.091
10467TIP3    H131286   6.210   6.534   4.042
10467TIP3    H231287   6.065   6.553   4.081
10468TIP3   OH231288   5.151   6.124   4.698
10468TIP3    H131289   5.231   6.129   4.646
10468TIP3    H231290   5.179   6.141   4.787
10469TIP3   OH231291   5.200   5.921   3.108
10469TIP3    H131292   5.179   5.893   3.197
10469TIP3    H231293   5.248   5.848   3.070
10470TIP3   OH231294   5.519   6.005   4.366
10470TIP3    H131295   5.435   6.050   4.377
10470TIP3    H231296   5.549   6.031   4.279
10471TIP3   OH231297   5.344   5.739   2.953
10471TIP3    H131298   5.315   5.743   2.862
10471TIP3    H231299   5.440   5.749   2.948
10472TIP3   OH231300   6.009   6.390   4.433
10472TIP3    H131301   6.087   6.353   4.392
10472TIP3    H231302   6.001   6.343   4.516
10473TIP3   OH231303   6.136   6.029   2.626
10473TIP3    H131304   6.123   5.987   2.541
10473TIP3    H231305   6.112   6.120   2.612
10474TIP3   OH231306   5.624   5.775   4.473
10474TIP3    H131307   5.625   5.705   4.408
10474TIP3    H231308   5.589   5.851   4.427
10475TIP3   OH231309   5.623   5.583   4.268
10475TIP3    H131310   5.650   5.618   4.184
10475TIP3    H231311   5.533   5.553   4.254
10476TIP3   OH231312   5.631   6.090   4.134
10476TIP3    H131313   5.720   6.124   4.127
10476TIP3    H231314   5.577   6.154   4.086
10477TIP3   OH231315   6.216   6.072   4.522
10477TIP3    H131316   6.247   6.005   4.583
10477TIP3    H231317   6.289   6.134   4.515
10478TIP3   OH231318   6.271   6.323   4.255
10478TIP3    H131319   6.217   6.383   4.204
10478TIP3    H231320   6.360   6.339   4.224
10479TIP3   OH231321   5.516   5.861   4.718
10479TIP3    H131322   5.445   5.801   4.738
10479TIP3    H231323   5.543   5.838   4.629
10480TIP3   OH231324   5.746   5.351   4.366
10480TIP3    H131325   5.709   5.435   4.338
10480TIP3    H231326   5.672   5.291   4.365
10481TIP3   OH231327   5.880   5.806   4.580
10481TIP3    H131328   5.866   5.791   4.673
10481TIP3    H231329   5.795   5.789   4.540
10482TIP3   OH231330   6.129   5.748   4.459
10482TIP3    H131331   6.050   5.754   4.512
10482TIP3    H231332   6.197   5.716   4.518
10483TIP3   OH231333   6.375   5.687   4.616
10483TIP3    H131334   6.383   5.620   4.683
10483TIP3    H231335   6.348   5.766   4.663
10484TIP3   OH231336   5.334   5.670   4.801
10484TIP3    H131337   5.333   5.585   4.756
10484TIP3    H231338   5.374   5.651   4.886
10485TIP3   OH231339   5.865   5.312   4.614
10485TIP3    H131340   5.855   5.218   4.628
10485TIP3    H231341   5.827   5.328   4.527
10486TIP3   OH231342   5.928   5.526   4.775
10486TIP3    H131343   5.908   5.454   4.715
10486TIP3    H231344   5.851   5.583   4.770
10487TIP3   OH231345   5.171   6.787   2.889
10487TIP3    H131346   5.259   6.763   2.858
10487TIP3    H231347   5.132   6.833   2.814
10488TIP3   OH231348   4.632   6.173   3.054
10488TIP3    H131349   4.727   6.181   3.058
10488TIP3    H231350   4.616   6.085   3.019
10489TIP3   OH231351   4.538   6.751   3.532
10489TIP3    H131352   4.473   6.697   3.487
10489TIP3    H231353   4.582   6.690   3.592
10490TIP3   OH231354   4.684   6.582   3.698
10490TIP3    H131355   4.675   6.513   3.764
10490TIP3    H231356   4.736   6.650   3.741
10491TIP3   OH231357   6.376   7.111   3.462
10491TIP3    H131358   6.382   7.086   3.555
10491TIP3    H231359   6.455   7.075   3.423
10492TIP3   OH231360   6.400   7.036   3.729
10492TIP3    H131361   6.359   6.950   3.737
10492TIP3    H231362   6.474   7.033   3.791
10493TIP3   OH231363   6.483   6.720   4.359
10493TIP3    H131364   6.411   6.730   4.422
10493TIP3    H231365   6.530   6.803   4.362
10494TIP3   OH231366   6.318   6.236   2.965
10494TIP3    H131367   6.378   6.306   2.939
10494TIP3    H231368   6.360   6.196   3.041
10495TIP3   OH231369   6.443   6.094   3.169
10495TIP3    H131370   6.376   6.055   3.225
10495TIP3    H231371   6.509   6.128   3.230
10496TIP3   OH231372   6.488   6.499   3.593
10496TIP3    H131373   6.540   6.424   3.564
10496TIP3    H231374   6.510   6.569   3.531
10497TIP3   OH231375   6.275   6.793   3.766
10497TIP3    H131376   6.210   6.832   3.824
10497TIP3    H231377   6.224   6.745   3.701
10498TIP3   OH231378   6.342   6.011   2.809
10498TIP3    H131379   6.270   6.012   2.746
10498TIP3    H231380   6.328   6.089   2.862
10499TIP3   OH231381   6.201   5.657   2.745
10499TIP3    H131382   6.150   5.685   2.669
10499TIP3    H231383   6.198   5.561   2.742
10500TIP3   OH231384   6.237   5.954   3.300
10500TIP3    H131385   6.240   5.859   3.287
10500TIP3    H231386   6.216   5.964   3.393
10501TIP3   OH231387   4.853   6.015   4.083
10501TIP3    H131388   4.844   5.984   3.993
10501TIP3    H231389   4.947   6.012   4.100
10502TIP3   OH231390   6.531   6.374   4.166
10502TIP3    H131391   6.597   6.306   4.151
10502TIP3    H231392   6.561   6.448   4.115
10503TIP3   OH231393   6.708   6.160   4.156
10503TIP3    H131394   6.633   6.117   4.196
10503TIP3    H231395   6.782   6.104   4.178
10504TIP3   OH231396   6.177   5.383   2.730
10504TIP3    H131397   6.244   5.346   2.787
10504TIP3    H231398   6.095   5.346   2.762
10505TIP3   OH231399   6.227   5.677   3.188
10505TIP3    H131400   6.274   5.596   3.203
10505TIP3    H231401   6.267   5.715   3.110
10506TIP3   OH231402   6.383   5.849   3.703
10506TIP3    H131403   6.466   5.868   3.660
10506TIP3    H231404   6.393   5.885   3.791
10507TIP3   OH231405   6.444   5.997   3.932
10507TIP3    H131406   6.376   6.020   3.996
10507TIP3    H231407   6.475   6.081   3.899
10508TIP3   OH231408   5.066   5.688   4.713
10508TIP3    H131409   5.155   5.694   4.747
10508TIP3    H231410   5.034   5.602   4.741
10509TIP3   OH231411   6.952   5.629   4.464
10509TIP3    H131412   6.949   5.539   4.496
10509TIP3    H231413   6.888   5.630   4.392
10510TIP3   OH231414   6.348   5.430   3.243
10510TIP3    H131415   6.392   5.419   3.328
10510TIP3    H231416   6.285   5.359   3.239
10511TIP3   OH231417   5.047   5.417   4.068
10511TIP3    H131418   5.100   5.338   4.067
10511TIP3    H231419   5.109   5.488   4.049
10512TIP3   OH231420   4.827   5.676   4.127
10512TIP3    H131421   4.879   5.668   4.047
10512TIP3    H231422   4.855   5.758   4.166
10513TIP3   OH231423   6.743   5.736   4.298
10513TIP3    H131424   6.705   5.764   4.381
10513TIP3    H231425   6.667   5.726   4.240
10514TIP3   OH231426   6.422   5.316   2.872
10514TIP3    H131427   6.506   5.270   2.874
10514TIP3    H231428   6.446   5.409   2.876
10515TIP3   OH231429   4.818   5.184   3.632
10515TIP3    H131430   4.734   5.171   3.675
10515TIP3    H231431   4.799   5.237   3.555
10516TIP3   OH231432   6.004   6.928   3.160
10516TIP3    H131433   6.042   6.897   3.078
10516TIP3    H231434   6.056   7.004   3.184
10517TIP3   OH231435   5.017   5.205   4.447
10517TIP3    H131436   4.981   5.207   4.536
10517TIP3    H231437   4.968   5.272   4.400
10518TIP3   OH231438   5.094   6.720   4.502
10518TIP3    H131439   5.015   6.679   4.539
10518TIP3    H231440   5.154   6.727   4.576
10519TIP3   OH231441   5.277   6.736   4.059
10519TIP3    H131442   5.228   6.814   4.032
10519TIP3    H231443   5.364   6.747   4.019
10520TIP3   OH231444   5.706   6.965   4.213
10520TIP3    H131445   5.739   6.952   4.302
10520TIP3    H231446   5.773   7.018   4.170
10521TIP3   OH231447   5.893   7.127   4.090
10521TIP3    H131448   5.963   7.074   4.051
10521TIP3    H231449   5.939   7.187   4.149
10522TIP3   OH231450   4.947   6.992   4.125
10522TIP3    H131451   4.854   7.009   4.107
10522TIP3    H231452   4.969   7.052   4.196
10523TIP3   OH231453   5.175   6.977   3.973
10523TIP3    H131454   5.094   6.982   4.024
10523TIP3    H231455   5.150   7.002   3.884
10524TIP3   OH231456   5.595   6.969   3.745
10524TIP3    H131457   5.516   6.987   3.694
10524TIP3    H231458   5.607   7.048   3.797
10525TIP3   OH231459   5.879   7.013   3.796
10525TIP3    H131460   5.817   6.964   3.742
10525TIP3    H231461   5.827   7.083   3.836
10526TIP3   OH231462   4.859   6.758   3.843
10526TIP3    H131463   4.882   6.732   3.932
10526TIP3    H231464   4.931   6.725   3.789
10527TIP3   OH231465   5.061   6.644   3.699
10527TIP3    H131466   5.071   6.559   3.741
10527TIP3    H231467   5.147   6.685   3.706
10528TIP3   OH231468   5.328   6.730   3.722
10528TIP3    H131469   5.347   6.637   3.708
10528TIP3    H231470   5.380   6.754   3.798
10529TIP3   OH231471   5.874   5.368   3.785
10529TIP3    H131472   5.860   5.304   3.855
10529TIP3    H231473   5.954   5.341   3.742
10530TIP3   OH231474   6.410   5.270   3.708
10530TIP3    H131475   6.442   5.327   3.637
10530TIP3    H231476   6.318   5.296   3.719
10531TIP3   OH231477   6.505   5.373   3.466
10531TIP3    H131478   6.572   5.311   3.437
10531TIP3    H231479   6.545   5.459   3.454
10532TIP3   OH231480   5.124   5.077   3.800
10532TIP3    H131481   5.035   5.042   3.812
10532TIP3    H231482   5.179   4.999   3.798
10533TIP3   OH231483   4.941   4.990   3.462
10533TIP3    H131484   4.969   5.041   3.386
10533TIP3    H231485   4.907   5.056   3.523
10534TIP3   OH231486   5.602   5.123   3.700
10534TIP3    H131487   5.652   5.170   3.634
10534TIP3    H231488   5.640   5.152   3.783
10535TIP3   OH231489   6.118   5.286   3.674
10535TIP3    H131490   6.127   5.255   3.583
10535TIP3    H231491   6.112   5.207   3.726
10536TIP3   OH231492   6.163   5.220   3.252
10536TIP3    H131493   6.083   5.267   3.275
10536TIP3    H231494   6.153   5.133   3.290
10537TIP3   OH231495   4.620   6.560   3.227
10537TIP3    H131496   4.535   6.526   3.198
10537TIP3    H231497   4.622   6.649   3.193
10538TIP3   OH231498   5.055   5.121   3.226
10538TIP3    H131499   5.100   5.057   3.171
10538TIP3    H231500   5.124   5.175   3.263
10539TIP3   OH231501   5.542   5.318   3.325
10539TIP3    H131502   5.601   5.267   3.381
10539TIP3    H231503   5.554   5.409   3.353
10540TIP3   OH231504   5.423   6.708   2.814
10540TIP3    H131505   5.507   6.736   2.777
10540TIP3    H231506   5.395   6.636   2.758
10541TIP3   OH231507   6.123   6.849   2.923
10541TIP3    H131508   6.116   6.754   2.915
10541TIP3    H231509   6.080   6.883   2.845
10542TIP3   OH231510   5.293   5.423   4.686
10542TIP3    H131511   5.252   5.389   4.765
10542TIP3    H231512   5.353   5.353   4.658
10543TIP3   OH231513   4.734   6.555   2.876
10543TIP3    H131514   4.733   6.561   2.972
10543TIP3    H231515   4.814   6.507   2.856
10544TIP3   OH231516   6.339   7.000   4.057
10544TIP3    H131517   6.255   6.969   4.025
10544TIP3    H231518   6.320   7.084   4.098
10545TIP3   OH231519   7.617   6.383   2.846
10545TIP3    H131520   7.578   6.468   2.825
10545TIP3    H231521   7.549   6.320   2.824
10546TIP3   OH231522   7.623   6.400   3.289
10546TIP3    H131523   7.676   6.366   3.361
10546TIP3    H231524   7.579   6.323   3.254
10547TIP3   OH231525   6.910   6.227   3.616
10547TIP3    H131526   6.948   6.178   3.689
10547TIP3    H231527   6.986   6.253   3.563
10548TIP3   OH231528   7.880   6.667   2.930
10548TIP3    H131529   7.876   6.603   3.001
10548TIP3    H231530   7.898   6.751   2.974
10549TIP3   OH231531   6.871   6.653   3.328
10549TIP3    H131532   6.870   6.559   3.310
10549TIP3    H231533   6.953   6.668   3.375
10550TIP3   OH231534   6.588   5.867   3.080
10550TIP3    H131535   6.552   5.951   3.109
10550TIP3    H231536   6.513   5.819   3.045
10551TIP3   OH231537   6.674   6.177   3.310
10551TIP3    H131538   6.723   6.100   3.337
10551TIP3    H231539   6.740   6.242   3.288
10552TIP3   OH231540   7.540   7.111   2.950
10552TIP3    H131541   7.567   7.046   2.886
10552TIP3    H231542   7.540   7.064   3.034
10553TIP3   OH231543   7.428   6.609   3.266
10553TIP3    H131544   7.485   6.533   3.264
10553TIP3    H231545   7.481   6.680   3.230
10554TIP3   OH231546   8.454   5.915   3.290
10554TIP3    H131547   8.470   6.000   3.332
10554TIP3    H231548   8.488   5.926   3.201
10555TIP3   OH231549   7.830   6.079   3.313
10555TIP3    H131550   7.870   5.996   3.340
10555TIP3    H231551   7.796   6.061   3.225
10556TIP3   OH231552   7.172   5.745   3.273
10556TIP3    H131553   7.153   5.817   3.213
10556TIP3    H231554   7.118   5.673   3.242
10557TIP3   OH231555   7.887   5.838   2.904
10557TIP3    H131556   7.949   5.836   2.976
10557TIP3    H231557   7.937   5.873   2.830
10558TIP3   OH231558   6.815   5.957   3.399
10558TIP3    H131559   6.897   5.935   3.445
10558TIP3    H231560   6.818   5.905   3.319
10559TIP3   OH231561   7.223   6.162   3.214
10559TIP3    H131562   7.318   6.153   3.215
10559TIP3    H231563   7.191   6.077   3.182
10560TIP3   OH231564   8.503   6.136   3.459
10560TIP3    H131565   8.413   6.168   3.450
10560TIP3    H231566   8.530   6.164   3.546
10561TIP3   OH231567   7.172   5.741   3.733
10561TIP3    H131568   7.125   5.770   3.655
10561TIP3    H231569   7.110   5.754   3.805
10562TIP3   OH231570   7.470   6.587   2.733
10562TIP3    H131571   7.456   6.571   2.640
10562TIP3    H231572   7.430   6.673   2.749
10563TIP3   OH231573   7.267   6.521   3.475
10563TIP3    H131574   7.202   6.585   3.504
10563TIP3    H231575   7.311   6.562   3.401
10564TIP3   OH231576   8.042   5.875   3.124
10564TIP3    H131577   8.007   5.852   3.210
10564TIP3    H231578   8.101   5.949   3.141
10565TIP3   OH231579   7.055   5.846   3.500
10565TIP3    H131580   7.111   5.919   3.525
10565TIP3    H231581   7.102   5.803   3.429
10566TIP3   OH231582   7.074   6.704   3.552
10566TIP3    H131583   7.082   6.800   3.547
10566TIP3    H231584   7.015   6.689   3.626
10567TIP3   OH231585   6.488   6.428   2.848
10567TIP3    H131586   6.446   6.450   2.765
10567TIP3    H231587   6.511   6.513   2.885
10568TIP3   OH231588   7.905   6.911   3.060
10568TIP3    H131589   7.824   6.910   3.111
10568TIP3    H231590   7.923   7.003   3.045
10569TIP3   OH231591   8.246   5.813   3.453
10569TIP3    H131592   8.161   5.836   3.415
10569TIP3    H231593   8.310   5.839   3.387
10570TIP3   OH231594   7.503   5.432   3.456
10570TIP3    H131595   7.500   5.345   3.495
10570TIP3    H231596   7.427   5.478   3.493
10571TIP3   OH231597   7.627   6.951   2.739
10571TIP3    H131598   7.678   6.871   2.727
10571TIP3    H231599   7.686   7.021   2.713
10572TIP3   OH231600   7.782   6.735   2.683
10572TIP3    H131601   7.794   6.659   2.626
10572TIP3    H231602   7.817   6.707   2.767
10573TIP3   OH231603   7.445   6.216   2.700
10573TIP3    H131604   7.364   6.263   2.678
10573TIP3    H231605   7.495   6.214   2.618
10574TIP3   OH231606   7.420   6.028   2.382
10574TIP3    H131607   7.484   6.076   2.434
10574TIP3    H231608   7.471   5.960   2.339
10575TIP3   OH231609   8.324   6.488   3.310
10575TIP3    H131610   8.242   6.537   3.309
10575TIP3    H231611   8.358   6.496   3.221
10576TIP3   OH231612   7.805   6.315   2.659
10576TIP3    H131613   7.751   6.341   2.733
10576TIP3    H231614   7.887   6.285   2.699
10577TIP3   OH231615   8.038   6.335   3.608
10577TIP3    H131616   8.043   6.424   3.645
10577TIP3    H231617   7.954   6.333   3.562
10578TIP3   OH231618   7.031   6.291   3.058
10578TIP3    H131619   6.997   6.227   2.996
10578TIP3    H231620   7.102   6.246   3.103
10579TIP3   OH231621   7.168   6.724   3.198
10579TIP3    H131622   7.135   6.699   3.111
10579TIP3    H231623   7.250   6.675   3.207
10580TIP3   OH231624   7.124   6.285   3.441
10580TIP3    H131625   7.162   6.245   3.363
10580TIP3    H231626   7.175   6.365   3.455
10581TIP3   OH231627   7.678   6.900   3.223
10581TIP3    H131628   7.666   6.984   3.267
10581TIP3    H231629   7.697   6.838   3.294
10582TIP3   OH231630   7.634   6.173   2.496
10582TIP3    H131631   7.695   6.229   2.545
10582TIP3    H231632   7.663   6.180   2.405
10583TIP3   OH231633   7.059   6.375   3.896
10583TIP3    H131634   7.061   6.467   3.921
10583TIP3    H231635   6.965   6.353   3.894
10584TIP3   OH231636   7.371   6.848   2.743
10584TIP3    H131637   7.460   6.884   2.750
10584TIP3    H231638   7.321   6.916   2.698
10585TIP3   OH231639   7.076   7.008   3.843
10585TIP3    H131640   7.061   6.981   3.753
10585TIP3    H231641   6.999   6.976   3.890
10586TIP3   OH231642   8.146   5.396   2.548
10586TIP3    H131643   8.070   5.416   2.603
10586TIP3    H231644   8.155   5.472   2.491
10587TIP3   OH231645   6.910   6.127   2.860
10587TIP3    H131646   6.828   6.170   2.834
10587TIP3    H231647   6.884   6.038   2.882
10588TIP3   OH231648   7.965   6.769   2.108
10588TIP3    H131649   7.963   6.862   2.089
10588TIP3    H231650   8.055   6.742   2.088
10589TIP3   OH231651   6.690   6.536   3.794
10589TIP3    H131652   6.620   6.514   3.733
10589TIP3    H231653   6.724   6.451   3.822
10590TIP3   OH231654   6.610   6.704   3.430
10590TIP3    H131655   6.694   6.677   3.392
10590TIP3    H231656   6.633   6.770   3.495
10591TIP3   OH231657   8.370   7.168   3.491
10591TIP3    H131658   8.380   7.073   3.499
10591TIP3    H231659   8.338   7.196   3.577
10592TIP3   OH231660   7.448   6.977   3.641
10592TIP3    H131661   7.470   7.069   3.654
10592TIP3    H231662   7.446   6.940   3.729
10593TIP3   OH231663   7.270   7.059   2.576
10593TIP3    H131664   7.229   7.043   2.491
10593TIP3    H231665   7.234   7.143   2.604
10594TIP3   OH231666   6.707   6.912   2.962
10594TIP3    H131667   6.748   6.905   3.048
10594TIP3    H231668   6.658   6.830   2.952
10595TIP3   OH231669   7.464   6.992   2.211
10595TIP3    H131670   7.514   6.918   2.177
10595TIP3    H231671   7.503   7.010   2.297
10596TIP3   OH231672   7.527   7.039   2.476
10596TIP3    H131673   7.442   7.040   2.521
10596TIP3    H231674   7.588   7.006   2.541
10597TIP3   OH231675   8.276   6.278   3.766
10597TIP3    H131676   8.191   6.289   3.722
10597TIP3    H231677   8.292   6.184   3.763
10598TIP3   OH231678   6.888   6.724   3.759
10598TIP3    H131679   6.941   6.717   3.838
10598TIP3    H231680   6.817   6.661   3.771
10599TIP3   OH231681   7.274   5.541   3.562
10599TIP3    H131682   7.187   5.508   3.540
10599TIP3    H231683   7.259   5.600   3.636
10600TIP3   OH231684   7.815   5.646   3.808
10600TIP3    H131685   7.901   5.622   3.843
10600TIP3    H231686   7.753   5.624   3.877
10601TIP3   OH231687   8.029   6.067   3.693
10601TIP3    H131688   7.992   6.062   3.781
10601TIP3    H231689   8.015   6.157   3.665
10602TIP3   OH231690   7.713   6.173   2.237
10602TIP3    H131691   7.668   6.162   2.154
10602TIP3    H231692   7.797   6.213   2.214
10603TIP3   OH231693   7.414   5.575   2.553
10603TIP3    H131694   7.386   5.578   2.644
10603TIP3    H231695   7.381   5.491   2.521
10604TIP3   OH231696   7.202   6.058   3.588
10604TIP3    H131697   7.160   6.063   3.674
10604TIP3    H231698   7.180   6.141   3.546
10605TIP3   OH231699   7.083   5.945   3.106
10605TIP3    H131700   6.995   5.919   3.131
10605TIP3    H231701   7.095   5.909   3.018
10606TIP3   OH231702   7.571   6.013   2.836
10606TIP3    H131703   7.523   6.085   2.795
10606TIP3    H231704   7.629   5.981   2.767
10607TIP3   OH231705   7.759   6.284   3.922
10607TIP3    H131706   7.734   6.211   3.979
10607TIP3    H231707   7.852   6.300   3.942
10608TIP3   OH231708   7.748   6.032   3.053
10608TIP3    H131709   7.676   6.048   2.993
10608TIP3    H231710   7.793   5.956   3.016
10609TIP3   OH231711   7.041   6.069   3.812
10609TIP3    H131712   7.051   6.126   3.888
10609TIP3    H231713   7.021   5.983   3.848
10610TIP3   OH231714   7.081   5.548   2.521
10610TIP3    H131715   7.078   5.553   2.617
10610TIP3    H231716   7.006   5.600   2.492
10611TIP3   OH231717   6.641   5.591   3.384
10611TIP3    H131718   6.707   5.631   3.441
10611TIP3    H231719   6.687   5.575   3.302
10612TIP3   OH231720   6.530   5.573   2.894
10612TIP3    H131721   6.578   5.610   2.819
10612TIP3    H231722   6.468   5.641   2.918
10613TIP3   OH231723   7.786   6.284   3.486
10613TIP3    H131724   7.808   6.215   3.423
10613TIP3    H231725   7.745   6.237   3.559
10614TIP3   OH231726   7.435   5.779   3.173
10614TIP3    H131727   7.359   5.759   3.227
10614TIP3    H231728   7.505   5.723   3.208
10615TIP3   OH231729   6.848   5.816   3.165
10615TIP3    H131730   6.759   5.819   3.128
10615TIP3    H231731   6.876   5.726   3.151
10616TIP3   OH231732   7.101   5.816   2.864
10616TIP3    H131733   7.196   5.827   2.858
10616TIP3    H231734   7.069   5.835   2.775
10617TIP3   OH231735   7.934   5.820   3.376
10617TIP3    H131736   7.899   5.832   3.465
10617TIP3    H231737   7.904   5.732   3.351
10618TIP3   OH231738   6.996   5.847   2.612
10618TIP3    H131739   6.932   5.800   2.558
10618TIP3    H231740   7.052   5.891   2.548
10619TIP3   OH231741   8.110   7.494   3.589
10619TIP3    H131742   8.103   7.523   3.498
10619TIP3    H231743   8.187   7.539   3.622
10620TIP3   OH231744   7.050   6.639   3.991
10620TIP3    H131745   7.131   6.663   4.037
10620TIP3    H231746   6.982   6.648   4.058
10621TIP3   OH231747   7.501   6.140   3.249
10621TIP3    H131748   7.552   6.068   3.210
10621TIP3    H231749   7.497   6.119   3.342
10622TIP3   OH231750   6.986   5.566   3.156
10622TIP3    H131751   6.958   5.491   3.207
10622TIP3    H231752   7.027   5.528   3.077
10623TIP3   OH231753   7.475   6.104   3.520
10623TIP3    H131754   7.399   6.058   3.556
10623TIP3    H231755   7.545   6.087   3.583
10624TIP3   OH231756   7.212   6.357   2.632
10624TIP3    H131757   7.138   6.299   2.611
10624TIP3    H231758   7.188   6.398   2.715
10625TIP3   OH231759   8.086   6.634   3.274
10625TIP3    H131760   8.127   6.687   3.205
10625TIP3    H231761   8.016   6.586   3.229
10626TIP3   OH231762   7.670   5.674   2.549
10626TIP3    H131763   7.576   5.655   2.548
10626TIP3    H231764   7.675   5.769   2.563
10627TIP3   OH231765   7.547   6.685   3.634
10627TIP3    H131766   7.571   6.776   3.653
10627TIP3    H231767   7.466   6.692   3.584
10628TIP3   OH231768   7.733   5.938   2.619
10628TIP3    H131769   7.828   5.939   2.630
10628TIP3    H231770   7.714   6.016   2.567
10629TIP3   OH231771   6.895   6.372   3.287
10629TIP3    H131772   6.936   6.353   3.202
10629TIP3    H231773   6.959   6.341   3.351
10630TIP3   OH231774   7.372   6.512   2.471
10630TIP3    H131775   7.322   6.594   2.472
10630TIP3    H231776   7.321   6.452   2.527
10631TIP3   OH231777   6.785   6.306   3.926
10631TIP3    H131778   6.792   6.279   4.018
10631TIP3    H231779   6.708   6.259   3.894
10632TIP3   OH231780   7.554   6.461   3.914
10632TIP3    H131781   7.474   6.408   3.912
10632TIP3    H231782   7.625   6.397   3.916
10633TIP3   OH231783   8.144   6.029   2.436
10633TIP3    H131784   8.086   5.983   2.375
10633TIP3    H231785   8.151   6.118   2.401
10634TIP3   OH231786   8.393   6.895   3.523
10634TIP3    H131787   8.304   6.862   3.538
10634TIP3    H231788   8.415   6.864   3.435
10635TIP3   OH231789   7.887   6.844   2.368
10635TIP3    H131790   7.866   6.773   2.429
10635TIP3    H231791   7.908   6.800   2.286
10636TIP3   OH231792   7.877   6.479   3.149
10636TIP3    H131793   7.788   6.454   3.173
10636TIP3    H231794   7.915   6.399   3.112
10637TIP3   OH231795   7.021   6.711   2.958
10637TIP3    H131796   7.019   6.788   2.901
10637TIP3    H231797   6.931   6.699   2.987
10638TIP3   OH231798   6.583   5.996   2.676
10638TIP3    H131799   6.627   6.077   2.701
10638TIP3    H231800   6.501   5.997   2.726
10639TIP3   OH231801   7.100   6.468   2.852
10639TIP3    H131802   7.089   6.557   2.887
10639TIP3    H231803   7.080   6.410   2.926
10640TIP3   OH231804   7.299   7.037   3.414
10640TIP3    H131805   7.346   7.108   3.368
10640TIP3    H231806   7.358   7.012   3.485
10641TIP3   OH231807   6.935   6.935   2.807
10641TIP3    H131808   6.852   6.943   2.853
10641TIP3    H231809   6.976   7.021   2.816
10642TIP3   OH231810   7.724   6.687   3.409
10642TIP3    H131811   7.668   6.665   3.483
10642TIP3    H231812   7.730   6.606   3.358
10643TIP3   OH231813   7.654   6.574   2.291
10643TIP3    H131814   7.716   6.561   2.363
10643TIP3    H231815   7.571   6.542   2.325
10644TIP3   OH231816   7.894   7.142   3.440
10644TIP3    H131817   7.805   7.136   3.404
10644TIP3    H231818   7.942   7.196   3.377
10645TIP3   OH231819   7.971   7.043   2.087
10645TIP3    H131820   8.020   7.119   2.057
10645TIP3    H231821   7.888   7.080   2.120
10646TIP3   OH231822   6.961   5.806   3.903
10646TIP3    H131823   6.875   5.846   3.915
10646TIP3    H231824   6.948   5.715   3.931
10647TIP3   OH231825   7.838   6.532   2.492
10647TIP3    H131826   7.819   6.456   2.548
10647TIP3    H231827   7.931   6.525   2.473
10648TIP3   OH231828   6.728   6.914   3.591
10648TIP3    H131829   6.783   6.854   3.640
10648TIP3    H231830   6.743   7.000   3.631
10649TIP3   OH231831   7.003   6.527   2.276
10649TIP3    H131832   7.024   6.439   2.247
10649TIP3    H231833   6.997   6.520   2.371
10650TIP3   OH231834   6.957   6.545   2.551
10650TIP3    H131835   7.020   6.514   2.616
10650TIP3    H231836   6.958   6.640   2.560
10651TIP3   OH231837   6.679   6.246   2.756
10651TIP3    H131838   6.616   6.296   2.808
10651TIP3    H231839   6.703   6.305   2.685
10652TIP3   OH231840   7.842   5.864   3.636
10652TIP3    H131841   7.918   5.912   3.669
10652TIP3    H231842   7.831   5.792   3.698
10653TIP3   OH231843   7.736   5.622   2.815
10653TIP3    H131844   7.715   5.641   2.724
10653TIP3    H231845   7.780   5.702   2.846
10654TIP3   OH231846   7.217   6.734   2.478
10654TIP3    H131847   7.136   6.757   2.524
10654TIP3    H231848   7.245   6.815   2.437
10655TIP3   OH231849   7.377   5.831   2.910
10655TIP3    H131850   7.443   5.894   2.882
10655TIP3    H231851   7.396   5.816   3.002
10656TIP3   OH231852   7.697   6.116   3.689
10656TIP3    H131853   7.717   6.154   3.774
10656TIP3    H231854   7.739   6.030   3.691
10657TIP3   OH231855   7.561   5.505   2.993
10657TIP3    H131856   7.586   5.546   3.075
10657TIP3    H231857   7.621   5.543   2.928
10658TIP3   OH231858   6.967   6.818   2.562
10658TIP3    H131859   6.939   6.885   2.499
10658TIP3    H231860   6.956   6.861   2.648
10659TIP3   OH231861   7.066   5.542   2.799
10659TIP3    H131862   7.053   5.631   2.831
10659TIP3    H231863   7.160   5.526   2.810
10660TIP3   OH231864   8.291   6.002   3.667
10660TIP3    H131865   8.198   6.015   3.680
10660TIP3    H231866   8.297   5.937   3.597
10661TIP3   OH231867   7.964   6.223   3.058
10661TIP3    H131868   7.889   6.164   3.067
10661TIP3    H231869   8.032   6.184   3.111
10662TIP3   OH231870   6.710   6.423   2.537
10662TIP3    H131871   6.786   6.478   2.553
10662TIP3    H231872   6.740   6.357   2.474
10663TIP3   OH231873   6.607   5.719   2.675
10663TIP3    H131874   6.620   5.813   2.683
10663TIP3    H231875   6.540   5.710   2.606
10664TIP3   OH231876   7.954   7.191   3.017
10664TIP3    H131877   7.912   7.237   2.944
10664TIP3    H231878   8.047   7.213   3.008
10665TIP3   OH231879   7.008   5.449   3.530
10665TIP3    H131880   6.979   5.414   3.446
10665TIP3    H231881   7.006   5.374   3.590
10666TIP3   OH231882   6.529   6.697   2.928
10666TIP3    H131883   6.481   6.726   3.006
10666TIP3    H231884   6.483   6.738   2.855
10667TIP3   OH231885   6.736   7.233   3.996
10667TIP3    H131886   6.816   7.239   4.048
10667TIP3    H231887   6.718   7.140   3.991
10668TIP3   OH231888   7.194   7.153   4.040
10668TIP3    H131889   7.283   7.117   4.049
10668TIP3    H231890   7.156   7.105   3.966
10669TIP3   OH231891   7.154   6.738   2.170
10669TIP3    H131892   7.118   6.662   2.217
10669TIP3    H231893   7.232   6.704   2.126
10670TIP3   OH231894   7.884   7.021   3.768
10670TIP3    H131895   7.809   6.966   3.790
10670TIP3    H231896   7.922   7.045   3.853
10671TIP3   OH231897   7.595   6.774   2.110
10671TIP3    H131898   7.628   6.711   2.174
10671TIP3    H231899   7.659   6.773   2.039
10672TIP3   OH231900   6.840   6.637   4.178
10672TIP3    H131901   6.865   6.545   4.190
10672TIP3    H231902   6.751   6.633   4.143
10673TIP3   OH231903   6.830   6.234   2.381
10673TIP3    H131904   6.879   6.208   2.459
10673TIP3    H231905   6.896   6.241   2.312
10674TIP3   OH231906   7.348   6.451   2.204
10674TIP3    H131907   7.353   6.460   2.299
10674TIP3    H231908   7.352   6.357   2.188
10675TIP3   OH231909   7.981   6.765   3.499
10675TIP3    H131910   8.029   6.726   3.426
10675TIP3    H231911   7.889   6.751   3.476
10676TIP3   OH231912   6.957   6.386   4.192
10676TIP3    H131913   7.035   6.352   4.148
10676TIP3    H231914   6.984   6.399   4.283
10677TIP3   OH231915   7.000   6.179   2.595
10677TIP3    H131916   6.981   6.150   2.684
10677TIP3    H231917   7.050   6.106   2.557
10678TIP3   OH231918   7.327   6.298   3.869
10678TIP3    H131919   7.235   6.324   3.873
10678TIP3    H231920   7.353   6.319   3.779
10679TIP3   OH231921   7.147   5.998   2.440
10679TIP3    H131922   7.118   5.997   2.349
10679TIP3    H231923   7.243   6.005   2.434
10680TIP3   OH231924   7.935   6.292   2.121
10680TIP3    H131925   7.921   6.248   2.037
10680TIP3    H231926   7.906   6.382   2.105
10681TIP3   OH231927   7.412   6.056   3.970
10681TIP3    H131928   7.413   5.989   3.901
10681TIP3    H231929   7.385   6.136   3.925
10682TIP3   OH231930   7.417   5.867   3.770
10682TIP3    H131931   7.482   5.797   3.760
10682TIP3    H231932   7.333   5.824   3.756
10683TIP3   OH231933   7.437   6.367   3.630
10683TIP3    H131934   7.465   6.292   3.578
10683TIP3    H231935   7.385   6.420   3.569
10684TIP3   OH231936   8.023   6.325   4.013
10684TIP3    H131937   8.084   6.252   4.014
10684TIP3    H231938   8.078   6.403   4.004
10685TIP3   OH231939   8.082   6.596   3.704
10685TIP3    H131940   8.037   6.662   3.652
10685TIP3    H231941   8.174   6.608   3.684
10686TIP3   OH231942   7.306   6.130   4.215
10686TIP3    H131943   7.238   6.067   4.238
10686TIP3    H231944   7.332   6.107   4.126
10687TIP3   OH231945   7.676   6.067   4.065
10687TIP3    H131946   7.678   6.044   4.157
10687TIP3    H231947   7.585   6.051   4.039
10688TIP3   OH231948   7.921   6.026   3.935
10688TIP3    H131949   7.843   6.022   3.990
10688TIP3    H231950   7.993   6.006   3.995
10689TIP3   OH231951   8.159   5.997   4.084
10689TIP3    H131952   8.173   5.903   4.090
10689TIP3    H231953   8.146   6.026   4.175
10690TIP3   OH231954   7.156   5.902   4.271
10690TIP3    H131955   7.185   5.825   4.222
10690TIP3    H231956   7.182   5.884   4.361
10691TIP3   OH231957   7.658   5.558   4.021
10691TIP3    H131958   7.732   5.502   4.046
10691TIP3    H231959   7.589   5.496   3.995
10692TIP3   OH231960   7.698   5.760   4.238
10692TIP3    H131961   7.678   5.697   4.169
10692TIP3    H231962   7.622   5.818   4.240
10693TIP3   OH231963   6.938   6.979   2.333
10693TIP3    H131964   7.034   6.981   2.333
10693TIP3    H231965   6.912   7.046   2.270
10694TIP3   OH231966   6.436   6.427   2.547
10694TIP3    H131967   6.531   6.431   2.553
10694TIP3    H231968   6.417   6.338   2.516
10695TIP3   OH231969   6.327   6.995   3.037
10695TIP3    H131970   6.263   6.946   2.985
10695TIP3    H231971   6.373   6.928   3.087
10696TIP3   OH231972   6.478   6.826   3.194
10696TIP3    H131973   6.483   6.751   3.254
10696TIP3    H231974   6.527   6.896   3.238
10697TIP3   OH231975   8.212   7.292   3.002
10697TIP3    H131976   8.227   7.384   3.021
10697TIP3    H231977   8.274   7.271   2.932
10698TIP3   OH231978   8.192   7.294   3.294
10698TIP3    H131979   8.212   7.263   3.206
10698TIP3    H231980   8.258   7.251   3.349
10699TIP3   OH231981   8.237   6.969   3.835
10699TIP3    H131982   8.177   6.982   3.909
10699TIP3    H231983   8.285   7.051   3.827
10700TIP3   OH231984   8.109   6.496   2.457
10700TIP3    H131985   8.169   6.563   2.426
10700TIP3    H231986   8.155   6.455   2.530
10701TIP3   OH231987   8.238   6.353   2.656
10701TIP3    H131988   8.172   6.314   2.713
10701TIP3    H231989   8.303   6.389   2.716
10702TIP3   OH231990   8.272   6.752   3.095
10702TIP3    H131991   8.320   6.677   3.060
10702TIP3    H231992   8.283   6.820   3.029
10703TIP3   OH231993   8.139   6.270   2.303
10703TIP3    H131994   8.069   6.271   2.238
10703TIP3    H231995   8.124   6.348   2.356
10704TIP3   OH231996   7.985   5.922   2.243
10704TIP3    H131997   7.946   5.954   2.162
10704TIP3    H231998   7.978   5.827   2.237
10705TIP3   OH231999   8.031   6.212   2.788
10705TIP3    H132000   8.038   6.117   2.774
10705TIP3    H232001   8.014   6.222   2.881
10706TIP3   OH232002   6.649   6.281   3.564
10706TIP3    H132003   6.639   6.241   3.477
10706TIP3    H232004   6.742   6.270   3.585
10707TIP3   OH232005   8.350   6.634   3.640
10707TIP3    H132006   8.395   6.550   3.644
10707TIP3    H232007   8.400   6.687   3.578
10708TIP3   OH232008   8.488   6.403   3.651
10708TIP3    H132009   8.414   6.359   3.692
10708TIP3    H232010   8.563   6.348   3.670
10709TIP3   OH232011   7.949   5.653   2.215
10709TIP3    H132012   8.020   5.622   2.271
10709TIP3    H232013   7.872   5.604   2.244
10710TIP3   OH232014   8.023   5.933   2.673
10710TIP3    H132015   8.069   5.850   2.686
10710TIP3    H232016   8.064   5.972   2.596
10711TIP3   OH232017   8.179   6.105   3.196
10711TIP3    H132018   8.260   6.124   3.150
10711TIP3    H232019   8.191   6.142   3.283
10712TIP3   OH232020   8.247   6.249   3.427
10712TIP3    H132021   8.177   6.273   3.487
10712TIP3    H232022   8.276   6.332   3.389
10713TIP3   OH232023   6.888   5.961   4.221
10713TIP3    H132024   6.982   5.948   4.235
10713TIP3    H232025   6.847   5.882   4.254
10714TIP3   OH232026   8.717   5.845   3.967
10714TIP3    H132027   8.779   5.786   3.925
10714TIP3    H232028   8.676   5.893   3.895
10715TIP3   OH232029   8.138   5.685   2.727
10715TIP3    H132030   8.184   5.671   2.809
10715TIP3    H232031   8.078   5.611   2.720
10716TIP3   OH232032   6.844   5.669   3.557
10716TIP3    H132033   6.897   5.590   3.560
10716TIP3    H232034   6.908   5.740   3.545
10717TIP3   OH232035   6.630   5.937   3.613
10717TIP3    H132036   6.683   5.933   3.534
10717TIP3    H232037   6.677   5.997   3.671
10718TIP3   OH232038   8.562   5.958   3.773
10718TIP3    H132039   8.487   5.997   3.818
10718TIP3    H232040   8.524   5.891   3.716
10719TIP3   OH232041   8.179   5.598   2.364
10719TIP3    H132042   8.225   5.537   2.306
10719TIP3    H232043   8.236   5.674   2.370
10720TIP3   OH232044   6.615   5.437   3.116
10720TIP3    H132045   6.534   5.430   3.166
10720TIP3    H232046   6.592   5.496   3.043
10721TIP3   OH232047   7.766   7.157   2.636
10721TIP3    H132048   7.824   7.148   2.560
10721TIP3    H232049   7.812   7.219   2.693
10722TIP3   OH232050   6.854   5.555   3.959
10722TIP3    H132051   6.816   5.506   4.032
10722TIP3    H232052   6.780   5.573   3.901
10723TIP3   OH232053   6.864   6.946   4.016
10723TIP3    H132054   6.771   6.926   4.005
10723TIP3    H232055   6.880   6.936   4.109
10724TIP3   OH232056   7.071   6.981   3.557
10724TIP3    H132057   7.022   7.060   3.532
10724TIP3    H232058   7.158   6.994   3.520
10725TIP3   OH232059   7.509   7.238   3.711
10725TIP3    H132060   7.552   7.230   3.796
10725TIP3    H232061   7.566   7.295   3.660
10726TIP3   OH232062   7.675   7.406   3.565
10726TIP3    H132063   7.735   7.381   3.495
10726TIP3    H232064   7.728   7.456   3.627
10727TIP3   OH232065   8.474   5.698   3.670
10727TIP3    H132066   8.385   5.674   3.644
10727TIP3    H232067   8.523   5.617   3.666
10728TIP3   OH232068   6.739   7.244   3.612
10728TIP3    H132069   6.649   7.274   3.601
10728TIP3    H232070   6.774   7.299   3.682
10729TIP3   OH232071   6.968   7.220   3.461
10729TIP3    H132072   6.886   7.228   3.510
10729TIP3    H232073   6.946   7.247   3.372
10730TIP3   OH232074   7.394   7.247   3.254
10730TIP3    H132075   7.317   7.257   3.197
10730TIP3    H232076   7.402   7.332   3.298
10731TIP3   OH232077   7.655   7.166   3.302
10731TIP3    H132078   7.563   7.190   3.286
10731TIP3    H232079   7.706   7.236   3.261
10732TIP3   OH232080   7.843   7.349   3.213
10732TIP3    H132081   7.852   7.436   3.175
10732TIP3    H232082   7.884   7.291   3.148
10733TIP3   OH232083   6.633   7.015   3.343
10733TIP3    H132084   6.656   6.992   3.433
10733TIP3    H232085   6.706   6.983   3.291
10734TIP3   OH232086   6.842   6.902   3.203
10734TIP3    H132087   6.853   6.816   3.245
10734TIP3    H232088   6.928   6.942   3.206
10735TIP3   OH232089   7.110   6.991   3.215
10735TIP3    H132090   7.131   6.899   3.198
10735TIP3    H232091   7.164   7.015   3.291
10736TIP3   OH232092   7.628   5.589   3.249
10736TIP3    H132093   7.607   5.540   3.328
10736TIP3    H232094   7.723   5.583   3.241
10737TIP3   OH232095   8.190   5.552   3.184
10737TIP3    H132096   8.225   5.602   3.110
10737TIP3    H232097   8.099   5.581   3.190
10738TIP3   OH232098   8.297   5.635   2.947
10738TIP3    H132099   8.365   5.573   2.923
10738TIP3    H232100   8.336   5.721   2.932
10739TIP3   OH232101   6.913   5.336   3.295
10739TIP3    H132102   6.825   5.300   3.304
10739TIP3    H232103   6.970   5.259   3.290
10740TIP3   OH232104   6.702   5.250   2.927
10740TIP3    H132105   6.753   5.297   2.861
10740TIP3    H232106   6.690   5.313   2.997
10741TIP3   OH232107   7.391   5.379   3.192
10741TIP3    H132108   7.443   5.426   3.127
10741TIP3    H232109   7.430   5.404   3.276
10742TIP3   OH232110   7.901   5.554   3.186
10742TIP3    H132111   7.909   5.527   3.095
10742TIP3    H232112   7.903   5.472   3.236
10743TIP3   OH232113   7.956   5.472   2.734
10743TIP3    H132114   7.876   5.518   2.759
10743TIP3    H232115   7.947   5.385   2.774
10744TIP3   OH232116   6.409   6.812   2.706
10744TIP3    H132117   6.323   6.784   2.676
10744TIP3    H232118   6.420   6.900   2.670
10745TIP3   OH232119   6.854   5.371   2.709
10745TIP3    H132120   6.900   5.309   2.654
10745TIP3    H232121   6.923   5.428   2.744
10746TIP3   OH232122   7.343   5.573   2.822
10746TIP3    H132123   7.404   5.524   2.877
10746TIP3    H232124   7.355   5.664   2.849
10747TIP3   OH232125   7.211   6.964   2.313
10747TIP3    H132126   7.295   6.993   2.277
10747TIP3    H232127   7.188   6.889   2.259
10748TIP3   OH232128   7.919   7.112   2.407
10748TIP3    H132129   7.912   7.017   2.400
10748TIP3    H232130   7.876   7.146   2.329
10749TIP3   OH232131   6.536   6.809   2.354
10749TIP3    H132132   6.468   6.876   2.363
10749TIP3    H232133   6.557   6.785   2.444
10750TIP3   OH232134   8.228   5.730   4.093
10750TIP3    H132135   8.240   5.698   4.183
10750TIP3    H232136   8.314   5.721   4.053
10751TIP3   OH232137   8.095   7.220   3.647
10751TIP3    H132138   8.106   7.310   3.614
10751TIP3    H232139   8.115   7.226   3.740
10752TIP3   OH232140   9.442   6.611   2.242
10752TIP3    H132141   9.416   6.703   2.235
10752TIP3    H232142   9.365   6.567   2.281
10753TIP3   OH232143   9.297   6.634   2.772
10753TIP3    H132144   9.363   6.647   2.840
10753TIP3    H232145   9.278   6.540   2.775
10754TIP3   OH232146   8.697   6.492   3.113
10754TIP3    H132147   8.738   6.441   3.183
10754TIP3    H232148   8.770   6.518   3.057
10755TIP3   OH232149   8.673   6.910   2.800
10755TIP3    H132150   8.663   6.814   2.795
10755TIP3    H232151   8.767   6.925   2.791
10756TIP3   OH232152   8.380   6.125   2.566
10756TIP3    H132153   8.343   6.209   2.593
10756TIP3    H232154   8.307   6.077   2.528
10757TIP3   OH232155   8.461   6.442   2.802
10757TIP3    H132156   8.510   6.363   2.824
10757TIP3    H232157   8.528   6.506   2.780
10758TIP3   OH232158   9.298   7.376   2.479
10758TIP3    H132159   9.335   7.295   2.514
10758TIP3    H232160   9.251   7.415   2.552
10759TIP3   OH232161   9.185   6.880   2.762
10759TIP3    H132162   9.217   6.792   2.742
10759TIP3    H232163   9.263   6.930   2.784
10760TIP3   OH232164   9.582   6.487   2.797
10760TIP3    H132165   9.648   6.417   2.796
10760TIP3    H232166   9.547   6.488   2.708
10761TIP3   OH232167   8.944   5.996   2.769
10761TIP3    H132168   8.922   6.069   2.711
10761TIP3    H232169   8.896   5.922   2.733
10762TIP3   OH232170   9.695   6.045   2.379
10762TIP3    H132171   9.718   6.031   2.471
10762TIP3    H232172   9.688   6.140   2.370
10763TIP3   OH232173   8.595   6.214   2.882
10763TIP3    H132174   8.676   6.193   2.928
10763TIP3    H232175   8.595   6.157   2.805
10764TIP3   OH232176   8.996   6.411   2.710
10764TIP3    H132177   9.087   6.392   2.733
10764TIP3    H232178   8.962   6.329   2.675
10765TIP3   OH232179   8.937   6.017   3.227
10765TIP3    H132180   8.888   6.054   3.154
10765TIP3    H232181   8.881   6.034   3.304
10766TIP3   OH232182   9.301   6.843   2.208
10766TIP3    H132183   9.261   6.825   2.123
10766TIP3    H232184   9.259   6.924   2.237
10767TIP3   OH232185   9.044   6.782   2.978
10767TIP3    H132186   8.990   6.853   3.013
10767TIP3    H232187   9.091   6.822   2.904
10768TIP3   OH232188   8.829   6.108   2.990
10768TIP3    H132189   8.883   6.185   3.007
10768TIP3    H232190   8.874   6.063   2.919
10769TIP3   OH232191   8.892   6.986   3.084
10769TIP3    H132192   8.883   7.077   3.055
10769TIP3    H232193   8.813   6.969   3.134
10770TIP3   OH232194   8.280   6.681   2.341
10770TIP3    H132195   8.249   6.703   2.253
10770TIP3    H232196   8.307   6.765   2.378
10771TIP3   OH232197   9.221   5.720   2.904
10771TIP3    H132198   9.219   5.636   2.950
10771TIP3    H232199   9.159   5.775   2.952
10772TIP3   OH232200   9.450   7.189   2.236
10772TIP3    H132201   9.508   7.157   2.304
10772TIP3    H232202   9.458   7.284   2.240
10773TIP3   OH232203   9.205   6.469   2.167
10773TIP3    H132204   9.120   6.512   2.162
10773TIP3    H232205   9.257   6.509   2.097
10774TIP3   OH232206   9.227   6.294   1.912
10774TIP3    H132207   9.288   6.329   1.976
10774TIP3    H232208   9.280   6.239   1.855
10775TIP3   OH232209   8.814   6.546   2.551
10775TIP3    H132210   8.779   6.482   2.488
10775TIP3    H232211   8.885   6.500   2.596
10776TIP3   OH232212   8.932   6.972   2.705
10776TIP3    H132213   8.916   6.956   2.612
10776TIP3    H232214   9.022   6.942   2.719
10777TIP3   OH232215   8.905   6.552   2.929
10777TIP3    H132216   8.944   6.513   2.850
10777TIP3    H232217   8.958   6.630   2.945
10778TIP3   OH232218   9.402   7.186   2.657
10778TIP3    H132219   9.438   7.258   2.709
10778TIP3    H232220   9.410   7.109   2.714
10779TIP3   OH232221   9.099   7.083   3.245
10779TIP3    H132222   9.039   7.141   3.291
10779TIP3    H232223   9.043   7.030   3.188
10780TIP3   OH232224   9.464   6.435   2.027
10780TIP3    H132225   9.474   6.495   2.101
10780TIP3    H232226   9.501   6.482   1.952
10781TIP3   OH232227   8.855   6.642   3.385
10781TIP3    H132228   8.853   6.735   3.405
10781TIP3    H232229   8.762   6.618   3.378
10782TIP3   OH232230   9.186   7.096   2.253
10782TIP3    H132231   9.275   7.131   2.263
10782TIP3    H232232   9.136   7.168   2.214
10783TIP3   OH232233   8.885   7.241   3.329
10783TIP3    H132234   8.870   7.254   3.235
10783TIP3    H232235   8.797   7.233   3.366
10784TIP3   OH232236   8.695   6.378   2.359
10784TIP3    H132237   8.613   6.420   2.331
10784TIP3    H232238   8.671   6.286   2.372
10785TIP3   OH232239   8.473   6.793   3.286
10785TIP3    H132240   8.407   6.771   3.220
10785TIP3    H232241   8.511   6.709   3.311
10786TIP3   OH232242   8.397   6.961   2.921
10786TIP3    H132243   8.480   6.934   2.882
10786TIP3    H232244   8.421   7.030   2.983
10787TIP3   OH232245   9.289   7.219   3.094
10787TIP3    H132246   9.284   7.308   3.130
10787TIP3    H232247   9.232   7.167   3.150
10788TIP3   OH232248   9.085   7.309   2.092
10788TIP3    H132249   9.040   7.289   2.010
10788TIP3    H232250   9.049   7.394   2.119
10789TIP3   OH232251   8.493   7.177   2.454
10789TIP3    H132252   8.543   7.170   2.536
10789TIP3    H232253   8.451   7.091   2.444
10790TIP3   OH232254   9.282   7.230   1.725
10790TIP3    H132255   9.282   7.140   1.692
10790TIP3    H232256   9.318   7.224   1.814
10791TIP3   OH232257   9.323   7.200   1.990
10791TIP3    H132258   9.250   7.248   2.030
10791TIP3    H232259   9.381   7.179   2.063
10792TIP3   OH232260   8.670   6.985   3.250
10792TIP3    H132261   8.725   6.972   3.327
10792TIP3    H232262   8.601   6.919   3.259
10793TIP3   OH232263   9.027   5.806   3.080
10793TIP3    H132264   8.944   5.769   3.050
10793TIP3    H232265   9.003   5.882   3.132
10794TIP3   OH232266   9.681   5.870   3.251
10794TIP3    H132267   9.662   5.874   3.345
10794TIP3    H232268   9.630   5.795   3.220
10795TIP3   OH232269   9.236   5.809   2.018
10795TIP3    H132270   9.202   5.831   2.105
10795TIP3    H232271   9.191   5.728   1.994
10796TIP3   OH232272   8.977   6.322   3.065
10796TIP3    H132273   8.944   6.335   3.154
10796TIP3    H232274   8.961   6.405   3.021
10797TIP3   OH232275   8.857   6.197   2.604
10797TIP3    H132276   8.769   6.169   2.629
10797TIP3    H232277   8.869   6.164   2.515
10798TIP3   OH232278   9.334   6.259   2.283
10798TIP3    H132279   9.284   6.334   2.250
10798TIP3    H232280   9.405   6.248   2.220
10799TIP3   OH232281   9.521   6.556   3.427
10799TIP3    H132282   9.501   6.485   3.487
10799TIP3    H232283   9.615   6.570   3.435
10800TIP3   OH232284   9.430   6.342   2.602
10800TIP3    H132285   9.462   6.401   2.534
10800TIP3    H232286   9.432   6.255   2.562
10801TIP3   OH232287   8.832   6.334   3.302
10801TIP3    H132288   8.894   6.386   3.353
10801TIP3    H232289   8.814   6.257   3.356
10802TIP3   OH232290   8.872   5.816   1.999
10802TIP3    H132291   8.854   5.819   2.093
10802TIP3    H232292   8.797   5.861   1.959
10803TIP3   OH232293   8.428   5.858   2.871
10803TIP3    H132294   8.495   5.895   2.928
10803TIP3    H232295   8.473   5.840   2.788
10804TIP3   OH232296   8.332   5.829   2.383
10804TIP3    H132297   8.377   5.864   2.307
10804TIP3    H232298   8.268   5.897   2.406
10805TIP3   OH232299   9.481   6.645   2.995
10805TIP3    H132300   9.528   6.607   2.922
10805TIP3    H232301   9.518   6.604   3.073
10806TIP3   OH232302   9.178   6.072   2.640
10806TIP3    H132303   9.110   6.042   2.700
10806TIP3    H232304   9.257   6.025   2.667
10807TIP3   OH232305   8.630   6.057   2.661
10807TIP3    H132306   8.545   6.065   2.617
10807TIP3    H232307   8.662   5.970   2.635
10808TIP3   OH232308   8.855   6.068   2.362
10808TIP3    H132309   8.949   6.080   2.352
10808TIP3    H232310   8.819   6.088   2.276
10809TIP3   OH232311   9.575   6.006   2.907
10809TIP3    H132312   9.610   6.066   2.973
10809TIP3    H232313   9.491   5.977   2.943
10810TIP3   OH232314   8.762   6.111   2.114
10810TIP3    H132315   8.708   6.057   2.055
10810TIP3    H232316   8.831   6.146   2.058
10811TIP3   OH232317   8.829   6.906   3.478
10811TIP3    H132318   8.912   6.921   3.523
10811TIP3    H232319   8.763   6.909   3.547
10812TIP3   OH232320   9.249   6.362   2.805
10812TIP3    H132321   9.314   6.341   2.738
10812TIP3    H232322   9.270   6.303   2.877
10813TIP3   OH232323   8.781   5.815   2.636
10813TIP3    H132324   8.749   5.740   2.688
10813TIP3    H232325   8.823   5.775   2.560
10814TIP3   OH232326   9.235   6.238   3.068
10814TIP3    H132327   9.146   6.271   3.056
10814TIP3    H232328   9.279   6.305   3.120
10815TIP3   OH232329   8.976   6.617   2.125
10815TIP3    H132330   8.904   6.556   2.109
10815TIP3    H232331   8.958   6.653   2.211
10816TIP3   OH232332   9.446   5.953   1.918
10816TIP3    H132333   9.373   5.904   1.955
10816TIP3    H232334   9.465   6.021   1.982
10817TIP3   OH232335   9.467   6.940   3.153
10817TIP3    H132336   9.488   6.928   3.246
10817TIP3    H232337   9.456   7.034   3.143
10818TIP3   OH232338   9.526   6.168   2.085
10818TIP3    H132339   9.617   6.142   2.069
10818TIP3    H232340   9.519   6.256   2.050
10819TIP3   OH232341   8.679   6.627   2.778
10819TIP3    H132342   8.718   6.608   2.692
10819TIP3    H232343   8.746   6.601   2.841
10820TIP3   OH232344   9.155   6.761   1.982
10820TIP3    H132345   9.112   6.846   1.983
10820TIP3    H232346   9.096   6.703   2.031
10821TIP3   OH232347   8.577   6.578   3.429
10821TIP3    H132348   8.607   6.555   3.517
10821TIP3    H232349   8.510   6.513   3.409
10822TIP3   OH232350   9.299   6.715   3.416
10822TIP3    H132351   9.261   6.694   3.330
10822TIP3    H232352   9.383   6.668   3.416
10823TIP3   OH232353   9.567   7.209   3.032
10823TIP3    H132354   9.474   7.222   3.017
10823TIP3    H232355   9.586   7.260   3.110
10824TIP3   OH232356   8.817   6.966   2.454
10824TIP3    H132357   8.817   7.049   2.406
10824TIP3    H232358   8.724   6.944   2.465
10825TIP3   OH232359   8.374   6.254   2.160
10825TIP3    H132360   8.420   6.334   2.185
10825TIP3    H232361   8.295   6.253   2.214
10826TIP3   OH232362   8.898   6.723   2.356
10826TIP3    H132363   8.890   6.813   2.389
10826TIP3    H232364   8.873   6.668   2.430
10827TIP3   OH232365   9.107   7.292   2.895
10827TIP3    H132366   9.152   7.352   2.834
10827TIP3    H232367   9.178   7.255   2.948
10828TIP3   OH232368   8.735   7.196   2.326
10828TIP3    H132369   8.646   7.205   2.359
10828TIP3    H232370   8.766   7.286   2.316
10829TIP3   OH232371   9.428   6.971   2.857
10829TIP3    H132372   9.422   6.943   2.948
10829TIP3    H232373   9.522   6.981   2.840
10830TIP3   OH232374   8.777   6.088   3.435
10830TIP3    H132375   8.682   6.099   3.436
10830TIP3    H232376   8.797   6.034   3.511
10831TIP3   OH232377   8.523   7.177   3.076
10831TIP3    H132378   8.577   7.118   3.130
10831TIP3    H232379   8.539   7.264   3.112
10832TIP3   OH232380   8.775   6.799   1.786
10832TIP3    H132381   8.825   6.721   1.761
10832TIP3    H232382   8.768   6.794   1.881
10833TIP3   OH232383   8.743   6.803   2.058
10833TIP3    H132384   8.818   6.768   2.107
10833TIP3    H232385   8.747   6.898   2.074
10834TIP3   OH232386   8.471   6.500   2.248
10834TIP3    H132387   8.408   6.549   2.301
10834TIP3    H232388   8.495   6.560   2.177
10835TIP3   OH232389   9.601   6.115   3.157
10835TIP3    H132390   9.613   6.184   3.223
10835TIP3    H232391   9.645   6.039   3.194
10836TIP3   OH232392   9.409   5.955   2.239
10836TIP3    H132393   9.480   5.894   2.219
10836TIP3    H232394   9.433   6.035   2.190
10837TIP3   OH232395   9.010   6.984   1.992
10837TIP3    H132396   8.928   7.011   2.035
10837TIP3    H232397   9.055   7.066   1.973
10838TIP3   OH232398   9.125   6.100   2.372
10838TIP3    H132399   9.192   6.159   2.336
10838TIP3    H232400   9.145   6.096   2.465
10839TIP3   OH232401   9.373   6.398   3.246
10839TIP3    H132402   9.418   6.457   3.306
10839TIP3    H232403   9.435   6.384   3.174
10840TIP3   OH232404   9.300   5.822   2.463
10840TIP3    H132405   9.327   5.858   2.548
10840TIP3    H232406   9.334   5.884   2.399
10841TIP3   OH232407   8.768   7.072   2.088
10841TIP3    H132408   8.765   7.150   2.032
10841TIP3    H232409   8.758   7.107   2.177
10842TIP3   OH232410   8.836   5.798   2.278
10842TIP3    H132411   8.815   5.882   2.319
10842TIP3    H232412   8.931   5.795   2.277
10843TIP3   OH232413   8.495   6.686   2.039
10843TIP3    H132414   8.568   6.745   2.056
10843TIP3    H232415   8.528   6.625   1.973
10844TIP3   OH232416   8.402   5.975   2.165
10844TIP3    H132417   8.414   6.070   2.169
10844TIP3    H232418   8.368   5.958   2.078
10845TIP3   OH232419   8.778   5.701   3.031
10845TIP3    H132420   8.754   5.667   2.944
10845TIP3    H232421   8.771   5.626   3.089
10846TIP3   OH232422   8.335   6.944   2.431
10846TIP3    H132423   8.288   6.982   2.505
10846TIP3    H232424   8.293   6.983   2.354
10847TIP3   OH232425   8.552   7.504   3.479
10847TIP3    H132426   8.626   7.522   3.536
10847TIP3    H232427   8.562   7.412   3.455
10848TIP3   OH232428   8.994   7.395   3.530
10848TIP3    H132429   9.085   7.368   3.538
10848TIP3    H232430   8.960   7.345   3.456
10849TIP3   OH232431   8.951   6.985   1.667
10849TIP3    H132432   8.880   6.935   1.709
10849TIP3    H232433   9.025   6.925   1.667
10850TIP3   OH232434   9.595   7.347   3.270
10850TIP3    H132435   9.639   7.293   3.336
10850TIP3    H232436   9.655   7.421   3.257
10851TIP3   OH232437   8.629   6.893   3.671
10851TIP3    H132438   8.652   6.800   3.680
10851TIP3    H232439   8.543   6.892   3.630
10852TIP3   OH232440   8.622   6.499   1.887
10852TIP3    H132441   8.666   6.467   1.966
10852TIP3    H232442   8.693   6.516   1.825
10853TIP3   OH232443   9.247   6.984   3.454
10853TIP3    H132444   9.206   7.008   3.371
10853TIP3    H232445   9.279   6.895   3.440
10854TIP3   OH232446   9.091   6.740   1.717
10854TIP3    H132447   9.116   6.748   1.809
10854TIP3    H232448   9.105   6.648   1.696
10855TIP3   OH232449   8.743   6.637   3.673
10855TIP3    H132450   8.822   6.616   3.623
10855TIP3    H232451   8.775   6.651   3.762
10856TIP3   OH232452   8.783   6.426   2.098
10856TIP3    H132453   8.762   6.400   2.187
10856TIP3    H232454   8.840   6.356   2.065
10857TIP3   OH232455   9.074   6.491   3.306
10857TIP3    H132456   9.010   6.558   3.332
10857TIP3    H232457   9.135   6.537   3.248
10858TIP3   OH232458   8.954   6.248   1.972
10858TIP3    H132459   8.929   6.247   1.879
10858TIP3    H232460   9.049   6.258   1.970
10859TIP3   OH232461   9.585   6.906   3.443
10859TIP3    H132462   9.681   6.905   3.451
10859TIP3    H232463   9.555   6.850   3.515
10860TIP3   OH232464   9.179   6.286   3.459
10860TIP3    H132465   9.191   6.209   3.404
10860TIP3    H232466   9.158   6.356   3.397
10861TIP3   OH232467   9.200   6.062   3.273
10861TIP3    H132468   9.217   6.127   3.205
10861TIP3    H232469   9.106   6.044   3.266
10862TIP3   OH232470   9.229   6.662   3.146
10862TIP3    H132471   9.311   6.665   3.096
10862TIP3    H232472   9.165   6.704   3.088
10863TIP3   OH232473  -0.014   6.581   3.517
10863TIP3    H132474   0.047   6.581   3.591
10863TIP3    H232475   0.020   6.647   3.457
10864TIP3   OH232476   9.066   6.386   3.694
10864TIP3    H132477   9.006   6.316   3.719
10864TIP3    H232478   9.099   6.360   3.608
10865TIP3   OH232479   9.316   5.826   3.373
10865TIP3    H132480   9.281   5.909   3.341
10865TIP3    H232481   9.254   5.760   3.343
10866TIP3   OH232482   9.437   6.328   3.552
10866TIP3    H132483   9.421   6.327   3.646
10866TIP3    H232484   9.352   6.312   3.513
10867TIP3   OH232485   9.638   6.286   3.365
10867TIP3    H132486   9.561   6.292   3.422
10867TIP3    H232487   9.712   6.275   3.426
10868TIP3   OH232488   0.243   6.141   3.647
10868TIP3    H132489   0.194   6.070   3.689
10868TIP3    H232490   0.175   6.202   3.618
10869TIP3   OH232491   8.925   6.154   3.763
10869TIP3    H132492   8.933   6.064   3.730
10869TIP3    H232493   8.960   6.150   3.852
10870TIP3   OH232494   9.315   5.854   3.641
10870TIP3    H132495   9.328   5.769   3.684
10870TIP3    H232496   9.305   5.832   3.548
10871TIP3   OH232497   9.425   6.056   3.777
10871TIP3    H132498   9.379   5.994   3.721
10871TIP3    H232499   9.372   6.136   3.772
10872TIP3   OH232500   8.791   7.302   1.944
10872TIP3    H132501   8.864   7.290   1.883
10872TIP3    H232502   8.716   7.324   1.888
10873TIP3   OH232503   8.223   6.680   2.055
10873TIP3    H132504   8.318   6.690   2.051
10873TIP3    H232505   8.207   6.589   2.027
10874TIP3   OH232506   8.128   7.258   2.507
10874TIP3    H132507   8.061   7.206   2.464
10874TIP3    H232508   8.171   7.197   2.567
10875TIP3   OH232509   8.269   7.087   2.677
10875TIP3    H132510   8.265   7.016   2.741
10875TIP3    H232511   8.324   7.154   2.718
10876TIP3   OH232512   8.435   6.533   3.061
10876TIP3    H132513   8.426   6.499   2.972
10876TIP3    H232514   8.528   6.526   3.080
10877TIP3   OH232515   8.663   6.203   3.702
10877TIP3    H132516   8.758   6.201   3.719
10877TIP3    H232517   8.631   6.120   3.736
10878TIP3   OH232518   8.624   5.928   3.056
10878TIP3    H132519   8.675   5.847   3.057
10878TIP3    H232520   8.688   5.997   3.038
10879TIP3   OH232521   8.420   6.196   3.102
10879TIP3    H132522   8.468   6.187   3.019
10879TIP3    H232523   8.464   6.269   3.146
10880TIP3   OH232524   8.410   5.697   2.608
10880TIP3    H132525   8.325   5.685   2.649
10880TIP3    H232526   8.392   5.750   2.531
10881TIP3   OH232527   8.628   5.758   3.438
10881TIP3    H132528   8.574   5.745   3.516
10881TIP3    H232529   8.572   5.804   3.377
10882TIP3   OH232530   8.641   7.235   3.473
10882TIP3    H132531   8.551   7.200   3.471
10882TIP3    H232532   8.671   7.216   3.562
10883TIP3   OH232533   8.880   7.261   3.049
10883TIP3    H132534   8.830   7.335   3.017
10883TIP3    H232535   8.965   7.268   3.006
10884TIP3   OH232536   9.272   7.481   3.187
10884TIP3    H132537   9.312   7.477   3.274
10884TIP3    H232538   9.334   7.533   3.135
10885TIP3   OH232539   9.458   7.645   3.061
10885TIP3    H132540   9.544   7.606   3.072
10885TIP3    H232541   9.461   7.726   3.111
10886TIP3   OH232542   8.527   7.491   3.098
10886TIP3    H132543   8.435   7.508   3.078
10886TIP3    H232544   8.552   7.560   3.158
10887TIP3   OH232545   8.759   7.484   2.948
10887TIP3    H132546   8.676   7.488   2.996
10887TIP3    H232547   8.736   7.510   2.859
10888TIP3   OH232548   9.175   7.489   2.699
10888TIP3    H132549   9.086   7.504   2.667
10888TIP3    H232550   9.192   7.563   2.758
10889TIP3   OH232551   9.440   7.428   2.790
10889TIP3    H132552   9.356   7.454   2.752
10889TIP3    H232553   9.473   7.507   2.832
10890TIP3   OH232554   8.438   7.266   2.824
10890TIP3    H132555   8.466   7.245   2.913
10890TIP3    H232556   8.510   7.238   2.768
10891TIP3   OH232557   8.644   7.160   2.683
10891TIP3    H132558   8.654   7.073   2.723
10891TIP3    H232559   8.731   7.199   2.687
10892TIP3   OH232560   8.910   7.248   2.705
10892TIP3    H132561   8.925   7.155   2.690
10892TIP3    H232562   8.969   7.271   2.776
10893TIP3   OH232563   9.362   5.884   2.727
10893TIP3    H132564   9.312   5.833   2.791
10893TIP3    H232565   9.453   5.871   2.751
10894TIP3   OH232566   8.706   5.596   2.786
10894TIP3    H132567   8.618   5.561   2.795
10894TIP3    H232568   8.762   5.518   2.778
10895TIP3   OH232569   8.531   5.500   2.442
10895TIP3    H132570   8.557   5.545   2.362
10895TIP3    H232571   8.498   5.569   2.499
10896TIP3   OH232572   9.125   5.654   2.643
10896TIP3    H132573   9.179   5.705   2.582
10896TIP3    H232574   9.155   5.682   2.729
10897TIP3   OH232575   8.221   7.046   2.205
10897TIP3    H132576   8.133   7.013   2.185
10897TIP3    H232577   8.216   7.140   2.187
10898TIP3   OH232578   8.635   5.621   2.197
10898TIP3    H132579   8.681   5.556   2.144
10898TIP3    H232580   8.704   5.679   2.229
10899TIP3   OH232581   9.105   5.846   2.267
10899TIP3    H132582   9.163   5.803   2.330
10899TIP3    H232583   9.113   5.939   2.286
10900TIP3   OH232584   9.029   7.213   1.834
10900TIP3    H132585   9.117   7.225   1.798
10900TIP3    H232586   8.994   7.137   1.788
10901TIP3   OH232587   8.931   5.881   3.674
10901TIP3    H132588   8.892   5.810   3.726
10901TIP3    H232589   9.019   5.892   3.711
10902TIP3   OH232590   9.144   5.895   3.851
10902TIP3    H132591   9.215   5.871   3.791
10902TIP3    H232592   9.140   5.823   3.914
10903TIP3   OH232593   8.287   7.007   1.928
10903TIP3    H132594   8.288   7.004   2.024
10903TIP3    H232595   8.376   6.982   1.903
10904TIP3   OH232596   0.329   7.488   4.615
10904TIP3    H132597   0.372   7.423   4.671
10904TIP3    H232598   0.307   7.560   4.675
10905TIP3   OH232599   0.955   6.723   4.955
10905TIP3    H132600   0.962   6.816   4.977
10905TIP3    H232601   0.992   6.716   4.867
10906TIP3   OH232602   0.339   6.930   4.951
10906TIP3    H132603   0.343   6.876   5.030
10906TIP3    H232604   0.295   6.875   4.886
10907TIP3   OH232605   0.402   6.736   4.608
10907TIP3    H132606   0.454   6.694   4.677
10907TIP3    H232607   0.445   6.711   4.527
10908TIP3   OH232608   0.993   6.952   5.129
10908TIP3    H132609   0.899   6.960   5.141
10908TIP3    H232610   1.031   6.994   5.206
10909TIP3   OH232611   0.545   6.641   4.817
10909TIP3    H132612   0.550   6.595   4.900
10909TIP3    H232613   0.603   6.716   4.826
10910TIP3   OH232614   0.780   6.620   5.137
10910TIP3    H132615   0.697   6.595   5.095
10910TIP3    H232616   0.836   6.649   5.065
10911TIP3   OH232617   0.311   7.483   4.332
10911TIP3    H132618   0.272   7.396   4.322
10911TIP3    H232619   0.330   7.491   4.426
10912TIP3   OH232620   0.605   7.645   5.124
10912TIP3    H132621   0.593   7.564   5.075
10912TIP3    H232622   0.584   7.715   5.062
10913TIP3   OH232623   0.819   7.280   4.971
10913TIP3    H132624   0.739   7.331   4.978
10913TIP3    H232625   0.846   7.290   4.880
10914TIP3   OH232626   0.233   7.135   4.333
10914TIP3    H132627   0.138   7.135   4.348
10914TIP3    H232628   0.270   7.093   4.411
10915TIP3   OH232629   0.450   7.254   5.179
10915TIP3    H132630   0.486   7.309   5.248
10915TIP3    H232631   0.462   7.165   5.211
10916TIP3   OH232632   0.212   6.923   4.137
10916TIP3    H132633   0.223   6.988   4.205
10916TIP3    H232634   0.188   6.973   4.059
10917TIP3   OH232635   0.632   6.171   4.206
10917TIP3    H132636   0.553   6.196   4.254
10917TIP3    H232637   0.657   6.250   4.158
10918TIP3   OH232638   0.437   7.572   3.812
10918TIP3    H132639   0.429   7.663   3.782
10918TIP3    H232640   0.521   7.543   3.777
10919TIP3   OH232641   0.858   7.966   5.164
10919TIP3    H132642   0.862   7.872   5.181
10919TIP3    H232643   0.777   7.995   5.205
10920TIP3   OH232644   0.730   7.126   5.474
10920TIP3    H132645   0.662   7.183   5.510
10920TIP3    H232646   0.708   7.038   5.506
10921TIP3   OH232647   0.317   6.398   5.493
10921TIP3    H132648   0.409   6.375   5.506
10921TIP3    H232649   0.305   6.478   5.544
10922TIP3   OH232650   0.450   6.791   5.393
10922TIP3    H132651   0.491   6.830   5.470
10922TIP3    H232652   0.445   6.862   5.330
10923TIP3   OH232653   0.150   7.090   3.923
10923TIP3    H132654   0.076   7.150   3.921
10923TIP3    H232655   0.223   7.143   3.957
10924TIP3   OH232656   0.184   6.790   4.780
10924TIP3    H132657   0.147   6.843   4.710
10924TIP3    H232658   0.244   6.730   4.735
10925TIP3   OH232659   0.545   6.508   5.060
10925TIP3    H132660   0.499   6.525   5.142
10925TIP3    H232661   0.505   6.427   5.026
10926TIP3   OH232662   0.594   7.437   4.944
10926TIP3    H132663   0.629   7.482   4.867
10926TIP3    H232664   0.518   7.389   4.911
10927TIP3   OH232665   0.096   6.533   4.269
10927TIP3    H132666   0.038   6.523   4.194
10927TIP3    H232667   0.174   6.575   4.234
10928TIP3   OH232668   0.318   6.676   4.199
10928TIP3    H132669   0.382   6.694   4.267
10928TIP3    H232670   0.288   6.763   4.171
10929TIP3   OH232671   0.628   6.820   4.121
10929TIP3    H132672   0.584   6.766   4.055
10929TIP3    H232673   0.618   6.910   4.090
10930TIP3   OH232674   0.862   7.685   5.201
10930TIP3    H132675   0.767   7.676   5.193
10930TIP3    H232676   0.896   7.657   5.115
10931TIP3   OH232677   0.333   7.612   4.086
10931TIP3    H132678   0.336   7.562   4.168
10931TIP3    H232679   0.381   7.557   4.024
10932TIP3   OH232680   0.391   7.300   4.811
10932TIP3    H132681   0.303   7.286   4.845
10932TIP3    H232682   0.421   7.213   4.785
10933TIP3   OH232683   0.440   7.840   3.726
10933TIP3    H132684   0.509   7.907   3.726
10933TIP3    H232685   0.369   7.878   3.675
10934TIP3   OH232686   0.301   7.252   4.091
10934TIP3    H132687   0.273   7.215   4.175
10934TIP3    H232688   0.394   7.271   4.102
10935TIP3   OH232689   0.410   6.548   5.287
10935TIP3    H132690   0.410   6.623   5.347
10935TIP3    H232691   0.368   6.478   5.337
10936TIP3   OH232692   0.301   6.492   4.445
10936TIP3    H132693   0.218   6.502   4.398
10936TIP3    H232694   0.280   6.514   4.536
10937TIP3   OH232695   0.786   6.837   5.307
10937TIP3    H132696   0.736   6.800   5.380
10937TIP3    H232697   0.788   6.768   5.241
10938TIP3   OH232698   0.487   7.041   4.754
10938TIP3    H132699   0.435   7.005   4.826
10938TIP3    H232700   0.570   6.994   4.758
10939TIP3   OH232701   0.392   7.992   4.740
10939TIP3    H132702   0.345   7.956   4.665
10939TIP3    H232703   0.473   8.028   4.702
10940TIP3   OH232704   0.423   7.116   3.789
10940TIP3    H132705   0.383   7.067   3.717
10940TIP3    H232706   0.375   7.199   3.791
10941TIP3   OH232707   0.445   7.168   5.783
10941TIP3    H132708   0.506   7.095   5.795
10941TIP3    H232709   0.501   7.242   5.760
10942TIP3   OH232710   0.552   7.386   5.409
10942TIP3    H132711   0.500   7.466   5.398
10942TIP3    H232712   0.640   7.411   5.380
10943TIP3   OH232713   0.313   6.945   5.600
10943TIP3    H132714   0.306   6.852   5.579
10943TIP3    H232715   0.368   6.947   5.679
10944TIP3   OH232716   0.691   6.677   5.840
10944TIP3    H132717   0.655   6.613   5.779
10944TIP3    H232718   0.719   6.625   5.916
10945TIP3   OH232719   0.645   8.082   4.669
10945TIP3    H132720   0.685   8.088   4.756
10945TIP3    H232721   0.718   8.093   4.608
10946TIP3   OH232722   0.703   8.064   4.946
10946TIP3    H132723   0.645   7.988   4.952
10946TIP3    H232724   0.775   8.045   5.005
10947TIP3   OH232725   0.727   7.779   5.586
10947TIP3    H132726   0.684   7.795   5.670
10947TIP3    H232727   0.772   7.861   5.566
10948TIP3   OH232728   0.570   7.287   4.135
10948TIP3    H132729   0.627   7.358   4.102
10948TIP3    H232730   0.619   7.251   4.209
10949TIP3   OH232731   0.713   7.152   4.328
10949TIP3    H132732   0.648   7.108   4.383
10949TIP3    H232733   0.778   7.186   4.389
10950TIP3   OH232734   0.745   7.561   4.752
10950TIP3    H132735   0.794   7.484   4.723
10950TIP3    H232736   0.772   7.631   4.693
10951TIP3   OH232737   0.525   7.840   4.940
10951TIP3    H132738   0.453   7.900   4.921
10951TIP3    H232739   0.546   7.800   4.856
10952TIP3   OH232740   0.598   7.057   3.988
10952TIP3    H132741   0.536   7.068   3.916
10952TIP3    H232742   0.586   7.135   4.042
10953TIP3   OH232743   0.531   6.686   3.902
10953TIP3    H132744   0.573   6.726   3.826
10953TIP3    H232745   0.533   6.592   3.884
10954TIP3   OH232746   0.533   7.006   4.474
10954TIP3    H132747   0.526   6.912   4.457
10954TIP3    H232748   0.500   7.018   4.563
10955TIP3   OH232749   0.812   7.443   5.341
10955TIP3    H132750   0.869   7.367   5.325
10955TIP3    H232751   0.843   7.509   5.280
10956TIP3   OH232752   0.953   7.207   5.328
10956TIP3    H132753   0.877   7.170   5.373
10956TIP3    H232754   1.026   7.150   5.355
10957TIP3   OH232755   0.491   6.411   3.886
10957TIP3    H132756   0.564   6.399   3.947
10957TIP3    H232757   0.413   6.393   3.938
10958TIP3   OH232758   0.536   6.728   4.367
10958TIP3    H132759   0.582   6.646   4.380
10958TIP3    H232760   0.577   6.767   4.290
10959TIP3   OH232761   0.689   6.872   4.851
10959TIP3    H132762   0.774   6.892   4.812
10959TIP3    H232763   0.688   6.920   4.934
10960TIP3   OH232764   0.708   7.048   5.059
10960TIP3    H132765   0.625   7.095   5.068
10960TIP3    H232766   0.770   7.115   5.029
10961TIP3   OH232767   1.166   6.647   5.641
10961TIP3    H132768   1.229   6.585   5.605
10961TIP3    H232769   1.134   6.696   5.565
10962TIP3   OH232770   0.643   6.475   4.404
10962TIP3    H132771   0.674   6.456   4.493
10962TIP3    H232772   0.580   6.406   4.385
10963TIP3   OH232773   1.024   6.759   5.428
10963TIP3    H132774   0.944   6.803   5.399
10963TIP3    H232775   1.015   6.669   5.396
10964TIP3   OH232776   0.699   6.390   4.057
10964TIP3    H132777   0.751   6.332   4.001
10964TIP3    H232778   0.752   6.470   4.065
10965TIP3   OH232779   0.955   6.503   5.353
10965TIP3    H132780   0.869   6.502   5.310
10965TIP3    H232781   0.989   6.414   5.340
10966TIP3   OH232782   0.020   6.365   4.884
10966TIP3    H132783  -0.065   6.390   4.921
10966TIP3    H232784   0.080   6.433   4.915
10967TIP3   OH232785   0.664   6.308   4.859
10967TIP3    H132786   0.726   6.357   4.805
10967TIP3    H232787   0.579   6.328   4.821
10968TIP3   OH232788   0.781   6.407   4.636
10968TIP3    H132789   0.849   6.349   4.602
10968TIP3    H232790   0.816   6.495   4.623
10969TIP3   OH232791   0.417   6.323   4.746
10969TIP3    H132792   0.362   6.391   4.707
10969TIP3    H232793   0.384   6.313   4.835
10970TIP3   OH232794   0.440   6.285   4.361
10970TIP3    H132795   0.391   6.357   4.400
10970TIP3    H232796   0.418   6.209   4.415
10971TIP3   OH232797   0.386   7.881   4.064
10971TIP3    H132798   0.374   7.786   4.075
10971TIP3    H232799   0.298   7.915   4.048
10972TIP3   OH232800   0.707   6.398   5.759
10972TIP3    H132801   0.725   6.396   5.853
10972TIP3    H232802   0.787   6.434   5.721
10973TIP3   OH232803   0.613   8.034   5.261
10973TIP3    H132804   0.554   7.970   5.302
10973TIP3    H232805   0.586   8.118   5.299
10974TIP3   OH232806   1.872   7.429   4.018
10974TIP3    H132807   1.840   7.516   3.991
10974TIP3    H232808   1.801   7.369   3.995
10975TIP3   OH232809   1.862   7.416   4.452
10975TIP3    H132810   1.919   7.398   4.527
10975TIP3    H232811   1.821   7.331   4.433
10976TIP3   OH232812   1.160   7.274   4.797
10976TIP3    H132813   1.199   7.224   4.868
10976TIP3    H232814   1.234   7.299   4.741
10977TIP3   OH232815   2.132   7.727   4.120
10977TIP3    H132816   2.123   7.658   4.186
10977TIP3    H232817   2.153   7.805   4.170
10978TIP3   OH232818   1.139   7.696   4.488
10978TIP3    H132819   1.128   7.601   4.482
10978TIP3    H232820   1.234   7.710   4.482
10979TIP3   OH232821   0.857   6.919   4.256
10979TIP3    H132822   0.823   7.005   4.280
10979TIP3    H232823   0.784   6.876   4.211
10980TIP3   OH232824   0.934   7.227   4.479
10980TIP3    H132825   0.983   7.148   4.503
10980TIP3    H232826   1.001   7.291   4.456
10981TIP3   OH232827   1.803   8.143   4.144
10981TIP3    H132828   1.825   8.079   4.076
10981TIP3    H232829   1.811   8.094   4.226
10982TIP3   OH232830   1.670   7.635   4.457
10982TIP3    H132831   1.717   7.556   4.431
10982TIP3    H232832   1.739   7.695   4.485
10983TIP3   OH232833   2.703   6.952   4.469
10983TIP3    H132834   2.721   7.030   4.522
10983TIP3    H232835   2.720   6.979   4.379
10984TIP3   OH232836   2.077   7.131   4.485
10984TIP3    H132837   2.110   7.046   4.514
10984TIP3    H232838   2.039   7.114   4.398
10985TIP3   OH232839   1.445   6.797   4.452
10985TIP3    H132840   1.420   6.865   4.389
10985TIP3    H232841   1.401   6.718   4.421
10986TIP3   OH232842   2.134   6.886   4.081
10986TIP3    H132843   2.195   6.880   4.155
10986TIP3    H232844   2.186   6.921   4.009
10987TIP3   OH232845   1.075   7.004   4.561
10987TIP3    H132846   1.158   6.983   4.604
10987TIP3    H232847   1.072   6.946   4.485
10988TIP3   OH232848   1.475   7.201   4.396
10988TIP3    H132849   1.569   7.185   4.402
10988TIP3    H232850   1.439   7.119   4.362
10989TIP3   OH232851   2.755   7.152   4.654
10989TIP3    H132852   2.673   7.201   4.646
10989TIP3    H232853   2.760   7.127   4.746
10990TIP3   OH232854   1.421   6.787   4.894
10990TIP3    H132855   1.370   6.823   4.822
10990TIP3    H232856   1.368   6.803   4.972
10991TIP3   OH232857   1.769   7.646   3.880
10991TIP3    H132858   1.727   7.613   3.800
10991TIP3    H232859   1.713   7.719   3.907
10992TIP3   OH232860   1.518   7.555   4.674
10992TIP3    H132861   1.462   7.627   4.705
10992TIP3    H232862   1.566   7.592   4.600
10993TIP3   OH232863   2.288   6.913   4.305
10993TIP3    H132864   2.245   6.889   4.387
10993TIP3    H232865   2.344   6.987   4.327
10994TIP3   OH232866   1.311   6.899   4.667
10994TIP3    H132867   1.365   6.973   4.692
10994TIP3    H232868   1.360   6.857   4.596
10995TIP3   OH232869   1.356   7.759   4.770
10995TIP3    H132870   1.347   7.849   4.740
10995TIP3    H232871   1.277   7.743   4.822
10996TIP3   OH232872   0.737   7.476   4.019
10996TIP3    H132873   0.704   7.500   3.932
10996TIP3    H232874   0.761   7.560   4.059
10997TIP3   OH232875   2.161   7.972   4.262
10997TIP3    H132876   2.073   7.966   4.299
10997TIP3    H232877   2.163   8.057   4.219
10998TIP3   OH232878   2.500   6.848   4.638
10998TIP3    H132879   2.417   6.866   4.595
10998TIP3    H232880   2.566   6.873   4.573
10999TIP3   OH232881   1.788   6.525   4.633
10999TIP3    H132882   1.777   6.440   4.589
10999TIP3    H232883   1.702   6.544   4.670
11000TIP3   OH232884   1.880   8.000   3.917
11000TIP3    H132885   1.934   7.922   3.907
11000TIP3    H232886   1.935   8.073   3.888
11001TIP3   OH232887   2.019   7.772   3.872
11001TIP3    H132888   1.944   7.712   3.872
11001TIP3    H232889   2.068   7.748   3.951
11002TIP3   OH232890   2.400   7.861   4.603
11002TIP3    H132891   2.385   7.784   4.548
11002TIP3    H232892   2.387   7.936   4.545
11003TIP3   OH232893   1.696   7.266   3.876
11003TIP3    H132894   1.611   7.307   3.856
11003TIP3    H232895   1.741   7.264   3.792
11004TIP3   OH232896   1.661   7.077   3.561
11004TIP3    H132897   1.727   7.125   3.613
11004TIP3    H232898   1.709   7.007   3.519
11005TIP3   OH232899   2.587   7.524   4.476
11005TIP3    H132900   2.502   7.567   4.474
11005TIP3    H232901   2.623   7.537   4.388
11006TIP3   OH232902   2.057   7.354   3.832
11006TIP3    H132903   2.002   7.384   3.905
11006TIP3    H232904   2.140   7.328   3.873
11007TIP3   OH232905   2.286   7.384   4.787
11007TIP3    H132906   2.283   7.468   4.833
11007TIP3    H232907   2.206   7.382   4.736
11008TIP3   OH232908   1.282   7.332   4.237
11008TIP3    H132909   1.245   7.270   4.173
11008TIP3    H232910   1.353   7.284   4.278
11009TIP3   OH232911   1.408   7.748   4.391
11009TIP3    H132912   1.385   7.736   4.299
11009TIP3    H232913   1.495   7.711   4.399
11010TIP3   OH232914   1.372   7.330   4.617
11010TIP3    H132915   1.411   7.293   4.538
11010TIP3    H232916   1.425   7.407   4.636
11011TIP3   OH232917   1.919   7.972   4.390
11011TIP3    H132918   1.914   8.051   4.444
11011TIP3    H232919   1.909   7.899   4.451
11012TIP3   OH232920   1.556   7.862   4.935
11012TIP3    H132921   1.496   7.921   4.981
11012TIP3    H232922   1.500   7.808   4.880
11013TIP3   OH232923   1.884   7.216   3.667
11013TIP3    H132924   1.944   7.273   3.715
11013TIP3    H232925   1.915   7.218   3.577
11014TIP3   OH232926   1.313   7.434   5.091
11014TIP3    H132927   1.309   7.529   5.104
11014TIP3    H232928   1.221   7.408   5.083
11015TIP3   OH232929   1.630   7.880   3.925
11015TIP3    H132930   1.712   7.930   3.934
11015TIP3    H232931   1.573   7.937   3.873
11016TIP3   OH232932   1.350   8.025   5.020
11016TIP3    H132933   1.323   8.031   4.929
11016TIP3    H232934   1.269   8.010   5.068
11017TIP3   OH232935   2.391   6.439   3.729
11017TIP3    H132936   2.316   6.458   3.784
11017TIP3    H232937   2.400   6.516   3.672
11018TIP3   OH232938   1.157   7.173   4.039
11018TIP3    H132939   1.077   7.218   4.012
11018TIP3    H232940   1.130   7.082   4.052
11019TIP3   OH232941   2.221   7.815   3.283
11019TIP3    H132942   2.212   7.908   3.265
11019TIP3    H232943   2.308   7.792   3.250
11020TIP3   OH232944   0.943   7.585   4.962
11020TIP3    H132945   0.881   7.565   4.892
11020TIP3    H232946   0.980   7.501   4.987
11021TIP3   OH232947   0.874   7.755   4.601
11021TIP3    H132948   0.956   7.730   4.559
11021TIP3    H232949   0.898   7.826   4.660
11022TIP3   OH232950   2.636   8.210   4.680
11022TIP3    H132951   2.640   8.116   4.697
11022TIP3    H232952   2.557   8.239   4.726
11023TIP3   OH232953   1.742   8.007   4.795
11023TIP3    H132954   1.735   8.097   4.828
11023TIP3    H232955   1.676   7.959   4.844
11024TIP3   OH232956   1.521   8.079   3.755
11024TIP3    H132957   1.477   8.069   3.670
11024TIP3    H232958   1.492   8.164   3.788
11025TIP3   OH232959   0.958   7.955   4.138
11025TIP3    H132960   1.003   7.950   4.222
11025TIP3    H232961   0.909   7.873   4.132
11026TIP3   OH232962   1.729   8.031   3.385
11026TIP3    H132963   1.781   7.959   3.350
11026TIP3    H232964   1.760   8.042   3.475
11027TIP3   OH232965   1.775   8.063   3.655
11027TIP3    H132966   1.688   8.065   3.694
11027TIP3    H232967   1.831   8.028   3.724
11028TIP3   OH232968   2.534   7.322   4.942
11028TIP3    H132969   2.450   7.341   4.898
11028TIP3    H232970   2.548   7.229   4.927
11029TIP3   OH232971   1.134   7.781   4.937
11029TIP3    H132972   1.185   7.771   5.018
11029TIP3    H232973   1.067   7.714   4.943
11030TIP3   OH232974   1.529   6.572   4.754
11030TIP3    H132975   1.449   6.536   4.717
11030TIP3    H232976   1.502   6.652   4.799
11031TIP3   OH232977   2.063   6.695   4.958
11031TIP3    H132978   2.133   6.671   5.018
11031TIP3    H232979   1.982   6.679   5.006
11032TIP3   OH232980   2.261   7.117   4.864
11032TIP3    H132981   2.231   7.112   4.955
11032TIP3    H232982   2.259   7.210   4.843
11033TIP3   OH232983   1.966   7.186   3.406
11033TIP3    H132984   1.916   7.192   3.324
11033TIP3    H232985   2.047   7.234   3.388
11034TIP3   OH232986   1.673   6.619   3.727
11034TIP3    H132987   1.638   6.624   3.816
11034TIP3    H232988   1.636   6.539   3.691
11035TIP3   OH232989   1.460   7.109   4.759
11035TIP3    H132990   1.418   7.116   4.845
11035TIP3    H232991   1.435   7.189   4.713
11036TIP3   OH232992   1.336   6.988   4.286
11036TIP3    H132993   1.250   6.954   4.312
11036TIP3    H232994   1.347   6.956   4.196
11037TIP3   OH232995   1.816   7.060   4.013
11037TIP3    H132996   1.769   7.134   3.973
11037TIP3    H232997   1.874   7.028   3.945
11038TIP3   OH232998   2.011   7.326   5.087
11038TIP3    H132999   1.982   7.258   5.147
11038TIP3    H233000   2.104   7.337   5.107
11039TIP3   OH233001   1.989   7.075   4.231
11039TIP3    H133002   1.919   7.092   4.169
11039TIP3    H233003   2.036   7.000   4.195
11040TIP3   OH233004   1.293   7.112   4.982
11040TIP3    H133005   1.359   7.160   5.031
11040TIP3    H233006   1.280   7.031   5.031
11041TIP3   OH233007   1.337   6.600   3.696
11041TIP3    H133008   1.330   6.602   3.792
11041TIP3    H233009   1.258   6.645   3.665
11042TIP3   OH233010   0.899   6.636   4.558
11042TIP3    H133011   0.970   6.675   4.608
11042TIP3    H233012   0.937   6.617   4.472
11043TIP3   OH233013   0.829   6.632   4.073
11043TIP3    H133014   0.865   6.664   3.991
11043TIP3    H233015   0.765   6.698   4.098
11044TIP3   OH233016   2.032   7.329   4.663
11044TIP3    H133017   2.057   7.264   4.598
11044TIP3    H233018   1.991   7.279   4.733
11045TIP3   OH233019   1.708   6.792   4.337
11045TIP3    H133020   1.632   6.783   4.394
11045TIP3    H233021   1.783   6.776   4.394
11046TIP3   OH233022   1.109   6.842   4.343
11046TIP3    H133023   1.023   6.852   4.302
11046TIP3    H233024   1.138   6.755   4.316
11047TIP3   OH233025   1.347   6.868   4.040
11047TIP3    H133026   1.442   6.873   4.031
11047TIP3    H233027   1.313   6.879   3.951
11048TIP3   OH233028   2.146   6.869   4.543
11048TIP3    H133029   2.124   6.883   4.635
11048TIP3    H233030   2.078   6.810   4.510
11049TIP3   OH233031   1.237   6.888   3.789
11049TIP3    H133032   1.174   6.839   3.736
11049TIP3    H233033   1.293   6.932   3.724
11050TIP3   OH233034   2.353   8.563   4.767
11050TIP3    H133035   2.353   8.576   4.672
11050TIP3    H233036   2.431   8.610   4.798
11051TIP3   OH233037   1.286   7.700   5.172
11051TIP3    H133038   1.369   7.714   5.218
11051TIP3    H233039   1.219   7.707   5.240
11052TIP3   OH233040   1.748   7.147   4.441
11052TIP3    H133041   1.806   7.091   4.390
11052TIP3    H233042   1.746   7.107   4.528
11053TIP3   OH233043   1.299   6.592   4.339
11053TIP3    H133044   1.245   6.523   4.378
11053TIP3    H233045   1.382   6.548   4.317
11054TIP3   OH233046   1.725   7.052   4.703
11054TIP3    H133047   1.637   7.078   4.731
11054TIP3    H233048   1.784   7.100   4.761
11055TIP3   OH233049   1.456   7.395   3.818
11055TIP3    H133050   1.381   7.341   3.794
11055TIP3    H233051   1.429   7.438   3.900
11056TIP3   OH233052   2.347   7.656   4.426
11056TIP3    H133053   2.385   7.704   4.353
11056TIP3    H233054   2.269   7.614   4.390
11057TIP3   OH233055   1.924   6.725   3.719
11057TIP3    H133056   1.831   6.701   3.722
11057TIP3    H233057   1.925   6.819   3.739
11058TIP3   OH233058   1.871   7.741   4.839
11058TIP3    H133059   1.928   7.727   4.915
11058TIP3    H233060   1.835   7.828   4.852
11059TIP3   OH233061   1.981   6.986   3.799
11059TIP3    H133062   2.076   6.989   3.811
11059TIP3    H233063   1.961   7.065   3.748
11060TIP3   OH233064   1.149   7.415   4.463
11060TIP3    H133065   1.187   7.396   4.378
11060TIP3    H233066   1.215   7.386   4.526
11061TIP3   OH233067   1.612   7.555   3.664
11061TIP3    H133068   1.563   7.638   3.659
11061TIP3    H233069   1.556   7.497   3.716
11062TIP3   OH233070   1.043   7.363   5.107
11062TIP3    H133071   1.048   7.326   5.195
11062TIP3    H233072   0.973   7.313   5.064
11063TIP3   OH233073   1.791   7.495   5.107
11063TIP3    H133074   1.740   7.472   5.029
11063TIP3    H233075   1.873   7.448   5.097
11064TIP3   OH233076   2.011   8.033   4.720
11064TIP3    H133077   1.916   8.017   4.724
11064TIP3    H233078   2.033   8.068   4.806
11065TIP3   OH233079   2.395   7.068   3.608
11065TIP3    H133080   2.341   7.021   3.545
11065TIP3    H233081   2.399   7.157   3.575
11066TIP3   OH233082   2.646   7.929   4.699
11066TIP3    H133083   2.552   7.917   4.688
11066TIP3    H233084   2.683   7.905   4.614
11067TIP3   OH233085   2.134   7.883   3.551
11067TIP3    H133086   2.106   7.816   3.614
11067TIP3    H233087   2.152   7.834   3.471
11068TIP3   OH233088   2.119   7.522   4.319
11068TIP3    H133089   2.029   7.500   4.345
11068TIP3    H233090   2.155   7.441   4.283
11069TIP3   OH233091   1.274   7.755   4.144
11069TIP3    H133092   1.274   7.831   4.086
11069TIP3    H233093   1.181   7.737   4.159
11070TIP3   OH233094   0.841   7.042   3.858
11070TIP3    H133095   0.882   7.126   3.880
11070TIP3    H233096   0.758   7.043   3.905
11071TIP3   OH233097   1.357   7.514   4.039
11071TIP3    H133098   1.344   7.602   4.073
11071TIP3    H233099   1.333   7.456   4.112
11072TIP3   OH233100   1.558   8.084   4.591
11072TIP3    H133101   1.593   8.157   4.540
11072TIP3    H233102   1.633   8.051   4.641
11073TIP3   OH233103   1.187   7.972   3.989
11073TIP3    H133104   1.100   7.977   4.029
11073TIP3    H233105   1.222   8.061   3.997
11074TIP3   OH233106   1.905   7.749   4.564
11074TIP3    H133107   1.892   7.744   4.659
11074TIP3    H233108   1.982   7.695   4.547
11075TIP3   OH233109   1.905   7.621   3.430
11075TIP3    H133110   1.956   7.592   3.506
11075TIP3    H233111   1.822   7.575   3.438
11076TIP3   OH233112   2.169   8.235   4.608
11076TIP3    H133113   2.100   8.172   4.630
11076TIP3    H233114   2.131   8.289   4.538
11077TIP3   OH233115   2.213   8.087   3.239
11077TIP3    H133116   2.222   8.145   3.163
11077TIP3    H233117   2.141   8.125   3.289
11078TIP3   OH233118   1.256   6.859   5.105
11078TIP3    H133119   1.162   6.875   5.107
11078TIP3    H233120   1.270   6.791   5.171
11079TIP3   OH233121   2.082   7.533   3.621
11079TIP3    H133122   2.064   7.482   3.699
11079TIP3    H233123   2.177   7.541   3.618
11080TIP3   OH233124   0.978   7.968   4.762
11080TIP3    H133125   1.036   7.916   4.818
11080TIP3    H233126   0.985   8.057   4.796
11081TIP3   OH233127   1.256   7.584   3.451
11081TIP3    H133128   1.266   7.493   3.423
11081TIP3    H233129   1.243   7.579   3.546
11082TIP3   OH233130   1.200   7.599   3.723
11082TIP3    H133131   1.263   7.573   3.791
11082TIP3    H233132   1.198   7.695   3.728
11083TIP3   OH233133   0.931   7.294   3.934
11083TIP3    H133134   0.865   7.344   3.983
11083TIP3    H233135   0.951   7.350   3.858
11084TIP3   OH233136   2.074   6.924   4.804
11084TIP3    H133137   2.152   6.972   4.832
11084TIP3    H233138   2.072   6.847   4.859
11085TIP3   OH233139   1.985   6.670   3.990
11085TIP3    H133140   1.965   6.690   3.898
11085TIP3    H233141   2.028   6.749   4.023
11086TIP3   OH233142   1.465   7.781   3.654
11086TIP3    H133143   1.383   7.807   3.695
11086TIP3    H233144   1.490   7.857   3.600
11087TIP3   OH233145   1.626   6.873   4.086
11087TIP3    H133146   1.689   6.940   4.059
11087TIP3    H233147   1.651   6.851   4.175
11088TIP3   OH233148   1.927   7.165   4.859
11088TIP3    H133149   1.956   7.204   4.942
11088TIP3    H233150   1.974   7.082   4.853
11089TIP3   OH233151   1.793   6.571   4.169
11089TIP3    H133152   1.784   6.645   4.230
11089TIP3    H233153   1.865   6.598   4.111
11090TIP3   OH233154   1.219   7.871   3.738
11090TIP3    H133155   1.200   7.945   3.680
11090TIP3    H233156   1.207   7.907   3.826
11091TIP3   OH233157   1.310   6.588   3.970
11091TIP3    H133158   1.291   6.669   4.016
11091TIP3    H233159   1.404   6.574   3.984
11092TIP3   OH233160   2.523   7.058   4.833
11092TIP3    H133161   2.429   7.068   4.844
11092TIP3    H233162   2.532   6.985   4.772
11093TIP3   OH233163   2.211   7.265   4.233
11093TIP3    H133164   2.135   7.208   4.244
11093TIP3    H233165   2.278   7.226   4.289
11094TIP3   OH233166   0.957   7.467   3.716
11094TIP3    H133167   1.030   7.529   3.723
11094TIP3    H233168   0.985   7.405   3.649
11095TIP3   OH233169   0.864   6.767   3.840
11095TIP3    H133170   0.872   6.861   3.849
11095TIP3    H233171   0.814   6.755   3.759
11096TIP3   OH233172   2.193   8.238   4.185
11096TIP3    H133173   2.152   8.288   4.114
11096TIP3    H233174   2.287   8.248   4.170
11097TIP3   OH233175   1.265   6.484   4.712
11097TIP3    H133176   1.237   6.453   4.626
11097TIP3    H233177   1.263   6.406   4.768
11098TIP3   OH233178   0.789   7.733   4.129
11098TIP3    H133179   0.746   7.770   4.206
11098TIP3    H233180   0.743   7.772   4.054
11099TIP3   OH233181   0.980   8.278   5.180
11099TIP3    H133182   1.061   8.281   5.230
11099TIP3    H233183   0.963   8.184   5.169
11100TIP3   OH233184   1.453   8.186   5.219
11100TIP3    H133185   1.543   8.156   5.231
11100TIP3    H233186   1.420   8.135   5.145
11101TIP3   OH233187   1.409   7.785   3.338
11101TIP3    H133188   1.362   7.715   3.384
11101TIP3    H233189   1.483   7.740   3.298
11102TIP3   OH233190   2.067   8.130   4.969
11102TIP3    H133191   2.078   8.058   5.030
11102TIP3    H233192   2.143   8.186   4.984
11103TIP3   OH233193   1.856   7.826   3.258
11103TIP3    H133194   1.887   7.761   3.320
11103TIP3    H233195   1.913   7.817   3.182
11104TIP3   OH233196   1.086   7.685   5.367
11104TIP3    H133197   1.111   7.593   5.375
11104TIP3    H233198   1.002   7.684   5.320
11105TIP3   OH233199   1.078   7.280   3.558
11105TIP3    H133200   1.127   7.256   3.636
11105TIP3    H233201   1.144   7.293   3.491
11106TIP3   OH233202   1.708   7.763   5.143
11106TIP3    H133203   1.666   7.783   5.060
11106TIP3    H233204   1.751   7.679   5.129
11107TIP3   OH233205   1.654   7.500   3.399
11107TIP3    H133206   1.629   7.510   3.491
11107TIP3    H233207   1.632   7.410   3.378
11108TIP3   OH233208   2.180   7.809   4.760
11108TIP3    H133209   2.258   7.834   4.710
11108TIP3    H233210   2.116   7.879   4.741
11109TIP3   OH233211   1.205   7.434   5.371
11109TIP3    H133212   1.278   7.418   5.311
11109TIP3    H233213   1.246   7.449   5.456
11110TIP3   OH233214   1.246   7.221   3.772
11110TIP3    H133215   1.226   7.192   3.861
11110TIP3    H233216   1.294   7.148   3.733
11111TIP3   OH233217   1.521   7.272   5.018
11111TIP3    H133218   1.458   7.338   5.048
11111TIP3    H233219   1.580   7.319   4.960
11112TIP3   OH233220   1.390   7.040   3.618
11112TIP3    H133221   1.360   7.044   3.527
11112TIP3    H233222   1.485   7.050   3.612
11113TIP3   OH233223   2.065   7.677   5.103
11113TIP3    H133224   2.138   7.644   5.051
11113TIP3    H233225   2.064   7.622   5.181
11114TIP3   OH233226   2.180   7.325   3.291
11114TIP3    H133227   2.166   7.285   3.205
11114TIP3    H233228   2.157   7.417   3.280
11115TIP3   OH233229   1.665   7.071   5.139
11115TIP3    H133230   1.674   6.998   5.077
11115TIP3    H233231   1.621   7.140   5.089
11116TIP3   OH233232   1.678   6.877   4.934
11116TIP3    H133233   1.710   6.906   4.849
11116TIP3    H233234   1.589   6.846   4.918
11117TIP3   OH233235   1.683   7.424   4.856
11117TIP3    H133236   1.767   7.420   4.812
11117TIP3    H233237   1.627   7.474   4.796
11118TIP3   OH233238   2.278   7.351   5.190
11118TIP3    H133239   2.314   7.263   5.201
11118TIP3    H233240   2.355   7.407   5.178
11119TIP3   OH233241   2.303   7.631   4.924
11119TIP3    H133242   2.250   7.693   4.873
11119TIP3    H233243   2.392   7.644   4.893
11120TIP3   OH233244   1.551   7.157   5.381
11120TIP3    H133245   1.486   7.090   5.400
11120TIP3    H233246   1.582   7.136   5.293
11121TIP3   OH233247   1.799   6.648   5.043
11121TIP3    H133248   1.759   6.727   5.005
11121TIP3    H233249   1.736   6.578   5.025
11122TIP3   OH233250   1.921   7.117   5.241
11122TIP3    H133251   1.914   7.103   5.335
11122TIP3    H233252   1.835   7.095   5.207
11123TIP3   OH233253   2.168   7.069   5.112
11123TIP3    H133254   2.091   7.067   5.169
11123TIP3    H233255   2.241   7.045   5.168
11124TIP3   OH233256   2.406   7.040   5.256
11124TIP3    H133257   2.423   6.946   5.263
11124TIP3    H233258   2.406   7.072   5.346
11125TIP3   OH233259   1.393   6.934   5.445
11125TIP3    H133260   1.397   6.848   5.404
11125TIP3    H233261   1.433   6.921   5.531
11126TIP3   OH233262   1.864   6.619   5.306
11126TIP3    H133263   1.933   6.552   5.299
11126TIP3    H233264   1.835   6.633   5.216
11127TIP3   OH233265   1.959   6.834   5.450
11127TIP3    H133266   1.931   6.762   5.394
11127TIP3    H233267   1.886   6.896   5.449
11128TIP3   OH233268   1.226   8.088   3.564
11128TIP3    H133269   1.312   8.060   3.532
11128TIP3    H233270   1.179   8.115   3.485
11129TIP3   OH233271   0.683   7.476   3.725
11129TIP3    H133272   0.779   7.484   3.724
11129TIP3    H233273   0.666   7.389   3.688
11130TIP3   OH233274   0.567   8.042   4.192
11130TIP3    H133275   0.509   7.988   4.139
11130TIP3    H233276   0.607   7.981   4.254
11131TIP3   OH233277   0.722   7.877   4.366
11131TIP3    H133278   0.727   7.807   4.431
11131TIP3    H233279   0.770   7.950   4.407
11132TIP3   OH233280   2.464   8.283   4.172
11132TIP3    H133281   2.489   8.302   4.262
11132TIP3    H233282   2.511   8.349   4.120
11133TIP3   OH233283   2.498   8.300   4.450
11133TIP3    H133284   2.446   8.220   4.445
11133TIP3    H233285   2.564   8.281   4.517
11134TIP3   OH233286   2.530   8.026   5.022
11134TIP3    H133287   2.463   8.034   5.090
11134TIP3    H233288   2.579   8.108   5.028
11135TIP3   OH233289   2.361   7.532   3.629
11135TIP3    H133290   2.419   7.603   3.602
11135TIP3    H233291   2.404   7.493   3.705
11136TIP3   OH233292   2.491   7.394   3.832
11136TIP3    H133293   2.424   7.357   3.890
11136TIP3    H233294   2.556   7.431   3.892
11137TIP3   OH233295   2.527   7.796   4.266
11137TIP3    H133296   2.581   7.728   4.227
11137TIP3    H233297   2.534   7.870   4.206
11138TIP3   OH233298   2.336   8.078   4.450
11138TIP3    H133299   2.272   8.124   4.504
11138TIP3    H233300   2.285   8.037   4.381
11139TIP3   OH233301   2.388   7.308   3.472
11139TIP3    H133302   2.316   7.308   3.409
11139TIP3    H233303   2.373   7.385   3.526
11140TIP3   OH233304   2.251   6.952   3.405
11140TIP3    H133305   2.198   6.987   3.333
11140TIP3    H233306   2.243   6.857   3.396
11141TIP3   OH233307   2.283   7.256   3.965
11141TIP3    H133308   2.288   7.161   3.952
11141TIP3    H233309   2.263   7.266   4.058
11142TIP3   OH233310   0.909   7.345   4.723
11142TIP3    H133311   0.899   7.304   4.637
11142TIP3    H233312   1.000   7.330   4.747
11143TIP3   OH233313   2.562   7.673   4.832
11143TIP3    H133314   2.626   7.602   4.820
11143TIP3    H233315   2.589   7.741   4.772
11144TIP3   OH233316   2.738   7.464   4.823
11144TIP3    H133317   2.670   7.411   4.864
11144TIP3    H233318   2.820   7.423   4.849
11145TIP3   OH233319   2.210   6.679   3.379
11145TIP3    H133320   2.271   6.657   3.449
11145TIP3    H233321   2.125   6.648   3.409
11146TIP3   OH233322   2.273   6.977   3.850
11146TIP3    H133323   2.317   6.893   3.863
11146TIP3    H233324   2.314   7.015   3.772
11147TIP3   OH233325   2.425   7.145   4.376
11147TIP3    H133326   2.507   7.160   4.328
11147TIP3    H233327   2.440   7.184   4.462
11148TIP3   OH233328   2.504   7.292   4.603
11148TIP3    H133329   2.435   7.320   4.662
11148TIP3    H233330   2.538   7.373   4.564
11149TIP3   OH233331   1.135   7.008   5.381
11149TIP3    H133332   1.229   7.000   5.396
11149TIP3    H233333   1.099   6.924   5.410
11150TIP3   OH233334   2.387   6.727   3.902
11150TIP3    H133335   2.433   6.715   3.984
11150TIP3    H233336   2.324   6.654   3.899
11151TIP3   OH233337   1.110   6.711   4.723
11151TIP3    H133338   1.163   6.631   4.726
11151TIP3    H233339   1.172   6.781   4.703
11152TIP3   OH233340   0.929   6.993   4.797
11152TIP3    H133341   0.968   6.992   4.710
11152TIP3    H233342   0.979   7.060   4.844
11153TIP3   OH233343   2.813   7.063   4.916
11153TIP3    H133344   2.768   7.077   5.000
11153TIP3    H233345   2.802   6.970   4.898
11154TIP3   OH233346   2.430   6.639   3.542
11154TIP3    H133347   2.479   6.578   3.487
11154TIP3    H233348   2.486   6.716   3.548
11155TIP3   OH233349   0.902   6.493   4.296
11155TIP3    H133350   0.814   6.481   4.333
11155TIP3    H233351   0.888   6.549   4.220
11156TIP3   OH233352   2.013   8.209   3.810
11156TIP3    H133353   2.072   8.195   3.735
11156TIP3    H233354   2.060   8.270   3.866
11157TIP3   OH233355   1.114   6.576   5.128
11157TIP3    H133356   1.051   6.556   5.197
11157TIP3    H233357   1.061   6.619   5.060
11158TIP3   OH233358   1.130   7.998   5.186
11158TIP3    H133359   1.037   7.979   5.173
11158TIP3    H233360   1.142   7.995   5.281
11159TIP3   OH233361   1.333   8.031   4.739
11159TIP3    H133362   1.276   8.100   4.705
11159TIP3    H233363   1.417   8.046   4.695
11160TIP3   OH233364   1.736   8.269   4.881
11160TIP3    H133365   1.776   8.263   4.967
11160TIP3    H233366   1.796   8.325   4.831
11161TIP3   OH233367   1.918   8.427   4.746
11161TIP3    H133368   1.975   8.368   4.694
11161TIP3    H233369   1.979   8.475   4.801
11162TIP3   OH233370   2.749   6.774   4.848
11162TIP3    H133371   2.656   6.766   4.828
11162TIP3    H233372   2.782   6.684   4.848
11163TIP3   OH233373   0.974   8.268   4.787
11163TIP3    H133374   0.890   8.308   4.765
11163TIP3    H233375   1.011   8.326   4.854
11164TIP3   OH233376   1.207   8.247   4.635
11164TIP3    H133377   1.122   8.259   4.679
11164TIP3    H233378   1.192   8.279   4.546
11165TIP3   OH233379   1.636   8.289   4.423
11165TIP3    H133380   1.571   8.296   4.353
11165TIP3    H233381   1.641   8.377   4.460
11166TIP3   OH233382   1.900   8.235   4.482
11166TIP3    H133383   1.809   8.250   4.457
11166TIP3    H233384   1.949   8.300   4.432
11167TIP3   OH233385   2.110   8.402   4.389
11167TIP3    H133386   2.101   8.488   4.348
11167TIP3    H233387   2.136   8.344   4.318
11168TIP3   OH233388   0.894   8.056   4.510
11168TIP3    H133389   0.919   8.035   4.600
11168TIP3    H233390   0.966   8.023   4.456
11169TIP3   OH233391   1.102   7.946   4.373
11169TIP3    H133392   1.115   7.859   4.412
11169TIP3    H233393   1.189   7.986   4.374
11170TIP3   OH233394   1.371   8.026   4.392
11170TIP3    H133395   1.390   7.933   4.379
11170TIP3    H233396   1.429   8.053   4.463
11171TIP3   OH233397   1.934   6.699   4.468
11171TIP3    H133398   1.892   6.637   4.527
11171TIP3    H233399   2.001   6.647   4.422
11172TIP3   OH233400   2.436   6.594   4.356
11172TIP3    H133401   2.471   6.646   4.284
11172TIP3    H233402   2.344   6.617   4.361
11173TIP3   OH233403   2.549   6.681   4.120
11173TIP3    H133404   2.618   6.619   4.099
11173TIP3    H233405   2.589   6.767   4.107
11174TIP3   OH233406   1.175   6.383   4.473
11174TIP3    H133407   1.085   6.350   4.475
11174TIP3    H233408   1.229   6.304   4.468
11175TIP3   OH233409   0.991   6.285   4.121
11175TIP3    H133410   1.028   6.332   4.046
11175TIP3    H233411   0.971   6.354   4.185
11176TIP3   OH233412   1.570   6.480   4.335
11176TIP3    H133413   1.643   6.505   4.278
11176TIP3    H233414   1.607   6.414   4.394
11177TIP3   OH233415   2.152   6.574   4.343
11177TIP3    H133416   2.155   6.537   4.255
11177TIP3    H233417   2.145   6.499   4.401
11178TIP3   OH233418   2.203   6.513   3.914
11178TIP3    H133419   2.123   6.560   3.939
11178TIP3    H233420   2.192   6.426   3.952
11179TIP3   OH233421   0.658   7.844   3.922
11179TIP3    H133422   0.564   7.827   3.918
11179TIP3    H233423   0.671   7.919   3.864
11180TIP3   OH233424   1.105   6.413   3.893
11180TIP3    H133425   1.152   6.353   3.835
11180TIP3    H233426   1.173   6.472   3.926
11181TIP3   OH233427   1.585   6.620   3.989
11181TIP3    H133428   1.645   6.570   4.045
11181TIP3    H233429   1.595   6.711   4.018
11182TIP3   OH233430   1.472   8.007   3.481
11182TIP3    H133431   1.557   8.032   3.445
11182TIP3    H233432   1.442   7.936   3.424
11183TIP3   OH233433   2.166   8.152   3.583
11183TIP3    H133434   2.158   8.057   3.576
11183TIP3    H233435   2.124   8.185   3.503
11184TIP3   OH233436   1.402   6.662   5.357
11184TIP3    H133437   1.366   6.595   5.415
11184TIP3    H233438   1.494   6.669   5.382
11185TIP3   OH233439   1.649   6.669   5.478
11185TIP3    H133440   1.726   6.651   5.424
11185TIP3    H233441   1.644   6.596   5.539
11186TIP3   OH233442   0.772   7.844   3.532
11186TIP3    H133443   0.769   7.862   3.626
11186TIP3    H233444   0.855   7.798   3.519
11187TIP3   OH233445   2.465   6.767   5.268
11187TIP3    H133446   2.481   6.739   5.358
11187TIP3    H233447   2.551   6.763   5.227
11188TIP3   OH233448   2.388   8.289   4.773
11188TIP3    H133449   2.314   8.260   4.721
11188TIP3    H233450   2.377   8.384   4.781
11189TIP3   OH233451   3.667   7.683   3.501
11189TIP3    H133452   3.634   7.769   3.474
11189TIP3    H233453   3.595   7.622   3.485
11190TIP3   OH233454   3.655   7.672   3.934
11190TIP3    H133455   3.709   7.659   4.012
11190TIP3    H233456   3.612   7.587   3.920
11191TIP3   OH233457   2.953   7.535   4.297
11191TIP3    H133458   2.988   7.476   4.363
11191TIP3    H233459   3.027   7.589   4.270
11192TIP3   OH233460   3.928   7.983   3.607
11192TIP3    H133461   3.920   7.915   3.674
11192TIP3    H233462   3.950   8.063   3.656
11193TIP3   OH233463   2.959   7.950   3.954
11193TIP3    H133464   2.936   7.858   3.967
11193TIP3    H233465   3.053   7.954   3.973
11194TIP3   OH233466   2.636   7.168   3.741
11194TIP3    H133467   2.598   7.251   3.771
11194TIP3    H233468   2.562   7.119   3.707
11195TIP3   OH233469   2.720   7.482   3.973
11195TIP3    H133470   2.768   7.404   4.000
11195TIP3    H233471   2.788   7.546   3.954
11196TIP3   OH233472   3.581   8.401   3.622
11196TIP3    H133473   3.609   8.328   3.567
11196TIP3    H233474   3.594   8.371   3.711
11197TIP3   OH233475   3.481   7.897   3.943
11197TIP3    H133476   3.525   7.815   3.920
11197TIP3    H233477   3.551   7.953   3.978
11198TIP3   OH233478   4.501   7.218   3.958
11198TIP3    H133479   4.515   7.301   4.003
11198TIP3    H233480   4.516   7.237   3.866
11199TIP3   OH233481   3.871   7.380   3.973
11199TIP3    H133482   3.904   7.296   4.004
11199TIP3    H233483   3.839   7.363   3.885
11200TIP3   OH233484   3.232   7.042   3.932
11200TIP3    H133485   3.209   7.115   3.875
11200TIP3    H233486   3.174   6.971   3.905
11201TIP3   OH233487   3.929   7.141   3.567
11201TIP3    H133488   3.991   7.135   3.639
11201TIP3    H233489   3.981   7.177   3.494
11202TIP3   OH233490   2.856   7.259   4.064
11202TIP3    H133491   2.939   7.240   4.108
11202TIP3    H233492   2.859   7.206   3.984
11203TIP3   OH233493   3.280   7.457   3.868
11203TIP3    H133494   3.373   7.439   3.881
11203TIP3    H233495   3.243   7.374   3.839
11204TIP3   OH233496   4.555   7.443   4.113
11204TIP3    H133497   4.464   7.473   4.112
11204TIP3    H233498   4.590   7.477   4.196
11205TIP3   OH233499   3.209   7.047   4.391
11205TIP3    H133500   3.156   7.084   4.320
11205TIP3    H233501   3.155   7.059   4.469
11206TIP3   OH233502   3.560   7.895   3.355
11206TIP3    H133503   3.525   7.865   3.272
11206TIP3    H233504   3.503   7.968   3.381
11207TIP3   OH233505   3.310   7.819   4.148
11207TIP3    H133506   3.257   7.890   4.184
11207TIP3    H233507   3.363   7.862   4.080
11208TIP3   OH233508   4.088   7.164   3.787
11208TIP3    H133509   4.042   7.142   3.868
11208TIP3    H233510   4.141   7.240   3.810
11209TIP3   OH233511   3.104   7.153   4.155
11209TIP3    H133512   3.157   7.229   4.179
11209TIP3    H233513   3.153   7.111   4.085
11210TIP3   OH233514   3.148   8.016   4.252
11210TIP3    H133515   3.138   8.108   4.227
11210TIP3    H233516   3.071   7.998   4.307
11211TIP3   OH233517   2.527   7.727   3.513
11211TIP3    H133518   2.475   7.756   3.437
11211TIP3    H233519   2.554   7.808   3.556
11212TIP3   OH233520   3.962   8.228   3.746
11212TIP3    H133521   3.875   8.220   3.785
11212TIP3    H233522   3.962   8.314   3.703
11213TIP3   OH233523   4.300   7.102   4.121
11213TIP3    H133524   4.215   7.129   4.085
11213TIP3    H233525   4.364   7.131   4.057
11214TIP3   OH233526   3.551   6.736   4.120
11214TIP3    H133527   3.545   6.644   4.147
11214TIP3    H233528   3.475   6.778   4.160
11215TIP3   OH233529   3.662   8.241   3.402
11215TIP3    H133530   3.722   8.166   3.394
11215TIP3    H233531   3.716   8.317   3.380
11216TIP3   OH233532   3.816   8.022   3.359
11216TIP3    H133533   3.746   7.956   3.358
11216TIP3    H233534   3.865   8.002   3.439
11217TIP3   OH233535   4.201   8.124   4.086
11217TIP3    H133536   4.185   8.048   4.030
11217TIP3    H233537   4.185   8.200   4.029
11218TIP3   OH233538   3.487   7.519   3.361
11218TIP3    H133539   3.406   7.564   3.339
11218TIP3    H233540   3.536   7.517   3.279
11219TIP3   OH233541   3.456   7.336   3.044
11219TIP3    H133542   3.521   7.383   3.096
11219TIP3    H233543   3.504   7.265   3.003
11220TIP3   OH233544   4.380   7.776   3.956
11220TIP3    H133545   4.297   7.823   3.958
11220TIP3    H233546   4.413   7.790   3.867
11221TIP3   OH233547   3.854   7.605   3.319
11221TIP3    H133548   3.800   7.635   3.392
11221TIP3    H233549   3.938   7.582   3.359
11222TIP3   OH233550   4.074   7.632   4.254
11222TIP3    H133551   4.081   7.717   4.297
11222TIP3    H233552   3.988   7.633   4.212
11223TIP3   OH233553   3.082   7.590   3.722
11223TIP3    H133554   3.044   7.526   3.662
11223TIP3    H233555   3.154   7.544   3.765
11224TIP3   OH233556   3.235   8.012   3.868
11224TIP3    H133557   3.214   7.980   3.780
11224TIP3    H233558   3.321   7.975   3.886
11225TIP3   OH233559   3.179   7.585   4.094
11225TIP3    H133560   3.221   7.549   4.016
11225TIP3    H233561   3.229   7.665   4.112
11226TIP3   OH233562   3.722   8.212   3.873
11226TIP3    H133563   3.711   8.295   3.920
11226TIP3    H233564   3.711   8.145   3.941
11227TIP3   OH233565   3.349   8.121   4.420
11227TIP3    H133566   3.289   8.176   4.469
11227TIP3    H233567   3.292   8.066   4.365
11228TIP3   OH233568   3.677   7.474   3.154
11228TIP3    H133569   3.739   7.528   3.202
11228TIP3    H233570   3.709   7.475   3.064
11229TIP3   OH233571   3.104   7.681   4.541
11229TIP3    H133572   3.108   7.771   4.573
11229TIP3    H233573   3.011   7.658   4.547
11230TIP3   OH233574   3.408   8.136   3.363
11230TIP3    H133575   3.496   8.166   3.387
11230TIP3    H233576   3.354   8.215   3.365
11231TIP3   OH233577   3.135   8.275   4.509
11231TIP3    H133578   3.111   8.283   4.417
11231TIP3    H233579   3.052   8.263   4.555
11232TIP3   OH233580   4.188   6.696   3.213
11232TIP3    H133581   4.112   6.716   3.269
11232TIP3    H233582   4.198   6.773   3.157
11233TIP3   OH233583   2.950   7.430   3.525
11233TIP3    H133584   2.870   7.476   3.499
11233TIP3    H233585   2.920   7.343   3.551
11234TIP3   OH233586   4.016   8.075   2.772
11234TIP3    H133587   4.011   8.168   2.750
11234TIP3    H233588   4.103   8.048   2.743
11235TIP3   OH233589   2.733   7.838   4.458
11235TIP3    H133590   2.662   7.816   4.397
11235TIP3    H233591   2.767   7.753   4.486
11236TIP3   OH233592   2.580   8.033   4.120
11236TIP3    H133593   2.668   8.059   4.146
11236TIP3    H233594   2.525   8.107   4.144
11237TIP3   OH233595   4.436   8.484   4.160
11237TIP3    H133596   4.441   8.389   4.174
11237TIP3    H233597   4.355   8.510   4.204
11238TIP3   OH233598   3.535   8.267   4.280
11238TIP3    H133599   3.532   8.356   4.317
11238TIP3    H233600   3.472   8.217   4.331
11239TIP3   OH233601   3.302   8.355   3.218
11239TIP3    H133602   3.272   8.367   3.128
11239TIP3    H233603   3.280   8.438   3.261
11240TIP3   OH233604   2.749   8.206   3.629
11240TIP3    H133605   2.794   8.200   3.713
11240TIP3    H233606   2.701   8.124   3.621
11241TIP3   OH233607   3.545   8.295   2.869
11241TIP3    H133608   3.590   8.219   2.832
11241TIP3    H233609   3.578   8.300   2.959
11242TIP3   OH233610   3.565   8.319   3.142
11242TIP3    H133611   3.479   8.326   3.183
11242TIP3    H233612   3.623   8.291   3.212
11243TIP3   OH233613   4.338   7.583   4.419
11243TIP3    H133614   4.245   7.597   4.405
11243TIP3    H233615   4.349   7.488   4.417
11244TIP3   OH233616   2.932   8.025   4.425
11244TIP3    H133617   2.984   8.013   4.504
11244TIP3    H233618   2.860   7.963   4.433
11245TIP3   OH233619   3.315   6.832   4.245
11245TIP3    H133620   3.231   6.798   4.214
11245TIP3    H233621   3.292   6.911   4.293
11246TIP3   OH233622   3.857   6.948   4.445
11246TIP3    H133623   3.927   6.926   4.508
11246TIP3    H233624   3.776   6.936   4.494
11247TIP3   OH233625   4.091   7.376   4.357
11247TIP3    H133626   4.041   7.371   4.438
11247TIP3    H233627   4.071   7.463   4.322
11248TIP3   OH233628   3.760   7.443   2.893
11248TIP3    H133629   3.714   7.447   2.809
11248TIP3    H233630   3.841   7.492   2.879
11249TIP3   OH233631   3.468   6.872   3.212
11249TIP3    H133632   3.433   6.879   3.301
11249TIP3    H233633   3.432   6.790   3.178
11250TIP3   OH233634   3.250   7.367   4.250
11250TIP3    H133635   3.204   7.373   4.334
11250TIP3    H233636   3.224   7.447   4.204
11251TIP3   OH233637   3.133   7.241   3.770
11251TIP3    H133638   3.045   7.218   3.798
11251TIP3    H233639   3.141   7.206   3.682
11252TIP3   OH233640   3.611   7.315   3.500
11252TIP3    H133641   3.564   7.388   3.460
11252TIP3    H233642   3.670   7.284   3.431
11253TIP3   OH233643   3.797   7.589   4.583
11253TIP3    H133644   3.776   7.518   4.644
11253TIP3    H233645   3.883   7.620   4.611
11254TIP3   OH233646   3.785   7.328   3.719
11254TIP3    H133647   3.713   7.347   3.659
11254TIP3    H233648   3.832   7.255   3.679
11255TIP3   OH233649   3.090   7.368   4.477
11255TIP3    H133650   3.119   7.426   4.547
11255TIP3    H233651   3.070   7.285   4.521
11256TIP3   OH233652   3.135   6.851   3.187
11256TIP3    H133653   3.126   6.854   3.283
11256TIP3    H233654   3.056   6.895   3.155
11257TIP3   OH233655   2.686   6.899   4.041
11257TIP3    H133656   2.755   6.933   4.097
11257TIP3    H233657   2.731   6.874   3.960
11258TIP3   OH233658   2.585   6.871   3.554
11258TIP3    H133659   2.630   6.907   3.477
11258TIP3    H233660   2.522   6.939   3.579
11259TIP3   OH233661   3.817   7.583   4.146
11259TIP3    H133662   3.842   7.514   4.085
11259TIP3    H233663   3.780   7.535   4.221
11260TIP3   OH233664   3.497   7.029   3.821
11260TIP3    H133665   3.419   7.029   3.877
11260TIP3    H233666   3.570   7.019   3.882
11261TIP3   OH233667   2.894   7.119   3.830
11261TIP3    H133668   2.806   7.123   3.793
11261TIP3    H233669   2.921   7.028   3.818
11262TIP3   OH233670   3.145   7.117   3.525
11262TIP3    H133671   3.240   7.128   3.517
11262TIP3    H233672   3.111   7.135   3.438
11263TIP3   OH233673   3.943   7.116   4.018
11263TIP3    H133674   3.936   7.129   4.113
11263TIP3    H233675   3.871   7.057   3.997
11264TIP3   OH233676   3.036   7.144   3.275
11264TIP3    H133677   2.973   7.093   3.224
11264TIP3    H233678   3.090   7.189   3.209
11265TIP3   OH233679   4.148   8.824   4.257
11265TIP3    H133680   4.151   8.833   4.162
11265TIP3    H233681   4.228   8.868   4.287
11266TIP3   OH233682   3.088   7.941   4.655
11266TIP3    H133683   3.170   7.956   4.703
11266TIP3    H233684   3.020   7.945   4.721
11267TIP3   OH233685   3.547   7.402   3.934
11267TIP3    H133686   3.619   7.353   3.894
11267TIP3    H233687   3.543   7.369   4.024
11268TIP3   OH233688   3.035   6.869   3.821
11268TIP3    H133689   3.008   6.794   3.873
11268TIP3    H233690   3.059   6.832   3.736
11269TIP3   OH233691   3.522   7.320   4.202
11269TIP3    H133692   3.435   7.352   4.225
11269TIP3    H233693   3.582   7.370   4.257
11270TIP3   OH233694   3.250   7.661   3.299
11270TIP3    H133695   3.181   7.597   3.281
11270TIP3    H233696   3.225   7.701   3.382
11271TIP3   OH233697   4.148   7.918   3.909
11271TIP3    H133698   4.182   7.967   3.835
11271TIP3    H233699   4.068   7.877   3.876
11272TIP3   OH233700   3.719   6.980   3.207
11272TIP3    H133701   3.626   6.956   3.209
11272TIP3    H233702   3.720   7.074   3.226
11273TIP3   OH233703   3.669   7.992   4.337
11273TIP3    H133704   3.727   7.968   4.409
11273TIP3    H233705   3.636   8.079   4.361
11274TIP3   OH233706   3.777   7.242   3.284
11274TIP3    H133707   3.872   7.244   3.297
11274TIP3    H233708   3.758   7.321   3.234
11275TIP3   OH233709   2.945   7.660   3.956
11275TIP3    H133710   2.985   7.646   3.870
11275TIP3    H233711   3.011   7.630   4.019
11276TIP3   OH233712   3.386   7.831   3.138
11276TIP3    H133713   3.331   7.910   3.139
11276TIP3    H233714   3.340   7.769   3.194
11277TIP3   OH233715   2.834   7.617   4.596
11277TIP3    H133716   2.850   7.603   4.689
11277TIP3    H233717   2.762   7.558   4.575
11278TIP3   OH233718   3.564   7.740   4.606
11278TIP3    H133719   3.499   7.675   4.579
11278TIP3    H233720   3.648   7.700   4.586
11279TIP3   OH233721   3.803   8.282   4.195
11279TIP3    H133722   3.709   8.268   4.204
11279TIP3    H233723   3.830   8.323   4.277
11280TIP3   OH233724   4.192   7.324   3.096
11280TIP3    H133725   4.137   7.278   3.032
11280TIP3    H233726   4.196   7.414   3.064
11281TIP3   OH233727   4.446   8.199   4.182
11281TIP3    H133728   4.351   8.186   4.176
11281TIP3    H233729   4.480   8.172   4.097
11282TIP3   OH233730   3.927   8.147   3.036
11282TIP3    H133731   3.906   8.077   3.098
11282TIP3    H233732   3.949   8.101   2.955
11283TIP3   OH233733   3.919   7.781   3.806
11283TIP3    H133734   3.830   7.762   3.838
11283TIP3    H233735   3.951   7.697   3.772
11284TIP3   OH233736   3.058   8.005   3.631
11284TIP3    H133737   3.043   8.085   3.582
11284TIP3    H233738   2.993   8.007   3.701
11285TIP3   OH233739   2.630   7.298   3.341
11285TIP3    H133740   2.672   7.381   3.364
11285TIP3    H233741   2.549   7.298   3.390
11286TIP3   OH233742   3.149   7.772   3.523
11286TIP3    H133743   3.124   7.857   3.558
11286TIP3    H233744   3.130   7.711   3.594
11287TIP3   OH233745   3.354   8.336   4.078
11287TIP3    H133746   3.392   8.408   4.027
11287TIP3    H233747   3.426   8.305   4.133
11288TIP3   OH233748   2.984   8.235   3.494
11288TIP3    H133749   2.899   8.240   3.538
11288TIP3    H233750   3.021   8.322   3.503
11289TIP3   OH233751   3.709   8.002   4.064
11289TIP3    H133752   3.687   8.000   4.157
11289TIP3    H233753   3.800   7.971   4.060
11290TIP3   OH233754   3.697   7.875   2.915
11290TIP3    H133755   3.747   7.845   2.991
11290TIP3    H233756   3.613   7.831   2.923
11291TIP3   OH233757   3.956   8.494   4.093
11291TIP3    H133758   3.890   8.428   4.111
11291TIP3    H233759   3.919   8.546   4.022
11292TIP3   OH233760   4.020   8.347   2.725
11292TIP3    H133761   4.057   8.418   2.672
11292TIP3    H233762   3.942   8.386   2.764
11293TIP3   OH233763   3.037   7.120   4.604
11293TIP3    H133764   2.943   7.130   4.620
11293TIP3    H233765   3.069   7.071   4.680
11294TIP3   OH233766   3.873   7.785   3.107
11294TIP3    H133767   3.859   7.733   3.186
11294TIP3    H233768   3.968   7.797   3.102
11295TIP3   OH233769   2.782   8.223   4.237
11295TIP3    H133770   2.835   8.169   4.295
11295TIP3    H233771   2.791   8.312   4.272
11296TIP3   OH233772   3.010   7.894   3.179
11296TIP3    H133773   3.032   7.808   3.142
11296TIP3    H233774   3.012   7.880   3.274
11297TIP3   OH233775   2.722   7.553   3.418
11297TIP3    H133776   2.657   7.598   3.471
11297TIP3    H233777   2.741   7.614   3.347
11298TIP3   OH233778   3.916   7.163   4.282
11298TIP3    H133779   3.978   7.220   4.327
11298TIP3    H233780   3.895   7.095   4.346
11299TIP3   OH233781   3.779   6.926   3.478
11299TIP3    H133782   3.760   6.946   3.386
11299TIP3    H233783   3.823   7.004   3.511
11300TIP3   OH233784   3.241   8.081   3.137
11300TIP3    H133785   3.287   8.097   3.219
11300TIP3    H233786   3.285   8.137   3.073
11301TIP3   OH233787   3.424   7.125   3.571
11301TIP3    H133788   3.487   7.194   3.547
11301TIP3    H233789   3.447   7.103   3.662
11302TIP3   OH233790   3.733   7.429   4.361
11302TIP3    H133791   3.751   7.485   4.436
11302TIP3    H233792   3.780   7.348   4.380
11303TIP3   OH233793   3.594   6.820   3.657
11303TIP3    H133794   3.571   6.897   3.710
11303TIP3    H233795   3.663   6.851   3.599
11304TIP3   OH233796   2.951   8.194   3.231
11304TIP3    H133797   2.888   8.263   3.212
11304TIP3    H233798   2.968   8.201   3.325
11305TIP3   OH233799   3.105   6.843   3.465
11305TIP3    H133800   3.093   6.933   3.495
11305TIP3    H233801   3.200   6.828   3.473
11306TIP3   OH233802   4.349   7.296   4.326
11306TIP3    H133803   4.257   7.319   4.344
11306TIP3    H233804   4.344   7.231   4.257
11307TIP3   OH233805   4.006   7.520   3.720
11307TIP3    H133806   3.929   7.465   3.733
11307TIP3    H233807   4.072   7.482   3.777
11308TIP3   OH233808   2.743   7.740   3.205
11308TIP3    H133809   2.791   7.820   3.187
11308TIP3    H233810   2.780   7.675   3.145
11309TIP3   OH233811   2.648   7.019   3.331
11309TIP3    H133812   2.664   7.113   3.342
11309TIP3    H233813   2.575   7.015   3.269
11310TIP3   OH233814   3.984   8.492   3.660
11310TIP3    H133815   3.940   8.541   3.590
11310TIP3    H233816   4.077   8.513   3.650
11311TIP3   OH233817   3.057   6.742   4.200
11311TIP3    H133818   3.026   6.709   4.115
11311TIP3    H233819   3.050   6.667   4.259
11312TIP3   OH233820   2.575   7.987   3.602
11312TIP3    H133821   2.536   8.022   3.682
11312TIP3    H233822   2.527   8.029   3.531
11313TIP3   OH233823   2.782   8.533   4.669
11313TIP3    H133824   2.863   8.544   4.719
11313TIP3    H233825   2.773   8.439   4.657
11314TIP3   OH233826   3.243   8.441   4.701
11314TIP3    H133827   3.332   8.407   4.716
11314TIP3    H233828   3.209   8.387   4.630
11315TIP3   OH233829   3.874   8.393   4.429
11315TIP3    H133830   3.865   8.320   4.490
11315TIP3    H233831   3.948   8.444   4.463
11316TIP3   OH233832   3.644   8.078   2.740
11316TIP3    H133833   3.675   8.011   2.801
11316TIP3    H233834   3.702   8.070   2.664
11317TIP3   OH233835   2.883   7.937   4.845
11317TIP3    H133836   2.908   7.846   4.855
11317TIP3    H233837   2.794   7.934   4.809
11318TIP3   OH233838   2.874   7.557   3.057
11318TIP3    H133839   2.924   7.520   3.129
11318TIP3    H233840   2.936   7.557   2.983
11319TIP3   OH233841   3.500   8.015   4.627
11319TIP3    H133842   3.458   8.037   4.544
11319TIP3    H233843   3.535   7.927   4.613
11320TIP3   OH233844   3.434   7.768   2.874
11320TIP3    H133845   3.410   7.778   2.966
11320TIP3    H233846   3.418   7.676   2.855
11321TIP3   OH233847   3.971   8.057   4.223
11321TIP3    H133848   4.051   8.092   4.184
11321TIP3    H233849   3.908   8.129   4.216
11322TIP3   OH233850   2.994   7.682   4.849
11322TIP3    H133851   3.071   7.640   4.812
11322TIP3    H233852   3.016   7.696   4.941
11323TIP3   OH233853   3.046   7.481   3.263
11323TIP3    H133854   3.022   7.450   3.350
11323TIP3    H233855   3.090   7.406   3.222
11324TIP3   OH233856   3.354   7.558   4.509
11324TIP3    H133857   3.271   7.606   4.517
11324TIP3    H233858   3.390   7.586   4.425
11325TIP3   OH233859   3.184   7.299   3.102
11325TIP3    H133860   3.154   7.298   3.012
11325TIP3    H233861   3.279   7.309   3.096
11326TIP3   OH233862   3.862   7.937   4.614
11326TIP3    H133863   3.957   7.925   4.604
11326TIP3    H233864   3.842   7.895   4.698
11327TIP3   OH233865   3.975   7.584   2.786
11327TIP3    H133866   3.963   7.544   2.700
11327TIP3    H233867   3.954   7.676   2.773
11328TIP3   OH233868   3.466   7.333   4.621
11328TIP3    H133869   3.468   7.261   4.558
11328TIP3    H233870   3.428   7.406   4.573
11329TIP3   OH233871   3.470   7.133   4.420
11329TIP3    H133872   3.494   7.173   4.337
11329TIP3    H233873   3.379   7.106   4.408
11330TIP3   OH233874   3.479   7.653   4.287
11330TIP3    H133875   3.566   7.692   4.285
11330TIP3    H233876   3.424   7.714   4.239
11331TIP3   OH233877   4.046   7.644   4.701
11331TIP3    H133878   4.087   7.578   4.757
11331TIP3    H233879   4.112   7.713   4.692
11332TIP3   OH233880   4.117   7.877   4.372
11332TIP3    H133881   4.056   7.938   4.330
11332TIP3    H233882   4.204   7.906   4.342
11333TIP3   OH233883   3.352   7.417   4.864
11333TIP3    H133884   3.286   7.352   4.887
11333TIP3    H233885   3.382   7.390   4.777
11334TIP3   OH233886   3.590   6.901   4.524
11334TIP3    H133887   3.550   6.982   4.491
11334TIP3    H233888   3.523   6.834   4.513
11335TIP3   OH233889   3.719   7.369   4.729
11335TIP3    H133890   3.706   7.356   4.823
11335TIP3    H233891   3.634   7.351   4.690
11336TIP3   OH233892   3.945   7.309   4.574
11336TIP3    H133893   3.874   7.320   4.638
11336TIP3    H233894   4.023   7.293   4.627
11337TIP3   OH233895   4.197   7.277   4.700
11337TIP3    H133896   4.209   7.187   4.732
11337TIP3    H233897   4.177   7.328   4.779
11338TIP3   OH233898   3.196   7.195   4.926
11338TIP3    H133899   3.188   7.107   4.891
11338TIP3    H233900   3.232   7.183   5.014
11339TIP3   OH233901   3.661   6.876   4.788
11339TIP3    H133902   3.730   6.810   4.780
11339TIP3    H233903   3.630   6.888   4.698
11340TIP3   OH233904   3.755   7.092   4.933
11340TIP3    H133905   3.723   7.021   4.878
11340TIP3    H233906   3.684   7.156   4.935
11341TIP3   OH233907   3.028   8.192   2.951
11341TIP3    H133908   3.110   8.240   2.949
11341TIP3    H233909   2.971   8.238   2.889
11342TIP3   OH233910   2.469   7.732   3.193
11342TIP3    H133911   2.563   7.736   3.211
11342TIP3    H233912   2.454   7.643   3.164
11343TIP3   OH233913   2.389   8.280   3.678
11343TIP3    H133914   2.320   8.231   3.635
11343TIP3    H233915   2.429   8.218   3.739
11344TIP3   OH233916   2.530   8.121   3.852
11344TIP3    H133917   2.527   8.057   3.923
11344TIP3    H233918   2.579   8.195   3.889
11345TIP3   OH233919   4.244   8.574   3.647
11345TIP3    H133920   4.275   8.584   3.737
11345TIP3    H233921   4.321   8.593   3.593
11346TIP3   OH233922   4.283   8.574   3.931
11346TIP3    H133923   4.234   8.493   3.925
11346TIP3    H233924   4.351   8.556   3.996
11347TIP3   OH233925   4.310   8.274   4.526
11347TIP3    H133926   4.240   8.282   4.592
11347TIP3    H233927   4.359   8.356   4.534
11348TIP3   OH233928   4.153   7.791   3.116
11348TIP3    H133929   4.211   7.862   3.087
11348TIP3    H233930   4.198   7.754   3.192
11349TIP3   OH233931   4.286   7.650   3.316
11349TIP3    H133932   4.220   7.613   3.375
11349TIP3    H233933   4.352   7.687   3.375
11350TIP3   OH233934   4.332   8.056   3.748
11350TIP3    H133935   4.383   7.983   3.713
11350TIP3    H233936   4.347   8.127   3.686
11351TIP3   OH233937   4.132   8.343   3.936
11351TIP3    H133938   4.066   8.386   3.990
11351TIP3    H233939   4.082   8.301   3.866
11352TIP3   OH233940   4.185   7.565   2.963
11352TIP3    H133941   4.112   7.566   2.901
11352TIP3    H233942   4.171   7.643   3.017
11353TIP3   OH233943   4.047   7.209   2.893
11353TIP3    H133944   3.994   7.244   2.821
11353TIP3    H233945   4.041   7.114   2.884
11354TIP3   OH233946   4.081   7.512   3.453
11354TIP3    H133947   4.086   7.417   3.441
11354TIP3    H233948   4.060   7.524   3.546
11355TIP3   OH233949   2.694   7.580   4.228
11355TIP3    H133950   2.687   7.545   4.139
11355TIP3    H233951   2.786   7.570   4.250
11356TIP3   OH233952   4.379   7.942   4.308
11356TIP3    H133953   4.442   7.871   4.296
11356TIP3    H233954   4.411   8.013   4.253
11357TIP3   OH233955   4.542   7.719   4.302
11357TIP3    H133956   4.466   7.677   4.342
11357TIP3    H233957   4.616   7.662   4.324
11358TIP3   OH233958   4.005   6.936   2.864
11358TIP3    H133959   4.067   6.914   2.934
11358TIP3    H233960   3.921   6.904   2.896
11359TIP3   OH233961   4.068   7.233   3.336
11359TIP3    H133962   4.114   7.150   3.350
11359TIP3    H233963   4.110   7.271   3.260
11360TIP3   OH233964   4.220   7.399   3.861
11360TIP3    H133965   4.302   7.415   3.814
11360TIP3    H233966   4.232   7.439   3.947
11361TIP3   OH233967   4.293   7.547   4.087
11361TIP3    H133968   4.223   7.571   4.147
11361TIP3    H233969   4.322   7.630   4.049
11362TIP3   OH233970   2.947   7.308   4.912
11362TIP3    H133971   3.039   7.281   4.915
11362TIP3    H233972   2.897   7.227   4.920
11363TIP3   OH233973   4.789   7.172   4.635
11363TIP3    H133974   4.839   7.100   4.595
11363TIP3    H233975   4.738   7.209   4.563
11364TIP3   OH233976   4.185   6.984   3.388
11364TIP3    H133977   4.231   6.971   3.471
11364TIP3    H233978   4.122   6.912   3.384
11365TIP3   OH233979   2.896   6.968   4.207
11365TIP3    H133980   2.948   6.888   4.219
11365TIP3    H233981   2.960   7.037   4.195
11366TIP3   OH233982   2.674   7.221   4.280
11366TIP3    H133983   2.725   7.219   4.199
11366TIP3    H233984   2.707   7.297   4.328
11367TIP3   OH233985   4.615   7.272   4.449
11367TIP3    H133986   4.547   7.314   4.504
11367TIP3    H233987   4.566   7.220   4.386
11368TIP3   OH233988   4.226   6.897   3.028
11368TIP3    H133989   4.276   6.836   2.973
11368TIP3    H233990   4.282   6.974   3.034
11369TIP3   OH233991   2.657   6.730   3.776
11369TIP3    H133992   2.574   6.722   3.822
11369TIP3    H233993   2.639   6.788   3.703
11370TIP3   OH233994   3.792   8.454   3.298
11370TIP3    H133995   3.854   8.447   3.225
11370TIP3    H233996   3.832   8.518   3.357
11371TIP3   OH233997   2.878   6.775   4.593
11371TIP3    H133998   2.842   6.785   4.681
11371TIP3    H233999   2.823   6.831   4.538
11372TIP3   OH234000   2.907   8.257   4.673
11372TIP3    H134001   2.816   8.229   4.670
11372TIP3    H234002   2.934   8.243   4.764
11373TIP3   OH234003   3.129   8.288   4.227
11373TIP3    H134004   3.073   8.357   4.192
11373TIP3    H234005   3.214   8.302   4.186
11374TIP3   OH234006   3.534   8.529   4.371
11374TIP3    H134007   3.575   8.516   4.457
11374TIP3    H234008   3.598   8.581   4.322
11375TIP3   OH234009   3.724   8.679   4.237
11375TIP3    H134010   3.794   8.620   4.207
11375TIP3    H234011   3.770   8.744   4.290
11376TIP3   OH234012   4.523   7.010   4.330
11376TIP3    H134013   4.434   6.999   4.297
11376TIP3    H234014   4.561   6.922   4.325
11377TIP3   OH234015   2.779   8.513   4.274
11377TIP3    H134016   2.688   8.534   4.253
11377TIP3    H234017   2.805   8.579   4.338
11378TIP3   OH234018   3.006   8.503   4.117
11378TIP3    H134019   2.923   8.511   4.165
11378TIP3    H234020   2.985   8.529   4.027
11379TIP3   OH234021   3.430   8.543   3.908
11379TIP3    H134022   3.353   8.557   3.853
11379TIP3    H234023   3.438   8.624   3.959
11380TIP3   OH234024   3.691   8.473   3.950
11380TIP3    H134025   3.600   8.499   3.936
11380TIP3    H234026   3.743   8.546   3.917
11381TIP3   OH234027   3.888   8.648   3.867
11381TIP3    H134028   3.897   8.737   3.834
11381TIP3    H234029   3.921   8.593   3.796
11382TIP3   OH234030   2.700   8.312   3.982
11382TIP3    H134031   2.719   8.289   4.073
11382TIP3    H234032   2.776   8.281   3.932
11383TIP3   OH234033   2.909   8.196   3.851
11383TIP3    H134034   2.919   8.112   3.896
11383TIP3    H234035   2.995   8.238   3.859
11384TIP3   OH234036   3.174   8.283   3.874
11384TIP3    H134037   3.197   8.191   3.860
11384TIP3    H234038   3.226   8.310   3.950
11385TIP3   OH234039   3.723   6.936   3.958
11385TIP3    H134040   3.687   6.866   4.013
11385TIP3    H234041   3.793   6.893   3.908
11386TIP3   OH234042   4.230   6.853   3.844
11386TIP3    H134043   4.267   6.905   3.772
11386TIP3    H234044   4.139   6.882   3.850
11387TIP3   OH234045   4.346   6.936   3.608
11387TIP3    H134046   4.415   6.874   3.586
11387TIP3    H234047   4.385   7.022   3.595
11388TIP3   OH234048   2.966   6.638   3.959
11388TIP3    H134049   2.877   6.604   3.973
11388TIP3    H234050   3.021   6.560   3.953
11389TIP3   OH234051   2.774   6.539   3.604
11389TIP3    H134052   2.805   6.591   3.530
11389TIP3    H234053   2.741   6.603   3.667
11390TIP3   OH234054   3.450   6.677   3.858
11390TIP3    H134055   3.498   6.726   3.791
11390TIP3    H234056   3.487   6.706   3.941
11391TIP3   OH234057   3.939   6.818   3.829
11391TIP3    H134058   3.960   6.780   3.743
11391TIP3    H234059   3.946   6.744   3.890
11392TIP3   OH234060   3.999   6.774   3.399
11392TIP3    H134061   3.920   6.821   3.424
11392TIP3    H234062   3.989   6.687   3.438
11393TIP3   OH234063   2.456   8.097   3.379
11393TIP3    H134064   2.368   8.078   3.347
11393TIP3    H234065   2.475   8.185   3.346
11394TIP3   OH234066   2.894   6.676   3.376
11394TIP3    H134067   2.941   6.614   3.319
11394TIP3    H234068   2.963   6.732   3.413
11395TIP3   OH234069   3.381   6.873   3.475
11395TIP3    H134070   3.440   6.821   3.530
11395TIP3    H234071   3.394   6.963   3.505
11396TIP3   OH234072   3.280   8.296   2.930
11396TIP3    H134073   3.375   8.310   2.931
11396TIP3    H234074   3.258   8.290   2.837
11397TIP3   OH234075   3.956   8.416   3.071
11397TIP3    H134076   3.951   8.321   3.065
11397TIP3    H234077   3.919   8.448   2.989
11398TIP3   OH234078   3.185   6.929   4.828
11398TIP3    H134079   3.147   6.865   4.888
11398TIP3    H234080   3.278   6.933   4.854
11399TIP3   OH234081   3.436   6.926   4.950
11399TIP3    H134082   3.517   6.903   4.904
11399TIP3    H234083   3.423   6.854   5.012
11400TIP3   OH234084   2.556   8.129   3.055
11400TIP3    H134085   2.516   8.196   3.111
11400TIP3    H234086   2.563   8.052   3.111
11401TIP3   OH234087   4.267   7.012   4.754
11401TIP3    H134088   4.283   6.986   4.845
11401TIP3    H234089   4.353   7.009   4.712
11402TIP3   OH234090   4.185   8.549   4.250
11402TIP3    H134091   4.106   8.519   4.205
11402TIP3    H234092   4.168   8.641   4.270
11403TIP3   OH234093   5.455   7.922   2.988
11403TIP3    H134094   5.414   8.009   2.983
11403TIP3    H234095   5.385   7.861   2.968
11404TIP3   OH234096   5.481   7.913   3.407
11404TIP3    H134097   5.528   7.902   3.490
11404TIP3    H234098   5.430   7.833   3.398
11405TIP3   OH234099   4.755   7.800   3.764
11405TIP3    H134100   4.791   7.747   3.836
11405TIP3    H234101   4.831   7.822   3.710
11406TIP3   OH234102   5.722   8.236   3.084
11406TIP3    H134103   5.715   8.169   3.153
11406TIP3    H234104   5.744   8.316   3.131
11407TIP3   OH234105   4.702   8.204   3.508
11407TIP3    H134106   4.703   8.111   3.485
11407TIP3    H234107   4.775   8.215   3.569
11408TIP3   OH234108   4.432   7.423   3.231
11408TIP3    H134109   4.395   7.507   3.258
11408TIP3    H234110   4.358   7.375   3.195
11409TIP3   OH234111   4.513   7.736   3.457
11409TIP3    H134112   4.564   7.660   3.485
11409TIP3    H234113   4.578   7.803   3.439
11410TIP3   OH234114   5.358   8.688   3.120
11410TIP3    H134115   5.390   8.598   3.122
11410TIP3    H234116   5.320   8.702   3.206
11411TIP3   OH234117   5.301   8.123   3.460
11411TIP3    H134118   5.349   8.050   3.422
11411TIP3    H234119   5.369   8.185   3.486
11412TIP3   OH234120   6.292   7.423   3.408
11412TIP3    H134121   6.250   7.501   3.445
11412TIP3    H234122   6.352   7.457   3.342
11413TIP3   OH234123   5.678   7.639   3.458
11413TIP3    H134124   5.704   7.552   3.486
11413TIP3    H234125   5.636   7.626   3.373
11414TIP3   OH234126   5.027   7.297   3.417
11414TIP3    H134127   5.004   7.371   3.360
11414TIP3    H234128   4.969   7.226   3.390
11415TIP3   OH234129   5.729   7.400   3.059
11415TIP3    H134130   5.791   7.394   3.133
11415TIP3    H234131   5.780   7.438   2.988
11416TIP3   OH234132   4.653   7.517   3.553
11416TIP3    H134133   4.736   7.498   3.596
11416TIP3    H234134   4.656   7.465   3.472
11417TIP3   OH234135   5.072   7.717   3.357
11417TIP3    H134136   5.165   7.700   3.368
11417TIP3    H234137   5.036   7.635   3.324
11418TIP3   OH234138   6.333   7.668   3.623
11418TIP3    H134139   6.258   7.724   3.602
11418TIP3    H234140   6.383   7.718   3.688
11419TIP3   OH234141   5.011   7.308   3.873
11419TIP3    H134142   4.964   7.344   3.798
11419TIP3    H234143   4.953   7.323   3.947
11420TIP3   OH234144   5.325   8.155   2.906
11420TIP3    H134145   5.410   8.192   2.883
11420TIP3    H234146   5.266   8.230   2.906
11421TIP3   OH234147   5.096   8.073   3.635
11421TIP3    H134148   5.043   8.150   3.658
11421TIP3    H234149   5.158   8.106   3.569
11422TIP3   OH234150   5.890   7.410   3.282
11422TIP3    H134151   5.839   7.385   3.359
11422TIP3    H234152   5.937   7.489   3.308
11423TIP3   OH234153   4.903   7.411   3.640
11423TIP3    H134154   4.957   7.487   3.662
11423TIP3    H234155   4.950   7.369   3.568
11424TIP3   OH234156   4.921   8.275   3.718
11424TIP3    H134157   4.922   8.369   3.702
11424TIP3    H234158   4.856   8.263   3.787
11425TIP3   OH234159   4.320   7.983   2.998
11425TIP3    H134160   4.280   8.008   2.914
11425TIP3    H234161   4.343   8.066   3.040
11426TIP3   OH234162   5.766   8.481   3.223
11426TIP3    H134163   5.682   8.471   3.268
11426TIP3    H234164   5.760   8.567   3.181
11427TIP3   OH234165   5.346   6.991   3.605
11427TIP3    H134166   5.337   6.899   3.631
11427TIP3    H234167   5.271   7.035   3.644
11428TIP3   OH234168   5.440   8.477   2.912
11428TIP3    H134169   5.493   8.399   2.894
11428TIP3    H234170   5.496   8.550   2.886
11429TIP3   OH234171   5.579   8.249   2.851
11429TIP3    H134172   5.624   8.201   2.781
11429TIP3    H234173   5.636   8.239   2.927
11430TIP3   OH234174   5.998   8.377   3.572
11430TIP3    H134175   5.980   8.302   3.515
11430TIP3    H234176   5.979   8.453   3.517
11431TIP3   OH234177   5.280   7.758   2.845
11431TIP3    H134178   5.196   7.799   2.822
11431TIP3    H234179   5.331   7.762   2.764
11432TIP3   OH234180   5.256   7.586   2.532
11432TIP3    H134181   5.323   7.632   2.584
11432TIP3    H234182   5.304   7.516   2.487
11433TIP3   OH234183   6.175   8.030   3.426
11433TIP3    H134184   6.091   8.077   3.428
11433TIP3    H234185   6.211   8.051   3.340
11434TIP3   OH234186   5.645   7.873   2.800
11434TIP3    H134187   5.588   7.895   2.873
11434TIP3    H234188   5.726   7.842   2.841
11435TIP3   OH234189   5.881   7.897   3.740
11435TIP3    H134190   5.879   7.978   3.791
11435TIP3    H234191   5.794   7.893   3.699
11436TIP3   OH234192   4.854   7.844   3.223
11436TIP3    H134193   4.830   7.795   3.145
11436TIP3    H234194   4.936   7.805   3.253
11437TIP3   OH234195   4.966   7.840   3.583
11437TIP3    H134196   5.004   7.806   3.502
11437TIP3    H234197   5.014   7.921   3.599
11438TIP3   OH234198   5.541   8.463   3.370
11438TIP3    H134199   5.520   8.547   3.413
11438TIP3    H234200   5.523   8.397   3.437
11439TIP3   OH234201   5.139   8.368   3.903
11439TIP3    H134202   5.079   8.425   3.951
11439TIP3    H234203   5.083   8.320   3.842
11440TIP3   OH234204   5.475   7.726   2.641
11440TIP3    H134205   5.535   7.785   2.688
11440TIP3    H234206   5.505   7.730   2.550
11441TIP3   OH234207   4.900   7.914   4.066
11441TIP3    H134208   4.907   8.009   4.080
11441TIP3    H234209   4.806   7.899   4.056
11442TIP3   OH234210   5.173   8.435   2.946
11442TIP3    H134211   5.267   8.452   2.948
11442TIP3    H234212   5.141   8.486   2.872
11443TIP3   OH234213   4.937   8.527   4.003
11443TIP3    H134214   4.909   8.543   3.913
11443TIP3    H234215   4.855   8.514   4.051
11444TIP3   OH234216   5.986   6.953   2.704
11444TIP3    H134217   5.911   6.976   2.760
11444TIP3    H234218   5.995   7.027   2.644
11445TIP3   OH234219   4.749   7.697   3.001
11445TIP3    H134220   4.669   7.741   2.975
11445TIP3    H234221   4.721   7.609   3.027
11446TIP3   OH234222   5.811   8.338   2.243
11446TIP3    H134223   5.807   8.431   2.221
11446TIP3    H234224   5.897   8.310   2.211
11447TIP3   OH234225   4.531   8.093   3.946
11447TIP3    H134226   4.460   8.076   3.884
11447TIP3    H234227   4.563   8.006   3.970
11448TIP3   OH234228   4.436   8.262   3.585
11448TIP3    H134229   4.522   8.240   3.551
11448TIP3    H234230   4.452   8.336   3.644
11449TIP3   OH234231   6.227   8.730   3.649
11449TIP3    H134232   6.232   8.637   3.668
11449TIP3    H234233   6.148   8.760   3.695
11450TIP3   OH234234   5.348   8.511   3.790
11450TIP3    H134235   5.337   8.603   3.815
11450TIP3    H234236   5.271   8.467   3.826
11451TIP3   OH234237   5.114   8.597   2.732
11451TIP3    H134238   5.076   8.575   2.647
11451TIP3    H234239   5.080   8.685   2.752
11452TIP3   OH234240   4.558   8.448   3.100
11452TIP3    H134241   4.603   8.443   3.184
11452TIP3    H234242   4.508   8.367   3.095
11453TIP3   OH234243   5.308   8.557   2.351
11453TIP3    H134244   5.359   8.483   2.317
11453TIP3    H234245   5.340   8.569   2.441
11454TIP3   OH234246   5.369   8.596   2.620
11454TIP3    H134247   5.287   8.585   2.669
11454TIP3    H234248   5.438   8.590   2.687
11455TIP3   OH234249   6.136   7.850   3.931
11455TIP3    H134250   6.051   7.841   3.888
11455TIP3    H234251   6.146   7.769   3.982
11456TIP3   OH234252   4.732   8.278   3.915
11456TIP3    H134253   4.781   8.269   3.997
11456TIP3    H234254   4.659   8.217   3.924
11457TIP3   OH234255   5.112   7.090   3.729
11457TIP3    H134256   5.028   7.055   3.700
11457TIP3    H234257   5.091   7.170   3.775
11458TIP3   OH234258   5.668   7.173   3.923
11458TIP3    H134259   5.728   7.167   3.998
11458TIP3    H234260   5.580   7.171   3.962
11459TIP3   OH234261   5.946   7.647   3.837
11459TIP3    H134262   5.884   7.620   3.905
11459TIP3    H234263   5.905   7.722   3.795
11460TIP3   OH234264   5.557   7.711   2.380
11460TIP3    H134265   5.510   7.713   2.297
11460TIP3    H234266   5.640   7.755   2.363
11461TIP3   OH234267   5.266   7.127   2.697
11461TIP3    H134268   5.230   7.134   2.785
11461TIP3    H234269   5.229   7.046   2.662
11462TIP3   OH234270   5.052   7.624   3.735
11462TIP3    H134271   5.005   7.631   3.819
11462TIP3    H234272   5.028   7.704   3.688
11463TIP3   OH234273   4.931   7.497   3.257
11463TIP3    H134274   4.842   7.477   3.284
11463TIP3    H234275   4.938   7.462   3.168
11464TIP3   OH234276   5.413   7.563   2.985
11464TIP3    H134277   5.362   7.633   2.943
11464TIP3    H234278   5.473   7.533   2.917
11465TIP3   OH234279   5.611   7.854   4.055
11465TIP3    H134280   5.589   7.780   4.112
11465TIP3    H234281   5.698   7.882   4.086
11466TIP3   OH234282   5.579   7.586   3.208
11466TIP3    H134283   5.509   7.606   3.146
11466TIP3    H234284   5.625   7.511   3.170
11467TIP3   OH234285   4.887   7.640   3.955
11467TIP3    H134286   4.895   7.705   4.025
11467TIP3    H234287   4.867   7.558   4.000
11468TIP3   OH234288   4.929   7.107   2.673
11468TIP3    H134289   4.921   7.111   2.768
11468TIP3    H234290   4.851   7.151   2.641
11469TIP3   OH234291   4.482   7.155   3.531
11469TIP3    H134292   4.552   7.190   3.586
11469TIP3    H234293   4.524   7.135   3.448
11470TIP3   OH234294   4.381   7.129   3.040
11470TIP3    H134295   4.427   7.165   2.964
11470TIP3    H234296   4.319   7.197   3.066
11471TIP3   OH234297   5.629   7.838   3.634
11471TIP3    H134298   5.653   7.769   3.573
11471TIP3    H234299   5.583   7.793   3.705
11472TIP3   OH234300   5.290   7.287   3.308
11472TIP3    H134301   5.210   7.287   3.361
11472TIP3    H234302   5.361   7.276   3.371
11473TIP3   OH234303   4.691   7.376   3.319
11473TIP3    H134304   4.603   7.381   3.281
11473TIP3    H234305   4.719   7.286   3.306
11474TIP3   OH234306   4.942   7.372   3.013
11474TIP3    H134307   5.037   7.383   3.004
11474TIP3    H234308   4.907   7.389   2.925
11475TIP3   OH234309   5.725   7.374   3.509
11475TIP3    H134310   5.730   7.383   3.604
11475TIP3    H234311   5.651   7.315   3.494
11476TIP3   OH234312   4.836   7.394   2.762
11476TIP3    H134313   4.771   7.348   2.709
11476TIP3    H234314   4.887   7.444   2.699
11477TIP3   OH234315   5.945   9.080   3.742
11477TIP3    H134316   5.943   9.101   3.649
11477TIP3    H234317   6.023   9.124   3.775
11478TIP3   OH234318   4.888   8.184   4.150
11478TIP3    H134319   4.967   8.207   4.198
11478TIP3    H234320   4.817   8.199   4.213
11479TIP3   OH234321   5.343   7.654   3.420
11479TIP3    H134322   5.406   7.598   3.376
11479TIP3    H234323   5.339   7.620   3.509
11480TIP3   OH234324   4.830   7.125   3.308
11480TIP3    H134325   4.804   7.050   3.361
11480TIP3    H234326   4.851   7.088   3.222
11481TIP3   OH234327   5.321   7.571   3.691
11481TIP3    H134328   5.232   7.602   3.711
11481TIP3    H234329   5.378   7.626   3.743
11482TIP3   OH234330   5.943   8.174   3.391
11482TIP3    H134331   5.976   8.225   3.317
11482TIP3    H234332   5.863   8.133   3.358
11483TIP3   OH234333   5.519   7.232   2.700
11483TIP3    H134334   5.426   7.209   2.699
11483TIP3    H234335   5.520   7.326   2.714
11484TIP3   OH234336   5.466   8.250   3.831
11484TIP3    H134337   5.513   8.239   3.914
11484TIP3    H234338   5.429   8.338   3.836
11485TIP3   OH234339   5.578   7.496   2.769
11485TIP3    H134340   5.673   7.500   2.780
11485TIP3    H234341   5.557   7.574   2.718
11486TIP3   OH234342   4.727   7.927   3.451
11486TIP3    H134343   4.763   7.910   3.364
11486TIP3    H234344   4.796   7.895   3.510
11487TIP3   OH234345   4.622   7.855   4.072
11487TIP3    H134346   4.622   7.826   4.164
11487TIP3    H234347   4.546   7.812   4.034
11488TIP3   OH234348   5.366   7.999   4.104
11488TIP3    H134349   5.302   7.935   4.074
11488TIP3    H234350   5.451   7.964   4.075
11489TIP3   OH234351   5.611   8.538   3.697
11489TIP3    H134352   5.517   8.521   3.706
11489TIP3    H234353   5.636   8.580   3.780
11490TIP3   OH234354   5.972   7.575   2.583
11490TIP3    H134355   5.922   7.539   2.510
11490TIP3    H234356   5.992   7.665   2.557
11491TIP3   OH234357   6.241   8.444   3.675
11491TIP3    H134358   6.146   8.435   3.663
11491TIP3    H234359   6.277   8.422   3.589
11492TIP3   OH234360   5.733   8.398   2.504
11492TIP3    H134361   5.703   8.321   2.551
11492TIP3    H234362   5.753   8.367   2.416
11493TIP3   OH234363   5.721   8.033   3.285
11493TIP3    H134364   5.634   8.012   3.320
11493TIP3    H234365   5.753   7.950   3.250
11494TIP3   OH234366   4.913   8.268   3.021
11494TIP3    H134367   4.848   8.322   2.976
11494TIP3    H234368   4.867   8.186   3.039
11495TIP3   OH234369   4.424   7.558   2.825
11495TIP3    H134370   4.467   7.641   2.845
11495TIP3    H234371   4.344   7.559   2.878
11496TIP3   OH234372   5.150   8.590   3.591
11496TIP3    H134373   5.161   8.628   3.504
11496TIP3    H234374   5.239   8.573   3.622
11497TIP3   OH234375   4.765   8.480   2.920
11497TIP3    H134376   4.688   8.477   2.978
11497TIP3    H234377   4.799   8.569   2.931
11498TIP3   OH234378   5.524   8.254   3.561
11498TIP3    H134379   5.495   8.250   3.652
11498TIP3    H234380   5.617   8.232   3.564
11499TIP3   OH234381   5.492   8.126   2.410
11499TIP3    H134382   5.536   8.111   2.494
11499TIP3    H234383   5.406   8.085   2.421
11500TIP3   OH234384   5.756   8.753   3.583
11500TIP3    H134385   5.687   8.689   3.600
11500TIP3    H234386   5.722   8.806   3.510
11501TIP3   OH234387   5.818   8.613   2.217
11501TIP3    H134388   5.869   8.684   2.180
11501TIP3    H234389   5.739   8.655   2.251
11502TIP3   OH234390   4.827   7.386   4.067
11502TIP3    H134391   4.732   7.400   4.069
11502TIP3    H234392   4.845   7.333   4.145
11503TIP3   OH234393   5.670   8.089   2.629
11503TIP3    H134394   5.655   8.014   2.685
11503TIP3    H234395   5.762   8.083   2.603
11504TIP3   OH234396   4.564   8.480   3.737
11504TIP3    H134397   4.621   8.429   3.794
11504TIP3    H234398   4.575   8.571   3.766
11505TIP3   OH234399   4.954   8.055   2.442
11505TIP3    H134400   4.922   7.974   2.404
11505TIP3    H234401   4.903   8.067   2.522
11506TIP3   OH234402   4.517   7.813   2.898
11506TIP3    H134403   4.452   7.858   2.952
11506TIP3    H234404   4.538   7.875   2.828
11507TIP3   OH234405   5.719   7.408   3.785
11507TIP3    H134406   5.758   7.459   3.856
11507TIP3    H234407   5.695   7.325   3.826
11508TIP3   OH234408   5.581   7.182   2.969
11508TIP3    H134409   5.559   7.201   2.878
11508TIP3    H234410   5.621   7.262   3.002
11509TIP3   OH234411   5.221   7.380   3.057
11509TIP3    H134412   5.285   7.446   3.032
11509TIP3    H234413   5.241   7.359   3.148
11510TIP3   OH234414   5.528   7.689   3.843
11510TIP3    H134415   5.550   7.749   3.914
11510TIP3    H234416   5.577   7.609   3.864
11511TIP3   OH234417   5.388   7.079   3.144
11511TIP3    H134418   5.365   7.156   3.196
11511TIP3    H234419   5.462   7.108   3.091
11512TIP3   OH234420   4.755   8.352   2.672
11512TIP3    H134421   4.758   8.426   2.611
11512TIP3    H234422   4.759   8.392   2.759
11513TIP3   OH234423   4.902   7.099   2.951
11513TIP3    H134424   4.889   7.189   2.981
11513TIP3    H234425   4.996   7.084   2.959
11514TIP3   OH234426   6.153   7.485   3.748
11514TIP3    H134427   6.074   7.530   3.779
11514TIP3    H234428   6.206   7.555   3.709
11515TIP3   OH234429   5.807   7.767   3.205
11515TIP3    H134430   5.725   7.720   3.219
11515TIP3    H234431   5.868   7.729   3.268
11516TIP3   OH234432   4.536   8.010   2.691
11516TIP3    H134433   4.574   8.097   2.681
11516TIP3    H234434   4.580   7.956   2.625
11517TIP3   OH234435   4.444   7.279   2.819
11517TIP3    H134436   4.461   7.372   2.830
11517TIP3    H234437   4.371   7.275   2.756
11518TIP3   OH234438   5.780   8.749   3.143
11518TIP3    H134439   5.738   8.794   3.070
11518TIP3    H234440   5.873   8.766   3.133
11519TIP3   OH234441   4.854   6.996   3.690
11519TIP3    H134442   4.823   6.963   3.606
11519TIP3    H234443   4.845   6.922   3.750
11520TIP3   OH234444   4.365   8.244   3.090
11520TIP3    H134445   4.331   8.285   3.170
11520TIP3    H234446   4.323   8.292   3.019
11521TIP3   OH234447   4.565   8.780   4.154
11521TIP3    H134448   4.649   8.783   4.199
11521TIP3    H234449   4.539   8.688   4.156
11522TIP3   OH234450   5.043   8.696   4.194
11522TIP3    H134451   5.134   8.669   4.205
11522TIP3    H234452   5.010   8.640   4.124
11523TIP3   OH234453   5.011   8.298   2.322
11523TIP3    H134454   4.985   8.220   2.371
11523TIP3    H234455   5.087   8.271   2.271
11524TIP3   OH234456   5.670   8.648   3.938
11524TIP3    H134457   5.676   8.576   4.001
11524TIP3    H234458   5.744   8.704   3.961
11525TIP3   OH234459   5.444   8.343   2.246
11525TIP3    H134460   5.478   8.276   2.304
11525TIP3    H234461   5.499   8.338   2.168
11526TIP3   OH234462   4.678   8.196   4.334
11526TIP3    H134463   4.695   8.103   4.350
11526TIP3    H234464   4.590   8.197   4.296
11527TIP3   OH234465   4.666   7.833   2.526
11527TIP3    H134466   4.710   7.795   2.602
11527TIP3    H234467   4.733   7.830   2.457
11528TIP3   OH234468   5.296   8.276   4.115
11528TIP3    H134469   5.251   8.294   4.032
11528TIP3    H234470   5.332   8.188   4.104
11529TIP3   OH234471   5.228   8.016   2.384
11529TIP3    H134472   5.140   8.033   2.420
11529TIP3    H234473   5.226   7.924   2.357
11530TIP3   OH234474   5.773   8.309   3.717
11530TIP3    H134475   5.853   8.342   3.675
11530TIP3    H234476   5.712   8.383   3.713
11531TIP3   OH234477   4.788   7.941   4.350
11531TIP3    H134478   4.864   7.927   4.293
11531TIP3    H234479   4.827   7.956   4.437
11532TIP3   OH234480   4.821   7.735   2.728
11532TIP3    H134481   4.812   7.718   2.822
11532TIP3    H234482   4.881   7.668   2.697
11533TIP3   OH234483   5.168   7.812   4.019
11533TIP3    H134484   5.080   7.849   4.031
11533TIP3    H234485   5.194   7.841   3.931
11534TIP3   OH234486   4.985   7.552   2.591
11534TIP3    H134487   4.953   7.554   2.501
11534TIP3    H234488   5.080   7.559   2.584
11535TIP3   OH234489   5.639   8.190   4.082
11535TIP3    H134490   5.712   8.148   4.038
11535TIP3    H234491   5.630   8.143   4.165
11536TIP3   OH234492   5.777   7.843   2.275
11536TIP3    H134493   5.764   7.801   2.189
11536TIP3    H234494   5.756   7.935   2.260
11537TIP3   OH234495   5.287   7.589   4.137
11537TIP3    H134496   5.281   7.520   4.071
11537TIP3    H234497   5.245   7.665   4.097
11538TIP3   OH234498   5.270   7.396   3.921
11538TIP3    H134499   5.296   7.437   3.839
11538TIP3    H234500   5.179   7.369   3.907
11539TIP3   OH234501   5.267   7.920   3.788
11539TIP3    H134502   5.351   7.964   3.779
11539TIP3    H234503   5.206   7.973   3.736
11540TIP3   OH234504   5.860   7.892   4.193
11540TIP3    H134505   5.909   7.825   4.239
11540TIP3    H234506   5.923   7.964   4.181
11541TIP3   OH234507   5.899   8.137   3.888
11541TIP3    H134508   5.842   8.196   3.839
11541TIP3    H234509   5.987   8.157   3.857
11542TIP3   OH234510   5.244   7.591   4.413
11542TIP3    H134511   5.149   7.585   4.420
11542TIP3    H234512   5.260   7.604   4.320
11543TIP3   OH234513   5.397   7.153   3.994
11543TIP3    H134514   5.352   7.235   3.971
11543TIP3    H234515   5.328   7.087   3.990
11544TIP3   OH234516   5.561   7.624   4.190
11544TIP3    H134517   5.585   7.616   4.282
11544TIP3    H234518   5.468   7.603   4.187
11545TIP3   OH234519   5.775   7.554   4.029
11545TIP3    H134520   5.699   7.573   4.084
11545TIP3    H234521   5.848   7.544   4.090
11546TIP3   OH234522   5.990   7.542   4.209
11546TIP3    H134523   6.007   7.451   4.232
11546TIP3    H234524   5.973   7.585   4.293
11547TIP3   OH234525   4.980   7.444   4.409
11547TIP3    H134526   4.990   7.352   4.382
11547TIP3    H234527   4.984   7.441   4.504
11548TIP3   OH234528   5.526   7.180   4.238
11548TIP3    H134529   5.574   7.098   4.250
11548TIP3    H234530   5.473   7.165   4.160
11549TIP3   OH234531   5.442   7.386   4.403
11549TIP3    H134532   5.496   7.324   4.353
11549TIP3    H234533   5.353   7.368   4.374
11550TIP3   OH234534   4.783   8.559   2.492
11550TIP3    H134535   4.878   8.559   2.493
11550TIP3    H234536   4.759   8.621   2.423
11551TIP3   OH234537   4.264   7.984   2.692
11551TIP3    H134538   4.358   7.995   2.698
11551TIP3    H234539   4.252   7.896   2.657
11552TIP3   OH234540   4.169   8.555   3.176
11552TIP3    H134541   4.101   8.505   3.132
11552TIP3    H234542   4.210   8.493   3.237
11553TIP3   OH234543   4.317   8.387   3.340
11553TIP3    H134544   4.313   8.318   3.406
11553TIP3    H234545   4.371   8.455   3.380
11554TIP3   OH234546   6.050   8.808   3.148
11554TIP3    H134547   6.066   8.821   3.241
11554TIP3    H234548   6.088   8.886   3.107
11555TIP3   OH234549   6.072   8.827   3.426
11555TIP3    H134550   6.022   8.745   3.424
11555TIP3    H234551   6.141   8.811   3.490
11556TIP3   OH234552   6.120   8.531   4.006
11556TIP3    H134553   6.049   8.542   4.068
11556TIP3    H234554   6.170   8.612   4.011
11557TIP3   OH234555   5.940   8.061   2.581
11557TIP3    H134556   6.004   8.126   2.553
11557TIP3    H234557   5.972   8.031   2.666
11558TIP3   OH234558   6.022   7.955   2.816
11558TIP3    H134559   5.969   7.889   2.860
11558TIP3    H234560   6.102   7.961   2.868
11559TIP3   OH234561   6.132   8.312   3.233
11559TIP3    H134562   6.183   8.249   3.182
11559TIP3    H234563   6.131   8.391   3.179
11560TIP3   OH234564   5.923   8.595   3.424
11560TIP3    H134565   5.856   8.638   3.477
11560TIP3    H234566   5.875   8.554   3.352
11561TIP3   OH234567   5.992   7.822   2.449
11561TIP3    H134568   5.921   7.820   2.385
11561TIP3    H234569   5.977   7.902   2.500
11562TIP3   OH234570   5.838   7.469   2.369
11562TIP3    H134571   5.786   7.501   2.296
11562TIP3    H234572   5.831   7.374   2.364
11563TIP3   OH234573   5.862   7.761   2.934
11563TIP3    H134574   5.873   7.667   2.919
11563TIP3    H234575   5.847   7.768   3.028
11564TIP3   OH234576   4.491   7.834   3.712
11564TIP3    H134577   4.482   7.799   3.623
11564TIP3    H234578   4.585   7.830   3.730
11565TIP3   OH234579   6.158   8.190   3.801
11565TIP3    H134580   6.224   8.122   3.785
11565TIP3    H234581   6.187   8.264   3.748
11566TIP3   OH234582   6.332   7.974   3.787
11566TIP3    H134583   6.261   7.934   3.837
11566TIP3    H234584   6.409   7.921   3.808
11567TIP3   OH234585   5.801   7.195   2.357
11567TIP3    H134586   5.862   7.172   2.427
11567TIP3    H234587   5.716   7.163   2.387
11568TIP3   OH234588   5.869   7.488   2.827
11568TIP3    H134589   5.916   7.405   2.837
11568TIP3    H234590   5.905   7.527   2.747
11569TIP3   OH234591   6.019   7.645   3.358
11569TIP3    H134592   6.099   7.670   3.311
11569TIP3    H234593   6.026   7.689   3.443
11570TIP3   OH234594   6.096   7.809   3.575
11570TIP3    H134595   6.025   7.836   3.633
11570TIP3    H234596   6.121   7.889   3.528
11571TIP3   OH234597   4.716   7.508   4.344
11571TIP3    H134598   4.811   7.503   4.357
11571TIP3    H234599   4.681   7.431   4.388
11572TIP3   OH234600   6.557   7.409   4.112
11572TIP3    H134601   6.621   7.348   4.076
11572TIP3    H234602   6.528   7.460   4.037
11573TIP3   OH234603   5.994   7.241   2.889
11573TIP3    H134604   6.018   7.253   2.981
11573TIP3    H234605   5.932   7.168   2.889
11574TIP3   OH234606   4.694   7.224   3.694
11574TIP3    H134607   4.747   7.145   3.707
11574TIP3    H234608   4.759   7.294   3.682
11575TIP3   OH234609   4.468   7.479   3.766
11575TIP3    H134610   4.521   7.479   3.687
11575TIP3    H234611   4.494   7.558   3.813
11576TIP3   OH234612   6.402   7.552   3.931
11576TIP3    H134613   6.339   7.585   3.995
11576TIP3    H234614   6.359   7.476   3.892
11577TIP3   OH234615   6.026   7.145   2.511
11577TIP3    H134616   6.083   7.090   2.457
11577TIP3    H234617   6.075   7.227   2.521
11578TIP3   OH234618   4.454   6.990   3.264
11578TIP3    H134619   4.370   6.981   3.309
11578TIP3    H234620   4.436   7.047   3.190
11579TIP3   OH234621   5.589   8.672   2.787
11579TIP3    H134622   5.653   8.673   2.715
11579TIP3    H234623   5.618   8.743   2.844
11580TIP3   OH234624   4.682   7.060   4.100
11580TIP3    H134625   4.631   7.051   4.181
11580TIP3    H234626   4.624   7.107   4.040
11581TIP3   OH234627   4.714   8.498   4.168
11581TIP3    H134628   4.620   8.486   4.158
11581TIP3    H234629   4.728   8.495   4.263
11582TIP3   OH234630   4.918   8.549   3.724
11582TIP3    H134631   4.866   8.621   3.688
11582TIP3    H234632   5.004   8.559   3.683
11583TIP3   OH234633   5.333   8.780   3.855
11583TIP3    H134634   5.371   8.775   3.943
11583TIP3    H234635   5.393   8.837   3.806
11584TIP3   OH234636   5.521   8.939   3.727
11584TIP3    H134637   5.589   8.883   3.689
11584TIP3    H234638   5.569   9.002   3.781
11585TIP3   OH234639   6.323   7.292   3.839
11585TIP3    H134640   6.243   7.332   3.805
11585TIP3    H234641   6.320   7.202   3.807
11586TIP3   OH234642   4.570   8.770   3.755
11586TIP3    H134643   4.481   8.798   3.734
11586TIP3    H234644   4.600   8.831   3.822
11587TIP3   OH234645   4.809   8.771   3.612
11587TIP3    H134646   4.721   8.778   3.651
11587TIP3    H234647   4.796   8.794   3.520
11588TIP3   OH234648   5.242   8.790   3.371
11588TIP3    H134649   5.159   8.805   3.326
11588TIP3    H234650   5.254   8.869   3.425
11589TIP3   OH234651   5.497   8.725   3.446
11589TIP3    H134652   5.405   8.744   3.427
11589TIP3    H234653   5.545   8.798   3.407
11590TIP3   OH234654   5.693   8.904   3.354
11590TIP3    H134655   5.692   8.992   3.317
11590TIP3    H234656   5.720   8.848   3.282
11591TIP3   OH234657   4.494   8.562   3.481
11591TIP3    H134658   4.518   8.542   3.572
11591TIP3    H234659   4.563   8.523   3.428
11592TIP3   OH234660   4.687   8.432   3.341
11592TIP3    H134661   4.703   8.353   3.393
11592TIP3    H234662   4.774   8.465   3.321
11593TIP3   OH234663   5.505   7.194   3.457
11593TIP3    H134664   5.466   7.123   3.508
11593TIP3    H234665   5.570   7.150   3.401
11594TIP3   OH234666   6.224   7.190   3.197
11594TIP3    H134667   6.261   7.119   3.144
11594TIP3    H234668   6.223   7.266   3.139
11595TIP3   OH234669   4.763   6.895   3.449
11595TIP3    H134670   4.674   6.861   3.461
11595TIP3    H234671   4.817   6.817   3.441
11596TIP3   OH234672   4.573   6.798   3.093
11596TIP3    H134673   4.602   6.849   3.018
11596TIP3    H234674   4.539   6.862   3.155
11597TIP3   OH234675   5.246   6.932   3.342
11597TIP3    H134676   5.294   6.982   3.276
11597TIP3    H234677   5.283   6.961   3.426
11598TIP3   OH234678   5.701   7.070   3.312
11598TIP3    H134679   5.760   7.054   3.238
11598TIP3    H234680   5.723   7.001   3.375
11599TIP3   OH234681   5.806   7.035   2.900
11599TIP3    H134682   5.726   7.082   2.920
11599TIP3    H234683   5.792   6.946   2.933
11600TIP3   OH234684   4.254   8.372   2.876
11600TIP3    H134685   4.172   8.338   2.840
11600TIP3    H234686   4.261   8.460   2.839
11601TIP3   OH234687   4.689   6.933   2.862
11601TIP3    H134688   4.735   6.871   2.805
11601TIP3    H234689   4.758   6.988   2.899
11602TIP3   OH234690   5.178   7.128   2.959
11602TIP3    H134691   5.237   7.077   3.015
11602TIP3    H234692   5.190   7.219   2.989
11603TIP3   OH234693   5.055   8.532   2.466
11603TIP3    H134694   5.136   8.559   2.424
11603TIP3    H234695   5.032   8.449   2.423
11604TIP3   OH234696   5.754   8.668   2.557
11604TIP3    H134697   5.750   8.573   2.544
11604TIP3    H234698   5.716   8.705   2.478
11605TIP3   OH234699   5.007   7.169   4.346
11605TIP3    H134700   4.965   7.101   4.398
11605TIP3    H234701   5.098   7.170   4.375
11606TIP3   OH234702   5.239   7.169   4.501
11606TIP3    H134703   5.310   7.111   4.476
11606TIP3    H234704   5.194   7.123   4.573
11607TIP3   OH234705   4.336   8.382   2.523
11607TIP3    H134706   4.340   8.404   2.616
11607TIP3    H234707   4.416   8.331   2.508
11608TIP3   OH234708   6.063   7.279   4.251
11608TIP3    H134709   6.071   7.245   4.341
11608TIP3    H234710   6.151   7.273   4.215
11609TIP3   OH234711   5.980   8.805   3.744
11609TIP3    H134712   5.903   8.776   3.695
11609TIP3    H234713   5.967   8.900   3.756
11610TIP3   OH234714   7.268   8.188   2.520
11610TIP3    H134715   7.228   8.270   2.491
11610TIP3    H234716   7.199   8.143   2.569
11611TIP3   OH234717   7.242   8.187   2.889
11611TIP3    H134718   7.269   8.168   2.979
11611TIP3    H234719   7.210   8.104   2.855
11612TIP3   OH234720   6.574   8.053   3.255
11612TIP3    H134721   6.592   7.981   3.316
11612TIP3    H234722   6.601   8.132   3.301
11613TIP3   OH234723   7.517   8.493   2.580
11613TIP3    H134724   7.510   8.430   2.651
11613TIP3    H234725   7.537   8.576   2.624
11614TIP3   OH234726   6.574   8.484   2.941
11614TIP3    H134727   6.571   8.391   2.963
11614TIP3    H234728   6.667   8.502   2.926
11615TIP3   OH234729   6.267   7.954   2.953
11615TIP3    H134730   6.286   7.867   2.989
11615TIP3    H234731   6.320   7.959   2.873
11616TIP3   OH234732   7.176   8.926   2.589
11616TIP3    H134733   7.201   8.850   2.536
11616TIP3    H234734   7.177   8.894   2.679
11617TIP3   OH234735   7.068   8.405   2.935
11617TIP3    H134736   7.112   8.329   2.899
11617TIP3    H234737   7.139   8.462   2.966
11618TIP3   OH234738   8.095   7.726   2.930
11618TIP3    H134739   8.113   7.810   2.973
11618TIP3    H234740   8.129   7.737   2.841
11619TIP3   OH234741   7.428   7.872   2.972
11619TIP3    H134742   7.482   7.801   3.007
11619TIP3    H234743   7.427   7.858   2.877
11620TIP3   OH234744   6.835   7.554   2.924
11620TIP3    H134745   6.811   7.618   2.857
11620TIP3    H234746   6.794   7.472   2.895
11621TIP3   OH234747   7.522   7.650   2.539
11621TIP3    H134748   7.588   7.650   2.608
11621TIP3    H234749   7.568   7.684   2.462
11622TIP3   OH234750   6.413   7.724   3.022
11622TIP3    H134751   6.498   7.691   3.052
11622TIP3    H234752   6.429   7.753   2.933
11623TIP3   OH234753   6.900   7.952   2.803
11623TIP3    H134754   6.994   7.932   2.811
11623TIP3    H234755   6.861   7.869   2.776
11624TIP3   OH234756   8.154   7.940   3.099
11624TIP3    H134757   8.066   7.977   3.094
11624TIP3    H234758   8.192   7.978   3.178
11625TIP3   OH234759   6.800   7.563   3.350
11625TIP3    H134760   6.745   7.595   3.279
11625TIP3    H234761   6.747   7.574   3.429
11626TIP3   OH234762   7.103   8.361   2.381
11626TIP3    H134763   7.128   8.385   2.292
11626TIP3    H234764   7.055   8.438   2.413
11627TIP3   OH234765   6.936   8.350   3.176
11627TIP3    H134766   6.870   8.414   3.203
11627TIP3    H234767   6.978   8.390   3.099
11628TIP3   OH234768   7.687   7.694   2.748
11628TIP3    H134769   7.656   7.664   2.833
11628TIP3    H234770   7.748   7.765   2.769
11629TIP3   OH234771   6.670   7.655   3.120
11629TIP3    H134772   6.692   7.748   3.108
11629TIP3    H234773   6.726   7.609   3.058
11630TIP3   OH234774   6.747   8.534   3.242
11630TIP3    H134775   6.734   8.622   3.207
11630TIP3    H234776   6.667   8.517   3.292
11631TIP3   OH234777   6.106   8.261   2.477
11631TIP3    H134778   6.043   8.307   2.421
11631TIP3    H234779   6.150   8.330   2.526
11632TIP3   OH234780   7.547   8.745   2.713
11632TIP3    H134781   7.462   8.736   2.755
11632TIP3    H234782   7.543   8.829   2.667
11633TIP3   OH234783   7.899   7.612   3.103
11633TIP3    H134784   7.812   7.629   3.066
11633TIP3    H234785   7.960   7.642   3.035
11634TIP3   OH234786   7.145   7.246   3.098
11634TIP3    H134787   7.136   7.154   3.124
11634TIP3    H234788   7.067   7.288   3.135
11635TIP3   OH234789   7.261   8.743   2.395
11635TIP3    H134790   7.311   8.663   2.376
11635TIP3    H234791   7.323   8.814   2.379
11636TIP3   OH234792   7.412   8.525   2.328
11636TIP3    H134793   7.438   8.448   2.277
11636TIP3    H234794   7.452   8.512   2.414
11637TIP3   OH234795   7.787   8.633   3.063
11637TIP3    H134796   7.775   8.559   3.004
11637TIP3    H234797   7.769   8.710   3.009
11638TIP3   OH234798   7.066   8.073   2.335
11638TIP3    H134799   7.086   8.163   2.360
11638TIP3    H234800   7.130   8.053   2.266
11639TIP3   OH234801   7.069   7.820   2.054
11639TIP3    H134802   7.129   7.873   2.106
11639TIP3    H234803   7.125   7.761   2.005
11640TIP3   OH234804   7.974   8.286   2.928
11640TIP3    H134805   7.892   8.334   2.927
11640TIP3    H234806   8.010   8.299   2.840
11641TIP3   OH234807   7.445   8.118   2.325
11641TIP3    H134808   7.394   8.145   2.401
11641TIP3    H234809   7.529   8.089   2.360
11642TIP3   OH234810   7.693   8.163   3.244
11642TIP3    H134811   7.688   8.239   3.302
11642TIP3    H234812   7.642   8.188   3.167
11643TIP3   OH234813   6.682   8.104   2.713
11643TIP3    H134814   6.615   8.036   2.713
11643TIP3    H234815   6.764   8.057   2.732
11644TIP3   OH234816   6.828   8.532   2.842
11644TIP3    H134817   6.811   8.509   2.751
11644TIP3    H234818   6.912   8.489   2.862
11645TIP3   OH234819   6.861   8.109   3.021
11645TIP3    H134820   6.880   8.059   2.942
11645TIP3    H234821   6.780   8.156   3.001
11646TIP3   OH234822   7.316   8.723   2.855
11646TIP3    H134823   7.301   8.807   2.899
11646TIP3    H234824   7.300   8.658   2.923
11647TIP3   OH234825   6.942   8.642   3.407
11647TIP3    H134826   6.883   8.700   3.455
11647TIP3    H234827   6.886   8.589   3.351
11648TIP3   OH234828   7.267   7.987   2.168
11648TIP3    H134829   7.332   8.035   2.219
11648TIP3    H234830   7.294   8.000   2.077
11649TIP3   OH234831   6.655   8.204   3.480
11649TIP3    H134832   6.679   8.286   3.524
11649TIP3    H234833   6.571   8.180   3.517
11650TIP3   OH234834   7.008   8.631   2.371
11650TIP3    H134835   7.093   8.672   2.389
11650TIP3    H234836   6.951   8.704   2.346
11651TIP3   OH234837   6.726   8.791   3.489
11651TIP3    H134838   6.699   8.801   3.398
11651TIP3    H234839   6.644   8.778   3.537
11652TIP3   OH234840   7.777   7.210   2.188
11652TIP3    H134841   7.701   7.234   2.242
11652TIP3    H234842   7.794   7.288   2.136
11653TIP3   OH234843   6.441   7.942   2.449
11653TIP3    H134844   6.422   8.031   2.480
11653TIP3    H234845   6.461   7.893   2.529
11654TIP3   OH234846   7.566   8.572   1.800
11654TIP3    H134847   7.589   8.664   1.787
11654TIP3    H234848   7.649   8.528   1.813
11655TIP3   OH234849   6.325   8.347   3.434
11655TIP3    H134850   6.255   8.334   3.370
11655TIP3    H234851   6.351   8.258   3.459
11656TIP3   OH234852   6.167   8.559   3.097
11656TIP3    H134853   6.253   8.590   3.123
11656TIP3    H234854   6.108   8.631   3.117
11657TIP3   OH234855   8.012   8.979   3.139
11657TIP3    H134856   8.022   8.885   3.152
11657TIP3    H234857   7.927   9.000   3.177
11658TIP3   OH234858   7.129   8.784   3.263
11658TIP3    H134859   7.125   8.874   3.294
11658TIP3    H234860   7.062   8.738   3.314
11659TIP3   OH234861   6.898   8.871   2.243
11659TIP3    H134862   6.856   8.855   2.158
11659TIP3    H234863   6.862   8.955   2.272
11660TIP3   OH234864   6.343   8.739   2.593
11660TIP3    H134865   6.394   8.732   2.674
11660TIP3    H234866   6.299   8.654   2.585
11661TIP3   OH234867   7.102   8.817   1.898
11661TIP3    H134868   7.150   8.737   1.875
11661TIP3    H234869   7.135   8.839   1.985
11662TIP3   OH234870   7.158   8.870   2.158
11662TIP3    H134871   7.070   8.870   2.196
11662TIP3    H234872   7.213   8.832   2.226
11663TIP3   OH234873   7.921   8.107   3.411
11663TIP3    H134874   7.838   8.117   3.365
11663TIP3    H234875   7.937   8.012   3.411
11664TIP3   OH234876   6.524   8.537   3.402
11664TIP3    H134877   6.573   8.528   3.484
11664TIP3    H234878   6.451   8.475   3.411
11665TIP3   OH234879   6.904   7.339   3.218
11665TIP3    H134880   6.822   7.303   3.185
11665TIP3    H234881   6.880   7.420   3.262
11666TIP3   OH234882   7.441   7.465   3.419
11666TIP3    H134883   7.514   7.450   3.479
11666TIP3    H234884   7.363   7.442   3.469
11667TIP3   OH234885   7.643   7.891   3.309
11667TIP3    H134886   7.616   7.883   3.400
11667TIP3    H234887   7.647   7.985   3.293
11668TIP3   OH234888   7.358   8.012   1.920
11668TIP3    H134889   7.313   7.989   1.839
11668TIP3    H234890   7.435   8.061   1.892
11669TIP3   OH234891   7.053   7.378   2.182
11669TIP3    H134892   7.022   7.383   2.273
11669TIP3    H234893   7.018   7.296   2.149
11670TIP3   OH234894   6.878   8.007   3.283
11670TIP3    H134895   6.831   7.980   3.362
11670TIP3    H234896   6.830   7.965   3.212
11671TIP3   OH234897   6.757   7.728   2.734
11671TIP3    H134898   6.671   7.768   2.743
11671TIP3    H234899   6.756   7.687   2.648
11672TIP3   OH234900   7.209   7.849   2.466
11672TIP3    H134901   7.158   7.918   2.424
11672TIP3    H234902   7.263   7.813   2.396
11673TIP3   OH234903   7.403   8.114   3.539
11673TIP3    H134904   7.375   8.036   3.586
11673TIP3    H234905   7.496   8.123   3.562
11674TIP3   OH234906   7.381   7.840   2.687
11674TIP3    H134907   7.322   7.863   2.615
11674TIP3    H234908   7.430   7.764   2.655
11675TIP3   OH234909   6.704   7.888   3.465
11675TIP3    H134910   6.670   7.951   3.529
11675TIP3    H234911   6.684   7.802   3.502
11676TIP3   OH234912   6.712   7.354   2.164
11676TIP3    H134913   6.709   7.370   2.259
11676TIP3    H234914   6.642   7.410   2.129
11677TIP3   OH234915   6.260   7.400   3.033
11677TIP3    H134916   6.327   7.452   3.078
11677TIP3    H234917   6.277   7.415   2.940
11678TIP3   OH234918   6.170   7.384   2.539
11678TIP3    H134919   6.212   7.419   2.461
11678TIP3    H234920   6.109   7.453   2.567
11679TIP3   OH234921   7.303   8.063   3.131
11679TIP3    H134922   7.357   7.996   3.089
11679TIP3    H234923   7.338   8.069   3.220
11680TIP3   OH234924   7.085   7.547   2.783
11680TIP3    H134925   7.008   7.549   2.840
11680TIP3    H234926   7.157   7.525   2.842
11681TIP3   OH234927   6.757   7.624   2.484
11681TIP3    H134928   6.849   7.646   2.469
11681TIP3    H234929   6.712   7.651   2.404
11682TIP3   OH234930   7.583   7.612   2.986
11682TIP3    H134931   7.549   7.622   3.075
11682TIP3    H234932   7.544   7.531   2.954
11683TIP3   OH234933   6.634   7.664   2.246
11683TIP3    H134934   6.570   7.618   2.192
11683TIP3    H234935   6.693   7.704   2.183
11684TIP3   OH234936   1.186   0.088   3.245
11684TIP3    H134937   1.181   0.089   3.149
11684TIP3    H234938   1.267   0.135   3.265
11685TIP3   OH234939   6.685   8.444   3.629
11685TIP3    H134940   6.765   8.465   3.676
11685TIP3    H234941   6.616   8.451   3.695
11686TIP3   OH234942   7.168   7.914   2.855
11686TIP3    H134943   7.226   7.876   2.790
11686TIP3    H234944   7.211   7.898   2.939
11687TIP3   OH234945   6.690   7.350   2.816
11687TIP3    H134946   6.640   7.280   2.859
11687TIP3    H234947   6.676   7.335   2.723
11688TIP3   OH234948   6.821   8.165   2.251
11688TIP3    H134949   6.893   8.111   2.284
11688TIP3    H234950   6.786   8.210   2.328
11689TIP3   OH234951   7.741   8.427   2.884
11689TIP3    H134952   7.779   8.476   2.810
11689TIP3    H234953   7.660   8.390   2.849
11690TIP3   OH234954   7.307   7.485   2.184
11690TIP3    H134955   7.214   7.465   2.181
11690TIP3    H234956   7.311   7.580   2.199
11691TIP3   OH234957   7.258   8.520   3.320
11691TIP3    H134958   7.308   8.506   3.400
11691TIP3    H234959   7.223   8.609   3.328
11692TIP3   OH234960   7.375   7.746   2.259
11692TIP3    H134961   7.471   7.745   2.267
11692TIP3    H234962   7.357   7.823   2.206
11693TIP3   OH234963   6.610   8.205   2.962
11693TIP3    H134964   6.616   8.182   2.869
11693TIP3    H234965   6.549   8.142   2.999
11694TIP3   OH234966   7.019   8.333   2.107
11694TIP3    H134967   6.969   8.415   2.099
11694TIP3    H234968   6.966   8.279   2.165
11695TIP3   OH234969   6.408   8.103   3.554
11695TIP3    H134970   6.405   8.075   3.646
11695TIP3    H234971   6.330   8.063   3.515
11696TIP3   OH234972   7.177   8.267   3.588
11696TIP3    H134973   7.117   8.194   3.573
11696TIP3    H234974   7.263   8.234   3.562
11697TIP3   OH234975   7.397   8.784   3.179
11697TIP3    H134976   7.302   8.780   3.187
11697TIP3    H234977   7.426   8.830   3.258
11698TIP3   OH234978   7.796   7.843   2.081
11698TIP3    H134979   7.726   7.802   2.031
11698TIP3    H234980   7.801   7.933   2.047
11699TIP3   OH234981   8.034   8.692   3.162
11699TIP3    H134982   7.939   8.686   3.151
11699TIP3    H234983   8.069   8.669   3.076
11700TIP3   OH234984   7.455   8.651   2.044
11700TIP3    H134985   7.454   8.593   2.120
11700TIP3    H234986   7.498   8.599   1.975
11701TIP3   OH234987   7.509   8.294   2.786
11701TIP3    H134988   7.419   8.277   2.813
11701TIP3    H234989   7.540   8.210   2.752
11702TIP3   OH234990   6.672   8.519   2.600
11702TIP3    H134991   6.663   8.590   2.537
11702TIP3    H234992   6.593   8.524   2.655
11703TIP3   OH234993   6.241   7.789   2.322
11703TIP3    H134994   6.309   7.841   2.364
11703TIP3    H234995   6.162   7.808   2.374
11704TIP3   OH234996   6.742   8.269   2.495
11704TIP3    H134997   6.724   8.358   2.523
11704TIP3    H234998   6.720   8.214   2.570
11705TIP3   OH234999   6.948   8.855   3.055
11705TIP3    H135000   6.980   8.928   3.003
11705TIP3    H235001   7.023   8.828   3.108
11706TIP3   OH235002   6.579   8.739   2.449
11706TIP3    H135003   6.491   8.748   2.486
11706TIP3    H235004   6.616   8.827   2.454
11707TIP3   OH235005   7.297   8.511   3.047
11707TIP3    H135006   7.276   8.511   3.140
11707TIP3    H235007   7.392   8.496   3.044
11708TIP3   OH235008   7.275   8.366   1.969
11708TIP3    H135009   7.345   8.348   2.032
11708TIP3    H235010   7.194   8.344   2.015
11709TIP3   OH235011   7.544   9.009   3.063
11709TIP3    H135012   7.469   8.951   3.074
11709TIP3    H235013   7.519   9.068   2.993
11710TIP3   OH235014   7.627   8.868   1.764
11710TIP3    H135015   7.698   8.885   1.701
11710TIP3    H235016   7.588   8.953   1.780
11711TIP3   OH235017   6.641   7.630   3.568
11711TIP3    H135018   6.546   7.626   3.580
11711TIP3    H235019   6.677   7.581   3.642
11712TIP3   OH235020   7.479   8.324   2.148
11712TIP3    H135021   7.467   8.248   2.204
11712TIP3    H235022   7.573   8.325   2.129
11713TIP3   OH235023   6.372   8.743   3.207
11713TIP3    H135024   6.428   8.689   3.262
11713TIP3    H235025   6.382   8.832   3.243
11714TIP3   OH235026   6.699   8.295   2.021
11714TIP3    H135027   6.721   8.293   1.927
11714TIP3    H235028   6.729   8.382   2.050
11715TIP3   OH235029   7.490   7.667   3.232
11715TIP3    H135030   7.538   7.739   3.273
11715TIP3    H235031   7.473   7.607   3.305
11716TIP3   OH235032   7.369   7.436   2.453
11716TIP3    H135033   7.349   7.454   2.362
11716TIP3    H235034   7.414   7.515   2.484
11717TIP3   OH235035   6.831   8.536   2.078
11717TIP3    H135036   6.755   8.555   2.133
11717TIP3    H235037   6.874   8.621   2.067
11718TIP3   OH235038   7.036   7.638   2.526
11718TIP3    H135039   7.095   7.711   2.507
11718TIP3    H235040   7.051   7.618   2.618
11719TIP3   OH235041   7.186   7.330   2.629
11719TIP3    H135042   7.162   7.406   2.681
11719TIP3    H235043   7.255   7.361   2.571
11720TIP3   OH235044   6.611   8.628   2.199
11720TIP3    H135045   6.571   8.693   2.141
11720TIP3    H235046   6.597   8.662   2.287
11721TIP3   OH235047   6.700   7.359   2.445
11721TIP3    H135048   6.694   7.452   2.470
11721TIP3    H235049   6.794   7.340   2.451
11722TIP3   OH235050   7.915   7.839   3.307
11722TIP3    H135051   7.820   7.843   3.310
11722TIP3    H235052   7.935   7.776   3.238
11723TIP3   OH235053   7.594   8.033   2.708
11723TIP3    H135054   7.524   7.968   2.714
11723TIP3    H235055   7.666   7.995   2.759
11724TIP3   OH235056   6.240   7.513   2.307
11724TIP3    H135057   6.260   7.606   2.318
11724TIP3    H235058   6.166   7.511   2.246
11725TIP3   OH235059   7.558   9.013   2.621
11725TIP3    H135060   7.516   9.064   2.551
11725TIP3    H235061   7.650   9.037   2.617
11726TIP3   OH235062   6.642   7.248   3.181
11726TIP3    H135063   6.615   7.214   3.095
11726TIP3    H235064   6.635   7.173   3.240
11727TIP3   OH235065   6.177   8.512   2.583
11727TIP3    H135066   6.138   8.551   2.661
11727TIP3    H235067   6.130   8.553   2.510
11728TIP3   OH235068   6.373   9.047   3.630
11728TIP3    H135069   6.455   9.054   3.679
11728TIP3    H235070   6.357   8.953   3.623
11729TIP3   OH235071   6.835   8.953   3.685
11729TIP3    H135072   6.925   8.922   3.696
11729TIP3    H235073   6.801   8.900   3.612
11730TIP3   OH235074   6.786   8.593   1.806
11730TIP3    H135075   6.780   8.551   1.892
11730TIP3    H235076   6.866   8.557   1.767
11731TIP3   OH235077   7.464   8.901   3.414
11731TIP3    H135078   7.467   8.834   3.482
11731TIP3    H235079   7.534   8.962   3.438
11732TIP3   OH235080   7.237   8.597   1.819
11732TIP3    H135081   7.275   8.535   1.882
11732TIP3    H235082   7.312   8.640   1.779
11733TIP3   OH235083   6.480   8.444   3.818
11733TIP3    H135084   6.502   8.352   3.830
11733TIP3    H235085   6.390   8.444   3.785
11734TIP3   OH235086   7.102   8.540   3.608
11734TIP3    H135087   7.056   8.562   3.527
11734TIP3    H235088   7.139   8.453   3.592
11735TIP3   OH235089   6.943   8.250   1.854
11735TIP3    H135090   6.975   8.267   1.942
11735TIP3    H235091   6.966   8.158   1.838
11736TIP3   OH235092   7.559   8.556   3.196
11736TIP3    H135093   7.639   8.590   3.155
11736TIP3    H235094   7.498   8.630   3.195
11737TIP3   OH235095   6.599   8.191   3.833
11737TIP3    H135096   6.672   8.135   3.804
11737TIP3    H235097   6.621   8.216   3.922
11738TIP3   OH235098   6.596   7.982   2.214
11738TIP3    H135099   6.543   7.968   2.292
11738TIP3    H235100   6.634   7.897   2.194
11739TIP3   OH235101   6.791   7.803   2.078
11739TIP3    H135102   6.766   7.799   1.986
11739TIP3    H235103   6.887   7.807   2.077
11740TIP3   OH235104   7.445   8.457   3.572
11740TIP3    H135105   7.517   8.422   3.521
11740TIP3    H235106   7.443   8.403   3.651
11741TIP3   OH235107   7.570   8.140   1.799
11741TIP3    H135108   7.551   8.087   1.722
11741TIP3    H235109   7.529   8.224   1.782
11742TIP3   OH235110   7.028   7.836   3.598
11742TIP3    H135111   7.060   7.754   3.562
11742TIP3    H235112   6.959   7.863   3.538
11743TIP3   OH235113   7.060   7.620   3.418
11743TIP3    H135114   7.102   7.638   3.334
11743TIP3    H235115   6.969   7.599   3.395
11744TIP3   OH235116   7.665   8.137   3.649
11744TIP3    H135117   7.711   8.053   3.659
11744TIP3    H235118   7.735   8.202   3.647
11745TIP3   OH235119   7.695   8.406   3.381
11745TIP3    H135120   7.638   8.460   3.327
11745TIP3    H235121   7.783   8.424   3.350
11746TIP3   OH235122   6.930   7.942   3.837
11746TIP3    H135123   6.863   7.880   3.867
11746TIP3    H235124   6.961   7.905   3.754
11747TIP3   OH235125   7.187   7.389   3.506
11747TIP3    H135126   7.140   7.470   3.485
11747TIP3    H235127   7.122   7.320   3.494
11748TIP3   OH235128   7.324   7.898   3.696
11748TIP3    H135129   7.348   7.891   3.789
11748TIP3    H235130   7.233   7.868   3.692
11749TIP3   OH235131   7.570   7.846   3.563
11749TIP3    H135132   7.490   7.847   3.617
11749TIP3    H235133   7.639   7.819   3.624
11750TIP3   OH235134   7.794   7.799   3.723
11750TIP3    H135135   7.811   7.705   3.734
11750TIP3    H235136   7.784   7.832   3.812
11751TIP3   OH235137   6.778   7.710   3.899
11751TIP3    H135138   6.783   7.620   3.866
11751TIP3    H235139   6.814   7.705   3.988
11752TIP3   OH235140   7.266   7.382   3.770
11752TIP3    H135141   7.339   7.320   3.770
11752TIP3    H235142   7.234   7.381   3.680
11753TIP3   OH235143   7.344   7.609   3.903
11753TIP3    H135144   7.318   7.532   3.853
11753TIP3    H235145   7.266   7.665   3.902
11754TIP3   OH235146   6.565   8.828   2.012
11754TIP3    H135147   6.661   8.833   2.010
11754TIP3    H235148   6.537   8.875   1.934
11755TIP3   OH235149   6.061   8.242   2.171
11755TIP3    H135150   6.134   8.234   2.234
11755TIP3    H235151   6.050   8.154   2.135
11756TIP3   OH235152   5.969   8.816   2.651
11756TIP3    H135153   5.899   8.763   2.612
11756TIP3    H235154   6.012   8.757   2.713
11757TIP3   OH235155   6.115   8.653   2.823
11757TIP3    H135156   6.107   8.588   2.893
11757TIP3    H235157   6.168   8.722   2.860
11758TIP3   OH235158   7.813   9.111   2.625
11758TIP3    H135159   7.841   9.100   2.716
11758TIP3    H235160   7.893   9.130   2.577
11759TIP3   OH235161   7.871   9.075   2.892
11759TIP3    H135162   7.821   8.994   2.895
11759TIP3    H235163   7.946   9.059   2.949
11760TIP3   OH235164   7.912   8.785   3.493
11760TIP3    H135165   7.841   8.796   3.556
11760TIP3    H235166   7.956   8.870   3.492
11761TIP3   OH235167   7.751   8.304   2.128
11761TIP3    H135168   7.816   8.370   2.105
11761TIP3    H235169   7.792   8.252   2.197
11762TIP3   OH235170   7.877   8.147   2.310
11762TIP3    H135171   7.811   8.109   2.369
11762TIP3    H235172   7.942   8.186   2.367
11763TIP3   OH235173   7.920   8.559   2.717
11763TIP3    H135174   7.973   8.494   2.672
11763TIP3    H235175   7.927   8.638   2.663
11764TIP3   OH235176   7.715   8.848   2.912
11764TIP3    H135177   7.649   8.896   2.963
11764TIP3    H235178   7.665   8.811   2.839
11765TIP3   OH235179   7.789   8.090   1.960
11765TIP3    H135180   7.720   8.099   1.895
11765TIP3    H235181   7.778   8.165   2.018
11766TIP3   OH235182   7.596   7.746   1.929
11766TIP3    H135183   7.563   7.797   1.856
11766TIP3    H235184   7.586   7.655   1.901
11767TIP3   OH235185   7.672   8.016   2.443
11767TIP3    H135186   7.679   7.921   2.430
11767TIP3    H235187   7.653   8.026   2.537
11768TIP3   OH235188   6.303   8.084   3.190
11768TIP3    H135189   6.287   8.048   3.103
11768TIP3    H235190   6.398   8.078   3.201
11769TIP3   OH235191   7.954   8.442   3.287
11769TIP3    H135192   8.020   8.373   3.273
11769TIP3    H235193   7.983   8.514   3.232
11770TIP3   OH235194   8.130   8.228   3.284
11770TIP3    H135195   8.059   8.187   3.333
11770TIP3    H235196   8.206   8.174   3.303
11771TIP3   OH235197   7.624   7.476   1.858
11771TIP3    H135198   7.686   7.447   1.925
11771TIP3    H235199   7.543   7.429   1.878
11772TIP3   OH235200   7.662   7.745   2.315
11772TIP3    H135201   7.709   7.662   2.329
11772TIP3    H235202   7.708   7.786   2.242
11773TIP3   OH235203   7.817   7.921   2.835
11773TIP3    H135204   7.897   7.939   2.785
11773TIP3    H235205   7.836   7.954   2.923
11774TIP3   OH235206   7.900   8.057   3.064
11774TIP3    H135207   7.842   8.087   3.133
11774TIP3    H235208   7.929   8.138   3.020
11775TIP3   OH235209   6.517   7.773   3.821
11775TIP3    H135210   6.609   7.776   3.849
11775TIP3    H235211   6.480   7.698   3.868
11776TIP3   OH235212   8.353   7.639   3.608
11776TIP3    H135213   8.422   7.596   3.558
11776TIP3    H235214   8.315   7.703   3.548
11777TIP3   OH235215   7.773   7.498   2.376
11777TIP3    H135216   7.819   7.482   2.458
11777TIP3    H235217   7.712   7.424   2.368
11778TIP3   OH235218   6.479   7.468   3.211
11778TIP3    H135219   6.535   7.391   3.204
11778TIP3    H235220   6.536   7.541   3.187
11779TIP3   OH235221   6.259   7.733   3.257
11779TIP3    H135222   6.308   7.722   3.175
11779TIP3    H235223   6.269   7.826   3.278
11780TIP3   OH235224   8.199   7.786   3.429
11780TIP3    H135225   8.131   7.826   3.482
11780TIP3    H235226   8.154   7.719   3.377
11781TIP3   OH235227   7.837   7.419   2.018
11781TIP3    H135228   7.882   7.354   1.964
11781TIP3    H235229   7.899   7.491   2.026
11782TIP3   OH235230   6.241   7.214   2.741
11782TIP3    H135231   6.162   7.213   2.795
11782TIP3    H235232   6.225   7.282   2.676
11783TIP3   OH235233   7.405   8.951   2.309
11783TIP3    H135234   7.457   8.944   2.229
11783TIP3    H235235   7.433   9.034   2.349
11784TIP3   OH235236   6.490   7.361   3.619
11784TIP3    H135237   6.447   7.345   3.703
11784TIP3    H235238   6.422   7.401   3.565
11785TIP3   OH235239   6.502   8.763   3.655
11785TIP3    H135240   6.408   8.744   3.646
11785TIP3    H235241   6.519   8.754   3.749
11786TIP3   OH235242   6.719   8.807   3.201
11786TIP3    H135243   6.667   8.880   3.170
11786TIP3    H235244   6.805   8.819   3.160
11787TIP3   OH235245   7.121   9.047   3.347
11787TIP3    H135246   7.160   9.037   3.434
11787TIP3    H235247   7.182   9.103   3.299
11788TIP3   OH235248   7.306   9.206   3.217
11788TIP3    H135249   7.376   9.158   3.172
11788TIP3    H235250   7.353   9.267   3.274
11789TIP3   OH235251   8.097   7.551   3.307
11789TIP3    H135252   8.018   7.555   3.253
11789TIP3    H235253   8.124   7.459   3.304
11790TIP3   OH235254   6.377   9.040   3.248
11790TIP3    H135255   6.286   9.055   3.224
11790TIP3    H235256   6.397   9.109   3.311
11791TIP3   OH235257   6.608   9.036   3.098
11791TIP3    H135258   6.525   9.041   3.146
11791TIP3    H235259   6.586   9.062   3.009
11792TIP3   OH235260   7.019   9.061   2.884
11792TIP3    H135261   6.951   9.075   2.818
11792TIP3    H235262   7.032   9.147   2.924
11793TIP3   OH235263   7.276   8.981   2.937
11793TIP3    H135264   7.186   9.010   2.919
11793TIP3    H235265   7.331   9.049   2.899
11794TIP3   OH235266   7.467   9.155   2.842
11794TIP3    H135267   7.468   9.247   2.816
11794TIP3    H235268   7.499   9.108   2.764
11795TIP3   OH235269   6.292   8.832   2.951
11795TIP3    H135270   6.308   8.809   3.043
11795TIP3    H235271   6.367   8.797   2.904
11796TIP3   OH235272   6.499   8.715   2.819
11796TIP3    H135273   6.512   8.634   2.868
11796TIP3    H235274   6.584   8.760   2.826
11797TIP3   OH235275   6.762   8.803   2.853
11797TIP3    H135276   6.788   8.712   2.837
11797TIP3    H235277   6.815   8.830   2.929
11798TIP3   OH235278   7.284   7.429   2.926
11798TIP3    H135279   7.256   7.363   2.990
11798TIP3    H235280   7.369   7.399   2.895
11799TIP3   OH235281   7.833   7.354   2.828
11799TIP3    H135282   7.870   7.403   2.755
11799TIP3    H235283   7.744   7.387   2.837
11800TIP3   OH235284   7.937   7.443   2.591
11800TIP3    H135285   8.006   7.383   2.563
11800TIP3    H235286   7.975   7.530   2.579
11801TIP3   OH235287   6.555   7.141   2.942
11801TIP3    H135288   6.465   7.110   2.948
11801TIP3    H235289   6.608   7.061   2.935
11802TIP3   OH235290   6.385   7.049   2.565
11802TIP3    H135291   6.408   7.111   2.497
11802TIP3    H235292   6.339   7.101   2.631
11803TIP3   OH235293   7.051   7.181   2.832
11803TIP3    H135294   7.098   7.233   2.766
11803TIP3    H235295   7.086   7.211   2.916
11804TIP3   OH235296   7.539   7.356   2.833
11804TIP3    H135297   7.547   7.332   2.741
11804TIP3    H235298   7.543   7.273   2.880
11805TIP3   OH235299   7.590   7.287   2.374
11805TIP3    H135300   7.509   7.333   2.399
11805TIP3    H235301   7.582   7.201   2.414
11806TIP3   OH235302   6.054   8.619   2.363
11806TIP3    H135303   5.968   8.589   2.333
11806TIP3    H235304   6.060   8.709   2.331
11807TIP3   OH235305   6.491   7.201   2.349
11807TIP3    H135306   6.564   7.150   2.312
11807TIP3    H235307   6.534   7.273   2.395
11808TIP3   OH235308   6.978   7.379   2.448
11808TIP3    H135309   7.039   7.335   2.507
11808TIP3    H235310   6.989   7.472   2.468
11809TIP3   OH235311   6.840   8.802   1.976
11809TIP3    H135312   6.925   8.836   1.948
11809TIP3    H235313   6.809   8.750   1.902
11810TIP3   OH235314   7.538   8.909   2.072
11810TIP3    H135315   7.508   8.819   2.059
11810TIP3    H235316   7.508   8.955   1.994
11811TIP3   OH235317   6.796   7.437   3.817
11811TIP3    H135318   6.758   7.372   3.876
11811TIP3    H235319   6.887   7.444   3.844
11812TIP3   OH235320   7.041   7.436   3.942
11812TIP3    H135321   7.121   7.411   3.896
11812TIP3    H235322   7.031   7.370   4.010
11813TIP3   OH235323   6.140   8.620   2.035
11813TIP3    H135324   6.145   8.622   2.131
11813TIP3    H235325   6.219   8.573   2.008
11814TIP3   OH235326   7.866   7.528   3.726
11814TIP3    H135327   7.878   7.500   3.817
11814TIP3    H235328   7.953   7.519   3.687
11815TIP3   OH235329   7.763   9.053   3.232
11815TIP3    H135330   7.689   9.027   3.178
11815TIP3    H235331   7.752   9.148   3.245
11816TIP3   OH235332   8.358   8.319   2.743
11816TIP3    H135333   8.380   8.238   2.790
11816TIP3    H235334   8.398   8.389   2.794
11817TIP3   OH235335   8.250   8.704   2.491
11817TIP3    H135336   8.285   8.615   2.486
11817TIP3    H235337   8.327   8.760   2.494
11818TIP3   OH235338   8.026   7.930   2.215
11818TIP3    H135339   7.990   8.014   2.243
11818TIP3    H235340   7.951   7.885   2.176
11819TIP3   OH235341   8.113   8.240   2.426
11819TIP3    H135342   8.160   8.163   2.456
11819TIP3    H235343   8.167   8.276   2.355
11820TIP3   OH235344   8.599   7.802   2.402
11820TIP3    H135345   8.577   7.878   2.349
11820TIP3    H235346   8.547   7.731   2.365
11821TIP3   OH235347   8.242   8.020   2.525
11821TIP3    H135348   8.324   8.000   2.570
11821TIP3    H235349   8.246   7.969   2.444
11822TIP3   OH235350   8.665   8.234   2.311
11822TIP3    H135351   8.753   8.219   2.276
11822TIP3    H235352   8.620   8.150   2.296
11823TIP3   OH235353   8.593   7.807   2.851
11823TIP3    H135354   8.546   7.848   2.779
11823TIP3    H235355   8.537   7.821   2.928
11824TIP3   OH235356   8.480   7.914   2.623
11824TIP3    H135357   8.533   7.992   2.638
11824TIP3    H235358   8.524   7.868   2.552
11825TIP3   OH235359   7.953   8.472   2.049
11825TIP3    H135360   7.901   8.479   1.969
11825TIP3    H235361   7.963   8.562   2.079
11826TIP3   OH235362   8.919   7.500   2.579
11826TIP3    H135363   8.915   7.408   2.607
11826TIP3    H235364   8.842   7.540   2.621
11827TIP3   OH235365   8.390   8.298   2.261
11827TIP3    H135366   8.370   8.259   2.176
11827TIP3    H235367   8.485   8.290   2.270
11828TIP3   OH235368   8.634   8.368   2.550
11828TIP3    H135369   8.653   8.331   2.464
11828TIP3    H235370   8.564   8.431   2.534
11829TIP3   OH235371   8.465   8.457   2.970
11829TIP3    H135372   8.474   8.544   3.009
11829TIP3    H235373   8.382   8.424   3.006
11830TIP3   OH235374   8.346   8.173   2.010
11830TIP3    H135375   8.275   8.228   1.977
11830TIP3    H235376   8.331   8.088   1.968
11831TIP3   OH235377   8.110   8.590   2.922
11831TIP3    H135378   8.044   8.573   2.855
11831TIP3    H235379   8.143   8.503   2.946
11832TIP3   OH235380   8.002   8.787   2.570
11832TIP3    H135381   8.085   8.752   2.536
11832TIP3    H235382   8.029   8.852   2.635
11833TIP3   OH235383   8.282   8.801   2.909
11833TIP3    H135384   8.354   8.778   2.967
11833TIP3    H235385   8.226   8.723   2.909
11834TIP3   OH235386   8.690   7.593   2.705
11834TIP3    H135387   8.604   7.562   2.675
11834TIP3    H235388   8.672   7.675   2.751
11835TIP3   OH235389   9.240   7.671   2.884
11835TIP3    H135390   9.312   7.675   2.947
11835TIP3    H235391   9.161   7.677   2.937
11836TIP3   OH235392   8.961   7.612   1.766
11836TIP3    H135393   8.890   7.620   1.831
11836TIP3    H235394   8.984   7.702   1.744
11837TIP3   OH235395   8.633   8.131   2.683
11837TIP3    H135396   8.592   8.145   2.768
11837TIP3    H235397   8.632   8.217   2.641
11838TIP3   OH235398   8.520   8.012   2.250
11838TIP3    H135399   8.427   7.994   2.266
11838TIP3    H235400   8.537   7.976   2.163
11839TIP3   OH235401   8.466   8.120   2.912
11839TIP3    H135402   8.531   8.169   2.962
11839TIP3    H235403   8.448   8.042   2.964
11840TIP3   OH235404   8.426   7.605   1.727
11840TIP3    H135405   8.450   7.616   1.819
11840TIP3    H235406   8.446   7.689   1.686
11841TIP3   OH235407   8.064   7.671   2.522
11841TIP3    H135408   8.135   7.706   2.576
11841TIP3    H235409   8.104   7.651   2.438
11842TIP3   OH235410   7.994   7.649   2.043
11842TIP3    H135411   8.055   7.682   1.977
11842TIP3    H235412   7.928   7.718   2.051
11843TIP3   OH235413   8.853   7.850   2.285
11843TIP3    H135414   8.773   7.831   2.335
11843TIP3    H235415   8.922   7.801   2.330
11844TIP3   OH235416   8.282   7.880   2.296
11844TIP3    H135417   8.195   7.885   2.256
11844TIP3    H235418   8.312   7.791   2.277
11845TIP3   OH235419   8.563   7.885   2.015
11845TIP3    H135420   8.650   7.903   1.980
11845TIP3    H235421   8.503   7.915   1.946
11846TIP3   OH235422   8.350   7.931   1.850
11846TIP3    H135423   8.267   7.883   1.848
11846TIP3    H235424   8.383   7.925   1.760
11847TIP3   OH235425   8.463   8.705   3.100
11847TIP3    H135426   8.535   8.762   3.127
11847TIP3    H235427   8.405   8.702   3.176
11848TIP3   OH235428   8.415   7.634   2.271
11848TIP3    H135429   8.391   7.555   2.319
11848TIP3    H235430   8.443   7.603   2.185
11849TIP3   OH235431   8.888   8.031   2.702
11849TIP3    H135432   8.800   8.065   2.686
11849TIP3    H235433   8.945   8.085   2.647
11850TIP3   OH235434   8.371   8.456   2.488
11850TIP3    H135435   8.368   8.404   2.408
11850TIP3    H235436   8.361   8.391   2.558
11851TIP3   OH235437   8.215   8.365   3.052
11851TIP3    H135438   8.226   8.340   3.144
11851TIP3    H235439   8.140   8.313   3.022
11852TIP3   OH235440   8.051   8.073   1.865
11852TIP3    H135441   8.091   8.160   1.859
11852TIP3    H235442   7.965   8.089   1.903
11853TIP3   OH235443   8.429   7.878   3.060
11853TIP3    H135444   8.335   7.890   3.075
11853TIP3    H235445   8.461   7.836   3.140
11854TIP3   OH235446   8.133   8.959   2.744
11854TIP3    H135447   8.184   8.900   2.799
11854TIP3    H235448   8.168   9.046   2.763
11855TIP3   OH235449   8.151   8.340   1.909
11855TIP3    H135450   8.089   8.384   1.967
11855TIP3    H235451   8.186   8.410   1.854
11856TIP3   OH235452   8.847   7.894   2.015
11856TIP3    H135453   8.930   7.934   1.991
11856TIP3    H235454   8.849   7.888   2.110
11857TIP3   OH235455   9.007   7.580   2.141
11857TIP3    H135456   9.028   7.622   2.224
11857TIP3    H235457   9.070   7.616   2.079
11858TIP3   OH235458   8.502   7.617   1.995
11858TIP3    H135459   8.507   7.711   2.011
11858TIP3    H235460   8.593   7.589   1.985
11859TIP3   OH235461   8.087   7.808   1.821
11859TIP3    H135462   8.075   7.899   1.849
11859TIP3    H235463   7.998   7.778   1.801
11860TIP3   OH235464   8.428   7.507   2.667
11860TIP3    H135465   8.402   7.476   2.580
11860TIP3    H235466   8.421   7.429   2.723
11861TIP3   OH235467   7.948   8.738   2.100
11861TIP3    H135468   7.938   8.787   2.181
11861TIP3    H235469   7.931   8.802   2.031
11862TIP3   OH235470   8.118   9.239   3.152
11862TIP3    H135471   8.209   9.211   3.163
11862TIP3    H235472   8.068   9.158   3.145
11863TIP3   OH235473   8.274   8.683   3.305
11863TIP3    H135474   8.299   8.591   3.310
11863TIP3    H235475   8.186   8.681   3.266
11864TIP3   OH235476   8.406   8.434   3.307
11864TIP3    H135477   8.481   8.383   3.278
11864TIP3    H235478   8.425   8.456   3.398
11865TIP3   OH235479   8.454   8.227   1.748
11865TIP3    H135480   8.449   8.216   1.843
11865TIP3    H235481   8.543   8.259   1.732
11866TIP3   OH235482   8.687   8.297   2.940
11866TIP3    H135483   8.617   8.359   2.957
11866TIP3    H235484   8.748   8.343   2.882
11867TIP3   OH235485   8.841   8.123   3.098
11867TIP3    H135486   8.851   8.038   3.055
11867TIP3    H235487   8.794   8.177   3.035
11868TIP3   OH235488   8.843   7.891   2.931
11868TIP3    H135489   8.875   7.935   2.852
11868TIP3    H235490   8.755   7.860   2.907
11869TIP3   OH235491   8.665   8.210   3.315
11869TIP3    H135492   8.641   8.121   3.342
11869TIP3    H235493   8.731   8.197   3.248
11870TIP3   OH235494   8.978   7.657   2.987
11870TIP3    H135495   8.935   7.741   2.969
11870TIP3    H235496   8.910   7.591   2.973
11871TIP3   OH235497   9.010   8.234   3.298
11871TIP3    H135498   9.098   8.199   3.315
11871TIP3    H235499   8.985   8.196   3.214
11872TIP3   OH235500   8.565   7.965   3.403
11872TIP3    H135501   8.575   7.880   3.360
11872TIP3    H235502   8.608   7.953   3.488
11873TIP3   OH235503   9.045   7.630   3.250
11873TIP3    H135504   9.117   7.567   3.245
11873TIP3    H235505   9.018   7.644   3.159
11874TIP3   OH235506   9.110   7.847   3.407
11874TIP3    H135507   9.096   7.773   3.347
11874TIP3    H235508   9.027   7.894   3.406
11875TIP3   OH235509   7.812   8.472   1.821
11875TIP3    H135510   7.852   8.540   1.766
11875TIP3    H235511   7.825   8.391   1.772
11876TIP3   OH235512   7.748   9.052   2.162
11876TIP3    H135513   7.675   8.993   2.144
11876TIP3    H235514   7.803   9.004   2.225
11877TIP3   OH235515   7.923   8.906   2.324
11877TIP3    H135516   7.917   8.857   2.407
11877TIP3    H235517   8.009   8.949   2.328
11878TIP3   OH235518   8.090   8.335   2.683
11878TIP3    H135519   8.084   8.307   2.592
11878TIP3    H235520   8.184   8.337   2.702
11879TIP3   OH235521   8.304   8.017   3.324
11879TIP3    H135522   8.396   8.020   3.350
11879TIP3    H235523   8.269   7.940   3.370
11880TIP3   OH235524   8.272   7.735   2.696
11880TIP3    H135525   8.325   7.655   2.696
11880TIP3    H235526   8.335   7.805   2.677
11881TIP3   OH235527   8.055   8.008   2.731
11881TIP3    H135528   8.110   7.996   2.654
11881TIP3    H235529   8.086   8.089   2.771
11882TIP3   OH235530   8.037   7.505   2.270
11882TIP3    H135531   7.947   7.504   2.303
11882TIP3    H235532   8.034   7.562   2.193
11883TIP3   OH235533   8.258   7.555   3.071
11883TIP3    H135534   8.221   7.572   3.158
11883TIP3    H235535   8.210   7.613   3.012
11884TIP3   OH235536   8.299   9.030   3.187
11884TIP3    H135537   8.222   8.991   3.146
11884TIP3    H235538   8.296   9.001   3.278
11885TIP3   OH235539   9.044   7.677   2.399
11885TIP3    H135540   9.006   7.619   2.465
11885TIP3    H235541   9.128   7.704   2.436
11886TIP3   OH235542   8.348   7.408   2.419
11886TIP3    H135543   8.260   7.374   2.431
11886TIP3    H235544   8.404   7.330   2.416
11887TIP3   OH235545   8.130   7.292   2.120
11887TIP3    H135546   8.180   7.346   2.059
11887TIP3    H235547   8.097   7.352   2.185
11888TIP3   OH235548   8.817   7.455   2.316
11888TIP3    H135549   8.875   7.494   2.252
11888TIP3    H235550   8.855   7.478   2.401
11889TIP3   OH235551   9.437   7.459   2.259
11889TIP3    H135552   9.394   7.533   2.215
11889TIP3    H235553   9.386   7.444   2.338
11890TIP3   OH235554   7.853   8.936   1.928
11890TIP3    H135555   7.779   8.895   1.883
11890TIP3    H235556   7.813   8.991   1.996
11891TIP3   OH235557   8.274   7.457   1.954
11891TIP3    H135558   8.307   7.389   1.895
11891TIP3    H235559   8.350   7.513   1.972
11892TIP3   OH235560   8.779   7.628   1.976
11892TIP3    H135561   8.837   7.586   2.039
11892TIP3    H235562   8.791   7.722   1.990
11893TIP3   OH235563   8.577   7.702   3.287
11893TIP3    H135564   8.545   7.638   3.351
11893TIP3    H235565   8.670   7.710   3.305
11894TIP3   OH235566   8.822   7.692   3.410
11894TIP3    H135567   8.901   7.668   3.361
11894TIP3    H235568   8.820   7.631   3.484
11895TIP3   OH235569   9.545   7.832   3.243
11895TIP3    H135570   9.558   7.851   3.335
11895TIP3    H235571   9.615   7.771   3.220
11896TIP3   OH235572   0.564   8.543   4.611
11896TIP3    H135573   0.556   8.635   4.586
11896TIP3    H235574   0.587   8.498   4.529
11897TIP3   OH235575   0.789   8.444   5.299
11897TIP3    H135576   0.855   8.390   5.256
11897TIP3    H235577   0.743   8.487   5.227
11898TIP3   OH235578   0.632   8.553   5.098
11898TIP3    H135579   0.552   8.571   5.148
11898TIP3    H235580   0.612   8.473   5.048
11899TIP3   OH235581   0.253   8.233   3.679
11899TIP3    H135582   0.294   8.158   3.636
11899TIP3    H235583   0.327   8.290   3.703
11900TIP3   OH235584   0.576   8.311   4.969
11900TIP3    H135585   0.490   8.290   4.932
11900TIP3    H235586   0.622   8.228   4.973
11901TIP3   OH235587   0.348   8.213   4.240
11901TIP3    H135588   0.422   8.152   4.236
11901TIP3    H235589   0.387   8.299   4.224
11902TIP3   OH235590   0.519   8.597   3.947
11902TIP3    H135591   0.455   8.668   3.957
11902TIP3    H235592   0.502   8.539   4.021
11903TIP3   OH235593   2.333   8.744   4.111
11903TIP3    H135594   2.361   8.823   4.157
11903TIP3    H235595   2.379   8.747   4.028
11904TIP3   OH235596   1.665   8.873   4.144
11904TIP3    H135597   1.663   8.807   4.213
11904TIP3    H235598   1.654   8.823   4.063
11905TIP3   OH235599   1.079   8.525   4.115
11905TIP3    H135600   1.079   8.591   4.045
11905TIP3    H235601   1.032   8.450   4.078
11906TIP3   OH235602   1.778   8.662   3.713
11906TIP3    H135603   1.841   8.644   3.783
11906TIP3    H235604   1.832   8.675   3.635
11907TIP3   OH235605   0.677   8.775   4.234
11907TIP3    H135606   0.755   8.723   4.256
11907TIP3    H235607   0.650   8.741   4.148
11908TIP3   OH235608   1.158   9.070   3.971
11908TIP3    H135609   1.233   9.017   3.945
11908TIP3    H235610   1.082   9.024   3.934
11909TIP3   OH235611   2.422   8.943   4.283
11909TIP3    H135612   2.334   8.976   4.265
11909TIP3    H235613   2.456   9.001   4.351
11910TIP3   OH235614   1.032   8.559   4.538
11910TIP3    H135615   0.967   8.578   4.470
11910TIP3    H235616   0.987   8.582   4.620
11911TIP3   OH235617   1.929   8.645   3.938
11911TIP3    H135618   1.888   8.629   4.023
11911TIP3    H235619   1.986   8.721   3.952
11912TIP3   OH235620   0.902   8.633   4.306
11912TIP3    H135621   0.940   8.719   4.324
11912TIP3    H235622   0.959   8.594   4.241
11913TIP3   OH235623   2.123   8.655   4.273
11913TIP3    H135624   2.039   8.655   4.229
11913TIP3    H235625   2.186   8.680   4.206
11914TIP3   OH235626   1.396   8.283   4.266
11914TIP3    H135627   1.391   8.192   4.294
11914TIP3    H235628   1.320   8.325   4.305
11915TIP3   OH235629   1.271   8.828   3.338
11915TIP3    H135630   1.282   8.885   3.414
11915TIP3    H235631   1.343   8.853   3.279
11916TIP3   OH235632   5.329   0.070   4.263
11916TIP3    H135633   5.296   0.153   4.298
11916TIP3    H235634   5.275   0.004   4.306
11917TIP3   OH235635   2.022   8.244   3.357
11917TIP3    H135636   1.946   8.259   3.414
11917TIP3    H235637   2.035   8.327   3.312
11918TIP3   OH235638   2.219   9.114   4.493
11918TIP3    H135639   2.126   9.113   4.470
11918TIP3    H235640   2.239   9.022   4.514
11919TIP3   OH235641   1.158   8.361   4.390
11919TIP3    H135642   1.076   8.329   4.351
11919TIP3    H235643   1.134   8.444   4.430
11920TIP3   OH235644   1.696   8.505   4.593
11920TIP3    H135645   1.770   8.480   4.648
11920TIP3    H235646   1.620   8.469   4.638
11921TIP3   OH235647   1.930   8.867   4.542
11921TIP3    H135648   1.902   8.883   4.632
11921TIP3    H235649   1.931   8.954   4.501
11922TIP3   OH235650   1.302   8.396   3.366
11922TIP3    H135651   1.264   8.397   3.453
11922TIP3    H235652   1.272   8.312   3.328
11923TIP3   OH235653   0.977   8.878   4.392
11923TIP3    H135654   0.973   8.860   4.486
11923TIP3    H235655   0.957   8.972   4.386
11924TIP3   OH235656   1.050   8.687   3.898
11924TIP3    H135657   0.961   8.697   3.931
11924TIP3    H235658   1.040   8.678   3.803
11925TIP3   OH235659   1.475   8.749   3.582
11925TIP3    H135660   1.420   8.826   3.567
11925TIP3    H235661   1.541   8.753   3.513
11926TIP3   OH235662   1.661   9.140   4.735
11926TIP3    H135663   1.663   9.073   4.804
11926TIP3    H235664   1.753   9.156   4.714
11927TIP3   OH235665   1.630   8.819   3.875
11927TIP3    H135666   1.554   8.840   3.820
11927TIP3    H235667   1.675   8.750   3.827
11928TIP3   OH235668   0.945   8.879   4.665
11928TIP3    H135669   0.882   8.930   4.717
11928TIP3    H235670   0.954   8.796   4.712
11929TIP3   OH235671   0.952   8.345   3.300
11929TIP3    H135672   0.922   8.411   3.363
11929TIP3    H235673   0.903   8.364   3.220
11930TIP3   OH235674   0.527   8.418   4.157
11930TIP3    H135675   0.543   8.454   4.244
11930TIP3    H235676   0.608   8.371   4.136
11931TIP3   OH235677   0.460   8.418   3.742
11931TIP3    H135678   0.454   8.455   3.654
11931TIP3    H235679   0.486   8.491   3.798
11932TIP3   OH235680   1.700   9.112   4.334
11932TIP3    H135681   1.728   9.077   4.249
11932TIP3    H235682   1.611   9.080   4.345
11933TIP3   OH235683   1.340   8.531   3.979
11933TIP3    H135684   1.263   8.506   4.031
11933TIP3    H235685   1.375   8.607   4.025
11934TIP3   OH235686   0.789   8.624   4.013
11934TIP3    H135687   0.706   8.620   3.964
11934TIP3    H235688   0.830   8.539   3.996
11935TIP3   OH235689   1.083   8.707   3.612
11935TIP3    H135690   1.155   8.647   3.632
11935TIP3    H235691   1.024   8.656   3.557
11936TIP3   OH235692   1.844   8.620   4.198
11936TIP3    H135693   1.817   8.660   4.281
11936TIP3    H235694   1.771   8.563   4.174
11937TIP3   OH235695   0.882   8.573   3.465
11937TIP3    H135696   0.795   8.609   3.485
11937TIP3    H235697   0.898   8.599   3.374
11938TIP3   OH235698   1.384   8.776   4.089
11938TIP3    H135699   1.422   8.863   4.083
11938TIP3    H235700   1.331   8.779   4.169
11939TIP3   OH235701   0.901   8.381   3.951
11939TIP3    H135702   0.862   8.303   3.990
11939TIP3    H235703   0.902   8.363   3.857
11940TIP3   OH235704   1.366   8.750   4.402
11940TIP3    H135705   1.307   8.815   4.364
11940TIP3    H235706   1.432   8.800   4.449
11941TIP3   OH235707   1.551   8.507   3.379
11941TIP3    H135708   1.462   8.473   3.375
11941TIP3    H235709   1.547   8.590   3.332
11942TIP3   OH235710   1.676   8.790   3.389
11942TIP3    H135711   1.752   8.737   3.412
11942TIP3    H235712   1.713   8.871   3.354
11943TIP3   OH235713   4.703   0.031   4.814
11943TIP3    H135714   4.653   0.027   4.732
11943TIP3    H235715   4.790  -0.003   4.791
11944TIP3   OH235716   2.138   8.880   3.271
11944TIP3    H135717   2.057   8.838   3.243
11944TIP3    H235718   2.110   8.964   3.309
11945TIP3   OH235719   0.930   8.622   4.784
11945TIP3    H135720   0.851   8.569   4.784
11945TIP3    H235721   0.985   8.583   4.852
11946TIP3   OH235722   1.733   8.721   4.428
11946TIP3    H135723   1.810   8.759   4.468
11946TIP3    H235724   1.714   8.643   4.480
11947TIP3   OH235725   1.618   8.453   3.638
11947TIP3    H135726   1.591   8.478   3.550
11947TIP3    H235727   1.664   8.531   3.671
11948TIP3   OH235728   1.307   8.580   3.708
11948TIP3    H135729   1.377   8.635   3.672
11948TIP3    H235730   1.322   8.581   3.802
11949TIP3   OH235731   1.552   8.900   4.537
11949TIP3    H135732   1.568   8.904   4.631
11949TIP3    H235733   1.622   8.844   4.503
11950TIP3   OH235734   1.448   8.336   3.819
11950TIP3    H135735   1.420   8.410   3.872
11950TIP3    H235736   1.511   8.373   3.757
11951TIP3   OH235737   0.917   8.372   3.659
11951TIP3    H135738   0.896   8.449   3.607
11951TIP3    H235739   1.010   8.358   3.645
11952TIP3   OH235740   2.195   8.830   4.492
11952TIP3    H135741   2.105   8.829   4.525
11952TIP3    H235742   2.191   8.778   4.412
11953TIP3   OH235743   1.876   8.968   3.813
11953TIP3    H135744   1.795   8.922   3.836
11953TIP3    H235745   1.940   8.935   3.876
11954TIP3   OH235746   0.421   8.522   3.489
11954TIP3    H135747   0.364   8.595   3.466
11954TIP3    H235748   0.393   8.450   3.432
11955TIP3   OH235749   0.894   8.279   4.345
11955TIP3    H135750   0.865   8.245   4.260
11955TIP3    H235751   0.888   8.203   4.404
11956TIP3   OH235752   0.982   9.205   5.011
11956TIP3    H135753   0.985   9.112   4.991
11956TIP3    H235754   0.900   9.217   5.058
11957TIP3   OH235755   1.254   9.024   4.586
11957TIP3    H135756   1.211   9.067   4.660
11957TIP3    H235757   1.311   9.091   4.549
11958TIP3   OH235758   1.007   8.883   3.295
11958TIP3    H135759   0.999   8.877   3.200
11958TIP3    H235760   1.099   8.865   3.313
11959TIP3   OH235761   1.302   8.814   4.773
11959TIP3    H135762   1.291   8.729   4.731
11959TIP3    H235763   1.279   8.878   4.706
11960TIP3   OH235764   1.288   8.597   4.608
11960TIP3    H135765   1.322   8.640   4.529
11960TIP3    H235766   1.196   8.580   4.589
11961TIP3   OH235767   1.900   9.119   4.946
11961TIP3    H135768   1.885   9.040   4.894
11961TIP3    H235769   1.990   9.144   4.924
11962TIP3   OH235770   1.064   8.954   4.972
11962TIP3    H135771   1.046   8.867   5.007
11962TIP3    H235772   1.156   8.952   4.946
11963TIP3   OH235773   1.450   8.394   4.674
11963TIP3    H135774   1.398   8.471   4.651
11963TIP3    H235775   1.391   8.320   4.661
11964TIP3   OH235776   1.571   8.842   4.813
11964TIP3    H135777   1.570   8.893   4.894
11964TIP3    H235778   1.481   8.814   4.801
11965TIP3   OH235779   1.841   8.897   4.795
11965TIP3    H135780   1.759   8.849   4.808
11965TIP3    H235781   1.907   8.846   4.841
11966TIP3   OH235782   2.071   8.820   4.926
11966TIP3    H135783   2.085   8.726   4.924
11966TIP3    H235784   2.066   8.842   5.019
11967TIP3   OH235785   1.008   8.716   5.094
11967TIP3    H135786   1.015   8.629   5.055
11967TIP3    H235787   1.054   8.708   5.178
11968TIP3   OH235788   1.504   8.406   4.941
11968TIP3    H135789   1.578   8.345   4.939
11968TIP3    H235790   1.474   8.410   4.851
11969TIP3   OH235791   1.598   8.618   5.086
11969TIP3    H135792   1.575   8.544   5.031
11969TIP3    H235793   1.521   8.675   5.084
11970TIP3   OH235794   1.936   8.743   3.157
11970TIP3    H135795   1.959   8.760   3.065
11970TIP3    H235796   1.942   8.648   3.165
11971TIP3   OH235797   1.847   9.181   3.621
11971TIP3    H135798   1.845   9.104   3.678
11971TIP3    H235799   1.886   9.250   3.676
11972TIP3   OH235800   5.502   0.133   4.593
11972TIP3    H135801   5.494   0.050   4.546
11972TIP3    H235802   5.518   0.197   4.525
11973TIP3   OH235803   1.846   8.500   3.022
11973TIP3    H135804   1.919   8.467   3.074
11973TIP3    H235805   1.769   8.455   3.057
11974TIP3   OH235806   1.918   8.702   3.481
11974TIP3    H135807   1.981   8.631   3.491
11974TIP3    H235808   1.968   8.782   3.498
11975TIP3   OH235809   2.065   8.871   3.996
11975TIP3    H135810   2.139   8.860   3.936
11975TIP3    H235811   2.105   8.902   4.077
11976TIP3   OH235812   2.150   9.008   4.222
11976TIP3    H135813   2.071   9.019   4.275
11976TIP3    H235814   2.151   9.083   4.164
11977TIP3   OH235815   0.740   8.810   5.060
11977TIP3    H135816   0.832   8.791   5.039
11977TIP3    H235817   0.700   8.724   5.070
11978TIP3   OH235818   2.596   8.706   4.778
11978TIP3    H135819   2.664   8.645   4.748
11978TIP3    H235820   2.565   8.749   4.698
11979TIP3   OH235821   2.059   8.480   3.555
11979TIP3    H135822   2.101   8.477   3.641
11979TIP3    H235823   1.986   8.419   3.561
11980TIP3   OH235824   0.695   8.467   4.380
11980TIP3    H135825   0.749   8.388   4.382
11980TIP3    H235826   0.755   8.536   4.353
11981TIP3   OH235827   0.549   8.787   4.477
11981TIP3    H135828   0.598   8.784   4.395
11981TIP3    H235829   0.546   8.880   4.499
11982TIP3   OH235830   2.456   8.799   4.562
11982TIP3    H135831   2.364   8.826   4.559
11982TIP3    H235832   2.458   8.715   4.516
11983TIP3   OH235833   2.073   8.457   3.174
11983TIP3    H135834   2.120   8.389   3.126
11983TIP3    H235835   2.142   8.515   3.207
11984TIP3   OH235836   0.543   8.228   3.921
11984TIP3    H135837   0.481   8.233   3.994
11984TIP3    H235838   0.513   8.296   3.860
11985TIP3   OH235839   0.740   8.423   4.777
11985TIP3    H135840   0.687   8.387   4.848
11985TIP3    H235841   0.677   8.461   4.716
11986TIP3   OH235842   2.369   8.540   4.480
11986TIP3    H135843   2.279   8.519   4.457
11986TIP3    H235844   2.414   8.455   4.478
11987TIP3   OH235845   1.616   8.485   4.134
11987TIP3    H135846   1.537   8.433   4.152
11987TIP3    H235847   1.659   8.437   4.062
11988TIP3   OH235848   2.083   8.402   3.998
11988TIP3    H135849   2.133   8.449   3.932
11988TIP3    H235850   1.996   8.442   3.995
11989TIP3   OH235851   2.224   8.472   3.776
11989TIP3    H135852   2.285   8.402   3.754
11989TIP3    H235853   2.259   8.550   3.734
11990TIP3   OH235854   0.798   8.176   4.109
11990TIP3    H135855   0.709   8.140   4.113
11990TIP3    H235856   0.854   8.099   4.103
11991TIP3   OH235857   0.635   8.047   3.736
11991TIP3    H135858   0.656   8.100   3.659
11991TIP3    H235859   0.605   8.111   3.802
11992TIP3   OH235860   1.283   8.224   4.015
11992TIP3    H135861   1.338   8.258   3.945
11992TIP3    H235862   1.327   8.252   4.096
11993TIP3   OH235863   1.786   8.350   3.964
11993TIP3    H135864   1.826   8.311   3.886
11993TIP3    H235865   1.792   8.282   4.031
11994TIP3   OH235866   1.841   8.310   3.555
11994TIP3    H135867   1.762   8.359   3.579
11994TIP3    H235868   1.829   8.224   3.596
11995TIP3   OH235869   0.734   8.209   3.523
11995TIP3    H135870   0.787   8.157   3.462
11995TIP3    H235871   0.798   8.258   3.574
11996TIP3   OH235872   1.185   8.360   3.612
11996TIP3    H135873   1.218   8.273   3.634
11996TIP3    H235874   1.240   8.420   3.663
11997TIP3   OH235875   1.048   8.461   4.986
11997TIP3    H135876   1.010   8.400   5.050
11997TIP3    H235877   1.139   8.469   5.012
11998TIP3   OH235878   1.290   8.467   5.111
11998TIP3    H135879   1.368   8.446   5.060
11998TIP3    H235880   1.286   8.398   5.178
11999TIP3   OH235881   2.112   8.551   4.902
11999TIP3    H135882   2.130   8.522   4.992
11999TIP3    H235883   2.198   8.551   4.859
12000TIP3   OH235884   2.332   8.903   3.470
12000TIP3    H135885   2.275   8.955   3.527
12000TIP3    H235886   2.280   8.889   3.392
12001TIP3   OH235887   4.126   8.993   3.569
12001TIP3    H135888   4.154   9.081   3.593
12001TIP3    H235889   4.170   8.976   3.485
12002TIP3   OH235890   3.411   9.144   3.749
12002TIP3    H135891   3.444   9.072   3.803
12002TIP3    H235892   3.458   9.134   3.666
12003TIP3   OH235893   2.858   8.780   3.629
12003TIP3    H135894   2.868   8.864   3.583
12003TIP3    H235895   2.817   8.723   3.564
12004TIP3   OH235896   3.561   8.920   3.222
12004TIP3    H135897   3.630   8.914   3.289
12004TIP3    H235898   3.608   8.938   3.141
12005TIP3   OH235899   2.490   9.029   3.732
12005TIP3    H135900   2.569   8.993   3.771
12005TIP3    H235901   2.485   8.989   3.645
12006TIP3   OH235902   6.261   0.052   3.468
12006TIP3    H135903   6.305  -0.013   3.523
12006TIP3    H235904   6.179   0.010   3.442
12007TIP3   OH235905   4.207   9.185   3.770
12007TIP3    H135906   4.163   9.250   3.715
12007TIP3    H235907   4.159   9.188   3.853
12008TIP3   OH235908   2.845   8.807   4.040
12008TIP3    H135909   2.788   8.844   3.972
12008TIP3    H235910   2.797   8.820   4.121
12009TIP3   OH235911   3.758   8.925   3.415
12009TIP3    H135912   3.717   8.911   3.500
12009TIP3    H235913   3.808   9.006   3.425
12010TIP3   OH235914   2.719   8.918   3.826
12010TIP3    H135915   2.778   8.993   3.837
12010TIP3    H235916   2.758   8.867   3.755
12011TIP3   OH235917   3.960   8.905   3.776
12011TIP3    H135918   3.887   8.966   3.769
12011TIP3    H235919   4.012   8.919   3.697
12012TIP3   OH235920   3.191   8.545   3.757
12012TIP3    H135921   3.188   8.453   3.784
12012TIP3    H235922   3.113   8.584   3.796
12013TIP3   OH235923   3.084   9.043   2.812
12013TIP3    H135924   3.111   9.111   2.750
12013TIP3    H235925   3.153   8.977   2.806
12014TIP3   OH235926   7.031   0.302   3.901
12014TIP3    H135927   7.009   0.394   3.889
12014TIP3    H235928   6.998   0.259   3.822
12015TIP3   OH235929   3.822   8.500   2.836
12015TIP3    H135930   3.744   8.513   2.890
12015TIP3    H235931   3.832   8.583   2.789
12016TIP3   OH235932   7.263   0.156   3.958
12016TIP3    H135933   7.174   0.187   3.941
12016TIP3    H235934   7.255   0.061   3.959
12017TIP3   OH235935   2.950   8.616   3.873
12017TIP3    H135936   2.875   8.603   3.814
12017TIP3    H235937   2.924   8.688   3.929
12018TIP3   OH235938   3.493   8.745   4.084
12018TIP3    H135939   3.570   8.733   4.140
12018TIP3    H235940   3.419   8.718   4.138
12019TIP3   OH235941   3.751   9.053   4.038
12019TIP3    H135942   3.716   9.014   4.118
12019TIP3    H235943   3.722   9.144   4.041
12020TIP3   OH235944   3.080   8.640   2.848
12020TIP3    H135945   3.056   8.627   2.940
12020TIP3    H235946   3.052   8.560   2.804
12021TIP3   OH235947   2.882   9.132   3.894
12021TIP3    H135948   2.843   9.133   3.981
12021TIP3    H235949   2.877   9.223   3.865
12022TIP3   OH235950   2.904   8.942   3.382
12022TIP3    H135951   2.859   9.003   3.441
12022TIP3    H235952   2.856   8.948   3.300
12023TIP3   OH235953   3.282   9.023   3.040
12023TIP3    H135954   3.248   9.113   3.033
12023TIP3    H235955   3.342   9.015   2.966
12024TIP3   OH235956   6.687   0.098   4.203
12024TIP3    H135957   6.682   0.051   4.286
12024TIP3    H235958   6.777   0.083   4.173
12025TIP3   OH235959   3.355   9.035   3.374
12025TIP3    H135960   3.273   9.040   3.325
12025TIP3    H235961   3.407   8.969   3.328
12026TIP3   OH235962   2.744   9.119   4.131
12026TIP3    H135963   2.690   9.174   4.187
12026TIP3    H235964   2.739   9.032   4.170
12027TIP3   OH235965   2.743   8.592   2.804
12027TIP3    H135966   2.720   8.659   2.868
12027TIP3    H235967   2.717   8.629   2.720
12028TIP3   OH235968   2.325   8.670   3.622
12028TIP3    H135969   2.294   8.732   3.689
12028TIP3    H235970   2.351   8.725   3.549
12029TIP3   OH235971   2.274   8.649   3.226
12029TIP3    H135972   2.294   8.664   3.134
12029TIP3    H235973   2.232   8.730   3.256
12030TIP3   OH235974   6.760   0.146   3.871
12030TIP3    H135975   6.803   0.168   3.788
12030TIP3    H235976   6.707   0.069   3.850
12031TIP3   OH235977   3.150   8.824   3.421
12031TIP3    H135978   3.064   8.855   3.449
12031TIP3    H235979   3.201   8.819   3.501
12032TIP3   OH235980   2.601   8.897   3.509
12032TIP3    H135981   2.511   8.893   3.475
12032TIP3    H235982   2.639   8.812   3.488
12033TIP3   OH235983   2.847   8.962   3.113
12033TIP3    H135984   2.934   8.923   3.107
12033TIP3    H235985   2.802   8.930   3.035
12034TIP3   OH235986   3.602   8.889   3.640
12034TIP3    H135987   3.595   8.900   3.735
12034TIP3    H235988   3.526   8.837   3.616
12035TIP3   OH235989   2.671   8.827   2.947
12035TIP3    H135990   2.587   8.865   2.972
12035TIP3    H235991   2.682   8.853   2.855
12036TIP3   OH235992   3.176   9.114   3.578
12036TIP3    H135993   3.241   9.061   3.533
12036TIP3    H235994   3.178   9.083   3.669
12037TIP3   OH235995   2.701   8.649   3.437
12037TIP3    H135996   2.663   8.573   3.481
12037TIP3    H235997   2.700   8.626   3.344
12038TIP3   OH235998   3.136   9.041   3.846
12038TIP3    H135999   3.055   9.084   3.874
12038TIP3    H236000   3.204   9.078   3.901
12039TIP3   OH236001   3.343   8.748   2.870
12039TIP3    H136002   3.251   8.727   2.857
12039TIP3    H236003   3.354   8.834   2.828
12040TIP3   OH236004   3.463   9.019   2.840
12040TIP3    H136005   3.544   8.986   2.880
12040TIP3    H236006   3.491   9.095   2.790
12041TIP3   OH236007   6.542   0.315   4.303
12041TIP3    H136008   6.592   0.395   4.290
12041TIP3    H236009   6.588   0.249   4.251
12042TIP3   OH236010   2.694   8.871   4.257
12042TIP3    H136011   2.599   8.877   4.265
12042TIP3    H236012   2.721   8.817   4.331
12043TIP3   OH236013   3.539   8.946   3.902
12043TIP3    H136014   3.618   8.982   3.941
12043TIP3    H236015   3.513   8.874   3.961
12044TIP3   OH236016   3.423   8.705   3.126
12044TIP3    H136017   3.394   8.729   3.038
12044TIP3    H236018   3.465   8.783   3.160
12045TIP3   OH236019   3.098   8.848   3.143
12045TIP3    H136020   3.166   8.905   3.108
12045TIP3    H236021   3.112   8.850   3.238
12046TIP3   OH236022   3.319   9.146   4.028
12046TIP3    H136023   3.335   9.214   4.093
12046TIP3    H236024   3.380   9.076   4.051
12047TIP3   OH236025   3.237   8.604   3.296
12047TIP3    H136026   3.209   8.683   3.343
12047TIP3    H236027   3.309   8.634   3.241
12048TIP3   OH236028   2.727   8.622   3.142
12048TIP3    H136029   2.713   8.709   3.103
12048TIP3    H236030   2.821   8.607   3.133
12049TIP3   OH236031   4.003   9.120   3.964
12049TIP3    H136032   3.918   9.102   4.005
12049TIP3    H236033   4.013   9.051   3.899
12050TIP3   OH236034   6.927   0.089   3.340
12050TIP3    H136035   6.918   0.153   3.411
12050TIP3    H236036   6.992   0.027   3.372
12051TIP3   OH236037   2.248   8.732   2.968
12051TIP3    H136038   2.163   8.775   2.960
12051TIP3    H236039   2.250   8.669   2.895
12052TIP3   OH236040   2.667   8.549   3.829
12052TIP3    H136041   2.645   8.515   3.742
12052TIP3    H236042   2.673   8.471   3.884
12053TIP3   OH236043   6.028   0.224   4.519
12053TIP3    H136044   6.075   0.151   4.481
12053TIP3    H236045   5.936   0.197   4.517
12054TIP3   OH236046   6.325   0.062   4.095
12054TIP3    H136047   6.285   0.091   4.177
12054TIP3    H236048   6.371   0.139   4.062
12055TIP3   OH236049   2.810   9.085   2.815
12055TIP3    H136050   2.801   9.097   2.720
12055TIP3    H236051   2.904   9.082   2.830
12056TIP3   OH236052   3.091   9.058   4.244
12056TIP3    H136053   3.095   8.984   4.184
12056TIP3    H236054   3.081   9.134   4.187
12057TIP3   OH236055   3.109   8.862   4.051
12057TIP3    H136056   3.126   8.906   3.967
12057TIP3    H236057   3.015   8.842   4.049
12058TIP3   OH236058   6.951   0.076   4.376
12058TIP3    H136059   7.019   0.008   4.371
12058TIP3    H236060   6.982   0.145   4.316
12059TIP3   OH236061   2.930   9.234   4.520
12059TIP3    H136062   2.893   9.146   4.512
12059TIP3    H236063   2.986   9.243   4.442
12060TIP3   OH236064   3.238   8.654   4.164
12060TIP3    H136065   3.199   8.733   4.126
12060TIP3    H236066   3.171   8.586   4.153
12061TIP3   OH236067   3.355   9.066   4.323
12061TIP3    H136068   3.345   9.071   4.418
12061TIP3    H236069   3.265   9.062   4.289
12062TIP3   OH236070   3.612   9.004   4.260
12062TIP3    H136071   3.520   9.019   4.284
12062TIP3    H236072   3.662   9.043   4.332
12063TIP3   OH236073   3.852   9.095   4.407
12063TIP3    H136074   3.864   9.000   4.403
12063TIP3    H236075   3.847   9.114   4.501
12064TIP3   OH236076   2.810   8.986   4.553
12064TIP3    H136077   2.822   8.902   4.509
12064TIP3    H236078   2.847   8.974   4.640
12065TIP3   OH236079   3.300   8.669   4.430
12065TIP3    H136080   3.374   8.608   4.429
12065TIP3    H236081   3.269   8.670   4.339
12066TIP3   OH236082   3.402   8.877   4.575
12066TIP3    H136083   3.377   8.804   4.519
12066TIP3    H236084   3.325   8.935   4.575
12067TIP3   OH236085   3.723   9.079   2.544
12067TIP3    H136086   3.732   9.090   2.449
12067TIP3    H236087   3.683   8.993   2.554
12068TIP3   OH236088   6.889   0.164   3.057
12068TIP3    H136089   6.961   0.101   3.051
12068TIP3    H236090   6.872   0.172   3.151
12069TIP3   OH236091   7.501   0.242   3.830
12069TIP3    H136092   7.409   0.228   3.850
12069TIP3    H236093   7.547   0.174   3.880
12070TIP3   OH236094   3.626   8.818   2.560
12070TIP3    H136095   3.702   8.778   2.603
12070TIP3    H236096   3.556   8.754   2.569
12071TIP3   OH236097   3.687   8.954   2.980
12071TIP3    H136098   3.750   8.882   2.980
12071TIP3    H236099   3.741   9.033   2.985
12072TIP3   OH236100   3.884   9.179   3.434
12072TIP3    H136101   3.974   9.162   3.405
12072TIP3    H236102   3.894   9.231   3.514
12073TIP3   OH236103   7.256   0.101   3.649
12073TIP3    H136104   7.170   0.142   3.654
12073TIP3    H236105   7.313   0.169   3.611
12074TIP3   OH236106   2.548   9.060   4.506
12074TIP3    H136107   2.643   9.045   4.504
12074TIP3    H236108   2.512   8.980   4.545
12075TIP3   OH236109   4.395   8.965   4.271
12075TIP3    H136110   4.460   8.902   4.239
12075TIP3    H236111   4.366   9.011   4.193
12076TIP3   OH236112   3.852   8.741   3.027
12076TIP3    H136113   3.889   8.740   3.115
12076TIP3    H236114   3.784   8.673   3.029
12077TIP3   OH236115   2.503   8.760   3.898
12077TIP3    H136116   2.545   8.678   3.873
12077TIP3    H236117   2.571   8.826   3.886
12078TIP3   OH236118   2.380   9.054   3.983
12078TIP3    H136119   2.412   9.049   3.893
12078TIP3    H236120   2.398   9.143   4.011
12079TIP3   OH236121   4.257   9.069   4.061
12079TIP3    H136122   4.169   9.101   4.083
12079TIP3    H236123   4.241   8.986   4.016
12080TIP3   OH236124   3.864   8.718   2.667
12080TIP3    H136125   3.902   8.655   2.606
12080TIP3    H236126   3.926   8.792   2.666
12081TIP3   OH236127   2.290   8.440   3.399
12081TIP3    H136128   2.223   8.450   3.466
12081TIP3    H236129   2.298   8.526   3.359
12082TIP3   OH236130   2.516   8.584   4.245
12082TIP3    H136131   2.466   8.573   4.325
12082TIP3    H236132   2.459   8.634   4.187
12083TIP3   OH236133   4.165   8.822   3.968
12083TIP3    H136134   4.080   8.819   3.924
12083TIP3    H236135   4.198   8.733   3.962
12084TIP3   OH236136   3.353   8.740   3.598
12084TIP3    H136137   3.314   8.673   3.656
12084TIP3    H236138   3.414   8.691   3.543
12085TIP3   OH236139   3.860   8.652   3.476
12085TIP3    H136140   3.909   8.703   3.410
12085TIP3    H236141   3.785   8.707   3.496
12086TIP3   OH236142   3.994   8.749   3.261
12086TIP3    H136143   4.065   8.689   3.240
12086TIP3    H236144   4.028   8.835   3.236
12087TIP3   OH236145   2.604   8.435   3.582
12087TIP3    H136146   2.513   8.407   3.595
12087TIP3    H236147   2.655   8.354   3.589
12088TIP3   OH236148   2.448   8.325   3.212
12088TIP3    H136149   2.458   8.396   3.149
12088TIP3    H236150   2.393   8.362   3.281
12089TIP3   OH236151   3.090   8.483   3.502
12089TIP3    H136152   3.144   8.528   3.437
12089TIP3    H236153   3.120   8.517   3.586
12090TIP3   OH236154   3.552   8.615   3.455
12090TIP3    H136155   3.607   8.591   3.380
12090TIP3    H236156   3.565   8.544   3.518
12091TIP3   OH236157   3.641   8.562   3.035
12091TIP3    H136158   3.564   8.613   3.061
12091TIP3    H236159   3.631   8.478   3.080
12092TIP3   OH236160   2.519   8.499   3.004
12092TIP3    H136161   2.569   8.442   2.946
12092TIP3    H236162   2.586   8.545   3.056
12093TIP3   OH236163   3.006   8.596   3.116
12093TIP3    H136164   3.057   8.551   3.184
12093TIP3    H236165   3.032   8.688   3.124
12094TIP3   OH236166   2.827   8.716   4.467
12094TIP3    H136167   2.795   8.656   4.534
12094TIP3    H236168   2.920   8.727   4.487
12095TIP3   OH236169   3.074   8.728   4.591
12095TIP3    H136170   3.155   8.710   4.542
12095TIP3    H236171   3.072   8.662   4.660
12096TIP3   OH236172   3.906   8.827   4.392
12096TIP3    H136173   3.922   8.794   4.480
12096TIP3    H236174   3.991   8.822   4.348
12097TIP3   OH236175   9.210   0.035   3.081
12097TIP3    H136176   9.237   0.113   3.128
12097TIP3    H236177   9.248   0.044   2.994
12098TIP3   OH236178   8.591   0.199   3.050
12098TIP3    H136179   8.618   0.118   3.094
12098TIP3    H236180   8.565   0.171   2.962
12099TIP3   OH236181   4.672   9.043   3.088
12099TIP3    H136182   4.645   9.105   3.020
12099TIP3    H236183   4.627   8.961   3.066
12100TIP3   OH236184   5.382   9.183   2.686
12100TIP3    H136185   5.436   9.176   2.764
12100TIP3    H236186   5.439   9.226   2.622
12101TIP3   OH236187   4.299   9.250   3.162
12101TIP3    H136188   4.367   9.206   3.213
12101TIP3    H236189   4.293   9.199   3.081
12102TIP3   OH236190   8.076   0.311   2.894
12102TIP3    H136191   8.110   0.288   2.981
12102TIP3    H236192   7.984   0.285   2.895
12103TIP3   OH236193   9.292   0.244   3.250
12103TIP3    H136194   9.208   0.286   3.231
12103TIP3    H236195   9.322   0.285   3.330
12104TIP3   OH236196   4.634   9.067   3.529
12104TIP3    H136197   4.575   9.100   3.462
12104TIP3    H236198   4.586   9.080   3.611
12105TIP3   OH236199   5.532   9.201   2.913
12105TIP3    H136200   5.488   9.189   2.997
12105TIP3    H236201   5.586   9.279   2.924
12106TIP3   OH236202   4.521   9.153   3.292
12106TIP3    H136203   4.554   9.242   3.298
12106TIP3    H236204   4.580   9.109   3.231
12107TIP3   OH236205   5.733   9.158   3.239
12107TIP3    H136206   5.647   9.184   3.208
12107TIP3    H236207   5.794   9.191   3.174
12108TIP3   OH236208   5.002   8.836   3.242
12108TIP3    H136209   4.995   8.740   3.245
12108TIP3    H236210   4.921   8.867   3.280
12109TIP3   OH236211   8.153   0.099   2.211
12109TIP3    H136212   8.194   0.179   2.244
12109TIP3    H236213   8.219   0.059   2.155
12110TIP3   OH236214   8.878   0.552   3.223
12110TIP3    H136215   8.872   0.638   3.263
12110TIP3    H236216   8.788   0.520   3.220
12111TIP3   OH236217   5.627   8.778   2.328
12111TIP3    H136218   5.549   8.791   2.381
12111TIP3    H236219   5.635   8.859   2.277
12112TIP3   OH236220   9.021   0.422   3.546
12112TIP3    H136221   8.936   0.430   3.504
12112TIP3    H236222   9.051   0.334   3.524
12113TIP3   OH236223   4.753   8.881   3.364
12113TIP3    H136224   4.673   8.843   3.328
12113TIP3    H236225   4.722   8.953   3.419
12114TIP3   OH236226   5.302   8.992   3.557
12114TIP3    H136227   5.372   8.977   3.620
12114TIP3    H236228   5.222   8.969   3.603
12115TIP3   OH236229   8.803   0.164   3.503
12115TIP3    H136230   8.766   0.140   3.588
12115TIP3    H236231   8.780   0.257   3.493
12116TIP3   OH236232   4.909   8.926   2.327
12116TIP3    H136233   4.880   8.924   2.418
12116TIP3    H236234   4.873   8.846   2.289
12117TIP3   OH236235   7.844   0.180   3.344
12117TIP3    H136236   7.804   0.144   3.423
12117TIP3    H236237   7.873   0.267   3.369
12118TIP3   OH236238   4.596   9.205   2.887
12118TIP3    H136239   4.563   9.295   2.889
12118TIP3    H236240   4.683   9.212   2.848
12119TIP3   OH236241   8.311   0.150   2.576
12119TIP3    H136242   8.279   0.240   2.578
12119TIP3    H236243   8.377   0.149   2.506
12120TIP3   OH236244   8.554   0.404   3.717
12120TIP3    H136245   8.533   0.365   3.802
12120TIP3    H236246   8.646   0.384   3.704
12121TIP3   OH236247   8.478   0.120   2.808
12121TIP3    H136248   8.401   0.121   2.751
12121TIP3    H236249   8.534   0.053   2.771
12122TIP3   OH236250   7.739   0.103   3.584
12122TIP3    H136251   7.744   0.184   3.634
12122TIP3    H236252   7.754   0.034   3.649
12123TIP3   OH236253   4.563   8.913   2.302
12123TIP3    H136254   4.554   8.915   2.397
12123TIP3    H236255   4.485   8.958   2.269
12124TIP3   OH236256   4.135   8.949   3.133
12124TIP3    H136257   4.197   8.957   3.206
12124TIP3    H236258   4.167   8.874   3.083
12125TIP3   OH236259   4.057   8.924   2.651
12125TIP3    H136260   4.151   8.919   2.631
12125TIP3    H236261   4.025   8.996   2.598
12126TIP3   OH236262   8.626   0.412   3.232
12126TIP3    H136263   8.638   0.352   3.159
12126TIP3    H236264   8.543   0.386   3.272
12127TIP3   OH236265   4.937   9.016   2.973
12127TIP3    H136266   4.856   9.024   3.022
12127TIP3    H236267   4.993   9.086   3.007
12128TIP3   OH236268   4.280   9.092   2.945
12128TIP3    H136269   4.208   9.046   2.988
12128TIP3    H236270   4.351   9.028   2.942
12129TIP3   OH236271   4.614   9.162   2.567
12129TIP3    H136272   4.709   9.174   2.568
12129TIP3    H236273   4.585   9.206   2.487
12130TIP3   OH236274   5.402   9.194   3.161
12130TIP3    H136275   5.383   9.215   3.252
12130TIP3    H236276   5.336   9.128   3.137
12131TIP3   OH236277   4.388   9.204   2.366
12131TIP3    H136278   4.368   9.146   2.292
12131TIP3    H236279   4.460   9.258   2.335
12132TIP3   OH236280   8.271   0.038   3.069
12132TIP3    H136281   8.302   0.127   3.050
12132TIP3    H236282   8.260   0.037   3.164
12133TIP3   OH236283   4.470   8.894   2.945
12133TIP3    H136284   4.446   8.813   2.991
12133TIP3    H236285   4.512   8.865   2.865
12134TIP3   OH236286   8.228   0.075   3.354
12134TIP3    H136287   8.165   0.141   3.383
12134TIP3    H236288   8.305   0.089   3.409
12135TIP3   OH236289   5.139   9.075   2.336
12135TIP3    H136290   5.051   9.038   2.333
12135TIP3    H236291   5.126   9.169   2.330
12136TIP3   OH236292   8.501   0.122   2.380
12136TIP3    H136293   8.580   0.078   2.410
12136TIP3    H236294   8.532   0.194   2.325
12137TIP3   OH236295   8.336   0.570   3.781
12137TIP3    H136296   8.385   0.652   3.780
12137TIP3    H236297   8.400   0.503   3.753
12138TIP3   OH236298   8.846   0.111   2.136
12138TIP3    H136299   8.929   0.068   2.157
12138TIP3    H236300   8.856   0.200   2.168
12139TIP3   OH236301   4.485   9.127   3.755
12139TIP3    H136302   4.390   9.127   3.767
12139TIP3    H236303   4.518   9.070   3.824
12140TIP3   OH236304   5.332   9.232   3.423
12140TIP3    H136305   5.412   9.270   3.460
12140TIP3    H236306   5.322   9.149   3.469
12141TIP3   OH236307   5.216   8.990   2.590
12141TIP3    H136308   5.187   9.023   2.505
12141TIP3    H236309   5.266   9.062   2.628
12142TIP3   OH236310   4.892   9.163   2.603
12142TIP3    H136311   4.950   9.231   2.569
12142TIP3    H236312   4.878   9.188   2.694
12143TIP3   OH236313   8.422   0.175   3.526
12143TIP3    H136314   8.431   0.177   3.621
12143TIP3    H236315   8.490   0.113   3.497
12144TIP3   OH236316   5.043   8.864   2.763
12144TIP3    H136317   5.020   8.925   2.833
12144TIP3    H236318   5.105   8.913   2.709
12145TIP3   OH236319   4.548   8.895   2.581
12145TIP3    H136320   4.550   8.990   2.594
12145TIP3    H236321   4.638   8.867   2.591
12146TIP3   OH236322   9.068   0.160   3.459
12146TIP3    H136323   8.976   0.147   3.480
12146TIP3    H236324   9.077   0.132   3.368
12147TIP3   OH236325   8.753   0.312   2.779
12147TIP3    H136326   8.703   0.377   2.828
12147TIP3    H236327   8.804   0.266   2.845
12148TIP3   OH236328   4.126   9.129   2.458
12148TIP3    H136329   4.218   9.147   2.443
12148TIP3    H236330   4.083   9.157   2.377
12149TIP3   OH236331   4.496   8.787   3.320
12149TIP3    H136332   4.469   8.748   3.237
12149TIP3    H236333   4.492   8.715   3.383
12150TIP3   OH236334   7.819   0.471   3.959
12150TIP3    H136335   7.863   0.387   3.976
12150TIP3    H236336   7.773   0.490   4.041
12151TIP3   OH236337   8.120   0.282   3.521
12151TIP3    H136338   8.083   0.306   3.606
12151TIP3    H236339   8.171   0.358   3.493
12152TIP3   OH236340   7.877   0.088   2.264
12152TIP3    H136341   7.844   0.088   2.174
12152TIP3    H236342   7.972   0.092   2.254
12153TIP3   OH236343   8.167   0.087   3.717
12153TIP3    H136344   8.162  -0.001   3.680
12153TIP3    H236345   8.159   0.146   3.642
12154TIP3   OH236346   4.899   9.119   3.540
12154TIP3    H136347   4.918   9.164   3.458
12154TIP3    H236348   4.806   9.100   3.536
12155TIP3   OH236349   8.842   0.377   3.768
12155TIP3    H136350   8.866   0.292   3.806
12155TIP3    H236351   8.914   0.398   3.709
12156TIP3   OH236352   7.942   0.232   3.974
12156TIP3    H136353   7.924   0.141   3.997
12156TIP3    H236354   8.033   0.232   3.945
12157TIP3   OH236355   5.048   8.921   3.648
12157TIP3    H136356   5.001   8.995   3.610
12157TIP3    H236357   4.988   8.847   3.639
12158TIP3   OH236358   8.421   0.116   3.808
12158TIP3    H136359   8.419   0.149   3.897
12158TIP3    H236360   8.330   0.095   3.788
12159TIP3   OH236361   8.679   0.090   3.726
12159TIP3    H136362   8.591   0.086   3.764
12159TIP3    H236363   8.737   0.089   3.802
12160TIP3   OH236364   8.913   0.122   3.883
12160TIP3    H136365   8.929   0.028   3.884
12160TIP3    H236366   8.909   0.146   3.976
12161TIP3   OH236367   4.604   9.222   4.058
12161TIP3    H136368   4.613   9.137   4.015
12161TIP3    H236369   4.650   9.212   4.141
12162TIP3   OH236370   5.102   8.928   3.916
12162TIP3    H136371   5.171   8.862   3.914
12162TIP3    H236372   5.073   8.935   3.825
12163TIP3   OH236373   5.206   9.142   4.056
12163TIP3    H136374   5.181   9.066   4.003
12163TIP3    H236375   5.127   9.196   4.058
12164TIP3   OH236376   8.876   0.259   2.533
12164TIP3    H136377   8.824   0.181   2.514
12164TIP3    H236378   8.840   0.293   2.615
12165TIP3   OH236379   9.260   0.558   3.574
12165TIP3    H136380   9.171   0.528   3.554
12165TIP3    H236381   9.317   0.494   3.532
12166TIP3   OH236382   5.426   9.101   2.045
12166TIP3    H136383   5.496   9.050   2.087
12166TIP3    H236384   5.349   9.045   2.053
12167TIP3   OH236385   8.762   0.025   2.424
12167TIP3    H136386   8.807  -0.054   2.456
12167TIP3    H236387   8.786   0.031   2.332
12168TIP3   OH236388   8.935   0.197   2.960
12168TIP3    H136389   9.012   0.234   2.917
12168TIP3    H236390   8.945   0.224   3.052
12169TIP3   OH236391   9.051   0.346   3.170
12169TIP3    H136392   8.995   0.418   3.199
12169TIP3    H236393   9.084   0.374   3.085
12170TIP3   OH236394   7.620   0.082   4.014
12170TIP3    H136395   7.714   0.063   4.003
12170TIP3    H236396   7.581  -0.003   4.035
12171TIP3   OH236397   6.198   9.214   3.758
12171TIP3    H136398   6.263   9.159   3.713
12171TIP3    H236399   6.157   9.264   3.687
12172TIP3   OH236400   5.622   9.039   2.513
12172TIP3    H136401   5.668   9.032   2.597
12172TIP3    H236402   5.558   8.968   2.514
12173TIP3   OH236403   4.299   8.974   3.351
12173TIP3    H136404   4.369   8.908   3.350
12173TIP3    H236405   4.344   9.057   3.361
12174TIP3   OH236406   7.493   0.023   3.483
12174TIP3    H136407   7.576   0.051   3.521
12174TIP3    H236408   7.459   0.101   3.439
12175TIP3   OH236409   9.314   0.084   3.558
12175TIP3    H136410   9.229   0.129   3.558
12175TIP3    H236411   9.300   0.006   3.505
12176TIP3   OH236412   5.658   9.000   2.150
12176TIP3    H136413   5.692   8.929   2.094
12176TIP3    H236414   5.735   9.052   2.171
12177TIP3   OH236415   4.094   8.788   2.894
12177TIP3    H136416   4.010   8.768   2.935
12177TIP3    H236417   4.072   8.851   2.825
12178TIP3   OH236418   4.317   8.869   3.735
12178TIP3    H136419   4.267   8.856   3.815
12178TIP3    H236420   4.253   8.906   3.673
12179TIP3   OH236421   5.960   9.083   3.446
12179TIP3    H136422   5.873   9.083   3.408
12179TIP3    H236423   5.987   8.991   3.445
12180TIP3   OH236424   5.207   9.007   3.117
12180TIP3    H136425   5.135   8.951   3.147
12180TIP3    H236426   5.250   8.956   3.049
12181TIP3   OH236427   5.659   8.893   2.943
12181TIP3    H136428   5.699   8.952   2.879
12181TIP3    H236429   5.569   8.924   2.950
12182TIP3   OH236430   5.787   9.011   2.728
12182TIP3    H136431   5.854   8.946   2.708
12182TIP3    H236432   5.830   9.095   2.712
12183TIP3   OH236433   4.402   8.672   3.087
12183TIP3    H136434   4.315   8.636   3.105
12183TIP3    H236435   4.458   8.596   3.079
12184TIP3   OH236436   4.216   8.601   2.725
12184TIP3    H136437   4.244   8.655   2.651
12184TIP3    H236438   4.179   8.664   2.787
12185TIP3   OH236439   4.851   8.736   2.981
12185TIP3    H136440   4.889   8.821   2.956
12185TIP3    H236441   4.887   8.719   3.068
12186TIP3   OH236442   5.377   8.881   2.932
12186TIP3    H136443   5.357   8.838   2.848
12186TIP3    H236444   5.375   8.810   2.996
12187TIP3   OH236445   5.431   8.838   2.510
12187TIP3    H136446   5.353   8.888   2.533
12187TIP3    H236447   5.417   8.752   2.548
12188TIP3   OH236448   4.321   8.753   2.503
12188TIP3    H136449   4.361   8.689   2.443
12188TIP3    H236450   4.395   8.802   2.538
12189TIP3   OH236451   4.826   8.899   2.592
12189TIP3    H136452   4.886   8.856   2.652
12189TIP3    H236453   4.845   8.992   2.600
12190TIP3   OH236454   4.621   8.963   3.955
12190TIP3    H136455   4.588   8.902   4.020
12190TIP3    H236456   4.714   8.973   3.976
12191TIP3   OH236457   4.869   8.980   4.074
12191TIP3    H136458   4.952   8.964   4.028
12191TIP3    H236459   4.865   8.912   4.141
12192TIP3   OH236460   5.703   9.091   3.880
12192TIP3    H136461   5.718   9.060   3.969
12192TIP3    H236462   5.788   9.083   3.837
12193TIP3   OH236463   9.103   0.227   2.380
12193TIP3    H136464   9.127   0.318   2.367
12193TIP3    H236465   9.033   0.229   2.444
12194TIP3   OH236466   0.556   0.479   2.577
12194TIP3    H136467   0.586   0.393   2.607
12194TIP3    H236468   0.526   0.464   2.488
12195TIP3   OH236469   9.712   0.120   2.541
12195TIP3    H136470   9.693   0.198   2.489
12195TIP3    H236471   9.653   0.053   2.505
12196TIP3   OH236472   0.637   0.214   2.222
12196TIP3    H136473   0.692   0.205   2.299
12196TIP3    H236474   0.697   0.202   2.148
12197TIP3   OH236475   9.347   0.312   2.698
12197TIP3    H136476   9.439   0.306   2.724
12197TIP3    H236477   9.346   0.283   2.607
12198TIP3   OH236478   9.774   0.485   2.562
12198TIP3    H136479   9.864   0.458   2.542
12198TIP3    H236480   9.721   0.447   2.491
12199TIP3   OH236481   9.714   0.124   2.995
12199TIP3    H136482   9.665   0.165   2.924
12199TIP3    H236483   9.663   0.145   3.074
12200TIP3   OH236484   0.803   0.229   2.444
12200TIP3    H136485   0.745   0.229   2.520
12200TIP3    H236486   0.829   0.321   2.434
12201TIP3   OH236487   9.606   0.238   2.769
12201TIP3    H136488   9.662   0.314   2.785
12201TIP3    H236489   9.648   0.192   2.696
12202TIP3   OH236490   0.926   0.174   2.729
12202TIP3    H136491   0.833   0.196   2.721
12202TIP3    H236492   0.958   0.174   2.639
12203TIP3   OH236493   6.776   9.058   2.730
12203TIP3    H136494   6.773   8.968   2.761
12203TIP3    H236495   6.700   9.101   2.770
12204TIP3   OH236496   0.118   0.456   1.745
12204TIP3    H136497   0.172   0.532   1.767
12204TIP3    H236498   0.175   0.402   1.691
12205TIP3   OH236499   7.455   9.082   1.868
12205TIP3    H136500   7.380   9.102   1.924
12205TIP3    H236501   7.473   9.164   1.821
12206TIP3   OH236502   6.542   9.146   2.855
12206TIP3    H136503   6.457   9.118   2.821
12206TIP3    H236504   6.524   9.229   2.900
12207TIP3   OH236505   0.551   0.031   3.052
12207TIP3    H136506   0.623   0.012   3.112
12207TIP3    H236507   0.472   0.011   3.102
12208TIP3   OH236508   0.812   0.511   2.968
12208TIP3    H136509   0.758   0.479   3.041
12208TIP3    H236510   0.750   0.555   2.910
12209TIP3   OH236511   6.770   9.084   1.865
12209TIP3    H136512   6.742   9.134   1.942
12209TIP3    H236513   6.690   9.040   1.835
12210TIP3   OH236514   9.745   0.469   2.853
12210TIP3    H136515   9.678   0.496   2.917
12210TIP3    H236516   9.724   0.519   2.774
12211TIP3   OH236517   9.621   0.326   2.386
12211TIP3    H136518   9.528   0.310   2.404
12211TIP3    H236519   9.634   0.290   2.298
12212TIP3   OH236520   0.309   0.413   2.099
12212TIP3    H136521   0.273   0.498   2.076
12212TIP3    H236522   0.365   0.390   2.025
12213TIP3   OH236523   0.496   0.645   3.176
12213TIP3    H136524   0.482   0.578   3.243
12213TIP3    H236525   0.586   0.675   3.189
12214TIP3   OH236526   0.455   0.388   2.337
12214TIP3    H136527   0.396   0.410   2.265
12214TIP3    H236528   0.518   0.328   2.298
12215TIP3   OH236529   9.619   0.477   3.128
12215TIP3    H136530   9.588   0.528   3.203
12215TIP3    H236531   9.603   0.386   3.152
12216TIP3   OH236532   6.334   9.171   1.820
12216TIP3    H136533   6.320   9.179   1.915
12216TIP3    H236534   6.258   9.123   1.788
12217TIP3   OH236535   5.939   9.221   2.646
12217TIP3    H136536   5.988   9.262   2.718
12217TIP3    H236537   6.007   9.193   2.584
12218TIP3   OH236538   9.091   0.012   2.209
12218TIP3    H136539   9.131   0.044   2.128
12218TIP3    H236540   9.105   0.083   2.272
12219TIP3   OH236541   0.604   0.612   2.815
12219TIP3    H136542   0.594   0.584   2.724
12219TIP3    H236543   0.516   0.607   2.851
12220TIP3   OH236544   0.170   0.123   2.426
12220TIP3    H136545   0.090   0.106   2.476
12220TIP3    H236546   0.206   0.203   2.465
12221TIP3   OH236547   9.379   0.197   2.445
12221TIP3    H136548   9.288   0.184   2.419
12221TIP3    H236549   9.421   0.113   2.428
12222TIP3   OH236550   9.647   0.193   2.146
12222TIP3    H136551   9.738   0.213   2.125
12222TIP3    H236552   9.597   0.229   2.073
12223TIP3   OH236553   0.650   0.231   2.673
12223TIP3    H136554   0.628   0.256   2.763
12223TIP3    H236555   0.584   0.165   2.650
12224TIP3   OH236556   9.449   0.255   1.949
12224TIP3    H136557   9.413   0.205   1.875
12224TIP3    H236558   9.526   0.300   1.913
12225TIP3   OH236559   0.233   0.369   2.533
12225TIP3    H136560   0.319   0.394   2.498
12225TIP3    H236561   0.245   0.366   2.628
12226TIP3   OH236562   6.250   9.194   2.416
12226TIP3    H136563   6.232   9.114   2.466
12226TIP3    H236564   6.281   9.163   2.331
12227TIP3   OH236565   0.202   0.364   2.815
12227TIP3    H136566   0.116   0.407   2.824
12227TIP3    H236567   0.262   0.421   2.862
12228TIP3   OH236568   0.395   0.113   1.908
12228TIP3    H136569   0.311   0.106   1.862
12228TIP3    H236570   0.424   0.203   1.892
12229TIP3   OH236571   0.452   0.379   1.863
12229TIP3    H136572   0.542   0.365   1.834
12229TIP3    H236573   0.416   0.443   1.802
12230TIP3   OH236574   0.249   0.732   3.273
12230TIP3    H136575   0.179   0.698   3.217
12230TIP3    H236576   0.329   0.719   3.223
12231TIP3   OH236577   9.565   0.202   3.212
12231TIP3    H136578   9.470   0.210   3.219
12231TIP3    H236579   9.591   0.153   3.290
12232TIP3   OH236580   0.582   0.279   2.936
12232TIP3    H136581   0.631   0.317   3.009
12232TIP3    H236582   0.563   0.189   2.965
12233TIP3   OH236583   0.483   0.001   2.135
12233TIP3    H136584   0.448   0.034   2.053
12233TIP3    H236585   0.528   0.076   2.174
12234TIP3   OH236586   0.126   0.211   2.162
12234TIP3    H136587   0.190   0.278   2.137
12234TIP3    H236588   0.145   0.193   2.254
12235TIP3   OH236589   0.392   0.493   2.964
12235TIP3    H136590   0.424   0.546   3.037
12235TIP3    H236591   0.456   0.422   2.957
12236TIP3   OH236592   6.815   9.146   2.295
12236TIP3    H136593   6.788   9.224   2.343
12236TIP3    H236594   6.892   9.173   2.245
12237TIP3   OH236595   6.343   9.164   2.107
12237TIP3    H136596   6.342   9.257   2.129
12237TIP3    H236597   6.436   9.142   2.102
12238TIP3   OH236598   1.040   0.360   2.913
12238TIP3    H136599   0.971   0.423   2.934
12238TIP3    H236600   0.999   0.298   2.852
12239TIP3   OH236601   9.167   0.152   1.989
12239TIP3    H136602   9.252   0.197   1.990
12239TIP3    H236603   9.131   0.170   1.902
12240TIP3   OH236604   6.278   9.071   2.807
12240TIP3    H136605   6.249   9.038   2.722
12240TIP3    H236606   6.274   8.994   2.865
12241TIP3   OH236607   9.589   0.622   3.367
12241TIP3    H136608   9.676   0.610   3.407
12241TIP3    H236609   9.561   0.708   3.398
12242TIP3   OH236610   0.071   0.594   3.103
12242TIP3    H136611  -0.019   0.562   3.114
12242TIP3    H236612   0.081   0.604   3.008
12243TIP3   OH236613   9.684   0.316   1.823
12243TIP3    H136614   9.663   0.290   1.734
12243TIP3    H236615   9.773   0.351   1.818
12244TIP3   OH236616   0.180   0.392   3.254
12244TIP3    H136617   0.184   0.316   3.195
12244TIP3    H236618   0.156   0.465   3.197
12245TIP3   OH236619   0.172   0.201   3.044
12245TIP3    H136620   0.198   0.244   2.962
12245TIP3    H236621   0.081   0.176   3.030
12246TIP3   OH236622   0.774   0.665   3.299
12246TIP3    H136623   0.799   0.574   3.318
12246TIP3    H236624   0.847   0.699   3.247
12247TIP3   OH236625   0.028   0.496   3.467
12247TIP3    H136626  -0.032   0.424   3.489
12247TIP3    H236627   0.074   0.465   3.389
12248TIP3   OH236628   6.826   9.211   3.139
12248TIP3    H136629   6.786   9.292   3.107
12248TIP3    H236630   6.759   9.144   3.124
12249TIP3   OH236631   0.446   0.433   3.342
12249TIP3    H136632   0.454   0.430   3.437
12249TIP3    H236633   0.354   0.413   3.324
12250TIP3   OH236634   0.668   0.387   3.176
12250TIP3    H136635   0.590   0.393   3.232
12250TIP3    H236636   0.740   0.374   3.238
12251TIP3   OH236637   0.870   0.387   3.368
12251TIP3    H136638   0.893   0.294   3.371
12251TIP3    H236639   0.863   0.413   3.460
12252TIP3   OH236640   9.674   0.278   3.542
12252TIP3    H136641   9.676   0.189   3.508
12252TIP3    H236642   9.712   0.271   3.630
12253TIP3   OH236643   6.886   9.194   3.405
12253TIP3    H136644   6.959   9.132   3.402
12253TIP3    H236645   6.859   9.204   3.314
12254TIP3   OH236646   0.430   0.159   3.573
12254TIP3    H136647   0.405   0.091   3.510
12254TIP3    H236648   0.362   0.226   3.564
12255TIP3   OH236649   0.819   0.081   1.683
12255TIP3    H136650   0.891   0.117   1.631
12255TIP3    H236651   0.758   0.045   1.619
12256TIP3   OH236652   9.407   0.337   3.484
12256TIP3    H136653   9.501   0.343   3.500
12256TIP3    H236654   9.381   0.256   3.528
12257TIP3   OH236655   1.435   0.209   3.231
12257TIP3    H136656   1.491   0.142   3.192
12257TIP3    H236657   1.422   0.273   3.160
12258TIP3   OH236658   0.833   0.107   2.065
12258TIP3    H136659   0.916   0.086   2.108
12258TIP3    H236660   0.793   0.023   2.047
12259TIP3   OH236661   9.381   0.050   2.854
12259TIP3    H136662   9.440  -0.025   2.849
12259TIP3    H236663   9.436   0.125   2.831
12260TIP3   OH236664   9.159   0.360   2.899
12260TIP3    H136665   9.218   0.323   2.833
12260TIP3    H236666   9.169   0.455   2.889
12261TIP3   OH236667   5.870   9.032   2.371
12261TIP3    H136668   5.793   9.030   2.429
12261TIP3    H236669   5.864   9.117   2.327
12262TIP3   OH236670   6.111   9.094   3.206
12262TIP3    H136671   6.069   9.096   3.292
12262TIP3    H236672   6.057   9.151   3.152
12263TIP3   OH236673   1.214   0.077   2.977
12263TIP3    H136674   1.180   0.133   2.907
12263TIP3    H236675   1.252   0.001   2.932
12264TIP3   OH236676   0.467   0.043   2.597
12264TIP3    H136677   0.391  -0.013   2.611
12264TIP3    H236678   0.519  -0.003   2.531
12265TIP3   OH236679   7.463   9.192   2.429
12265TIP3    H136680   7.509   9.241   2.361
12265TIP3    H236681   7.380   9.239   2.439
12266TIP3   OH236682   1.068   0.043   2.201
12266TIP3    H136683   1.121  -0.035   2.185
12266TIP3    H236684   1.127   0.116   2.185
12267TIP3   OH236685   6.189   8.966   2.564
12267TIP3    H136686   6.103   8.927   2.580
12267TIP3    H236687   6.249   8.892   2.560
12268TIP3   OH236688   5.996   8.848   2.216
12268TIP3    H136689   6.036   8.904   2.149
12268TIP3    H236690   5.956   8.908   2.278
12269TIP3   OH236691   6.669   8.995   2.478
12269TIP3    H136692   6.715   9.048   2.412
12269TIP3    H236693   6.707   9.022   2.561
12270TIP3   OH236694   7.166   9.146   2.426
12270TIP3    H136695   7.182   9.108   2.339
12270TIP3    H236696   7.174   9.072   2.486
12271TIP3   OH236697   7.238   9.104   2.037
12271TIP3    H136698   7.156   9.149   2.053
12271TIP3    H236699   7.227   9.017   2.077
12272TIP3   OH236700   6.122   9.015   2.025
12272TIP3    H136701   6.163   8.947   1.972
12272TIP3    H236702   6.196   9.062   2.065
12273TIP3   OH236703   6.625   9.185   2.091
12273TIP3    H136704   6.681   9.152   2.162
12273TIP3    H236705   6.634   9.280   2.096
12274TIP3   OH236706   6.418   9.250   3.445
12274TIP3    H136707   6.384   9.185   3.505
12274TIP3    H236708   6.511   9.259   3.468
12275TIP3   OH236709   6.664   9.254   3.570
12275TIP3    H136710   6.743   9.229   3.522
12275TIP3    H236711   6.656   9.187   3.639
12276TIP3   OH236712   0.948   0.120   3.377
12276TIP3    H136713   0.967   0.087   3.465
12276TIP3    H236714   1.030   0.110   3.329
12277TIP3   OH236715   2.255   0.632   7.795
12277TIP3    H136716   2.271   0.563   7.859
12277TIP3    H236717   2.262   0.713   7.845
12278TIP3   OH236718   1.827   1.053   7.837
12278TIP3    H136719   1.881   1.006   7.774
12278TIP3    H236720   1.753   0.994   7.854
12279TIP3   OH236721   2.232   0.878   7.928
12279TIP3    H136722   2.148   0.872   7.975
12279TIP3    H236723   2.225   0.957   7.875
12280TIP3   OH236724   1.984   0.929   7.653
12280TIP3    H136725   2.016   0.841   7.632
12280TIP3    H236726   2.054   0.987   7.626
12281TIP3   OH236727   2.100   0.692   7.580
12281TIP3    H136728   2.121   0.624   7.515
12281TIP3    H236729   2.154   0.670   7.656
12282TIP3   OH236730   5.602   5.408   0.404
12282TIP3    H136731   5.576   5.316   0.405
12282TIP3    H236732   5.693   5.407   0.374
12283TIP3   OH236733   5.979   4.976   0.068
12283TIP3    H136734   5.902   5.015   0.109
12283TIP3    H236735   6.033   5.050   0.041
12284TIP3   OH236736   2.322   0.747   7.015
12284TIP3    H136737   2.316   0.840   6.992
12284TIP3    H236738   2.413   0.723   6.996
12285TIP3   OH236739   5.995   5.745   0.437
12285TIP3    H136740   5.945   5.680   0.386
12285TIP3    H236741   5.935   5.819   0.447
12286TIP3   OH236742   1.624   1.073   7.478
12286TIP3    H136743   1.580   1.048   7.396
12286TIP3    H236744   1.575   1.148   7.510
12287TIP3   OH236745   1.819   0.956   7.130
12287TIP3    H136746   1.873   0.886   7.093
12287TIP3    H236747   1.854   0.971   7.217
12288TIP3   OH236748   1.875   1.012   7.399
12288TIP3    H136749   1.785   1.025   7.429
12288TIP3    H236750   1.918   0.969   7.473
12289TIP3   OH236751   5.747   6.178   0.618
12289TIP3    H136752   5.734   6.249   0.556
12289TIP3    H236753   5.831   6.196   0.659
12290TIP3   OH236754   5.763   5.139   0.090
12290TIP3    H136755   5.796   5.214   0.040
12290TIP3    H236756   5.679   5.168   0.124
12291TIP3   OH236757   5.863   5.485   0.532
12291TIP3    H136758   5.864   5.416   0.600
12291TIP3    H236759   5.951   5.482   0.494
12292TIP3   OH236760   2.251   0.821   7.276
12292TIP3    H136761   2.223   0.747   7.329
12292TIP3    H236762   2.271   0.783   7.190
12293TIP3   OH236763   2.030   0.559   7.188
12293TIP3    H136764   2.087   0.537   7.261
12293TIP3    H236765   1.942   0.535   7.219
12294TIP3   OH236766   5.535   5.813   0.236
12294TIP3    H136767   5.483   5.842   0.311
12294TIP3    H236768   5.518   5.880   0.169
12295TIP3   OH236769   2.308   1.021   6.978
12295TIP3    H136770   2.315   1.076   6.899
12295TIP3    H236771   2.241   1.064   7.031
12296TIP3   OH236772   2.187   0.491   7.404
12296TIP3    H136773   2.168   0.409   7.449
12296TIP3    H236774   2.282   0.490   7.392
12297TIP3   OH236775   2.267   1.149   7.838
12297TIP3    H136776   2.235   1.172   7.751
12297TIP3    H236777   2.363   1.157   7.832
12298TIP3   OH236778   1.962   0.758   7.004
12298TIP3    H136779   2.003   0.694   7.063
12298TIP3    H236780   2.017   0.756   6.926
12299TIP3   OH236781   2.329   0.261   7.002
12299TIP3    H136782   2.287   0.205   6.937
12299TIP3    H236783   2.288   0.347   6.989
12300TIP3   OH236784   2.538   1.228   7.838
12300TIP3    H136785   2.547   1.261   7.927
12300TIP3    H236786   2.606   1.274   7.789
12301TIP3   OH236787   5.822   5.871   0.110
12301TIP3    H136788   5.772   5.789   0.107
12301TIP3    H236789   5.912   5.844   0.127
12302TIP3   OH236790   2.459   0.463   7.385
12302TIP3    H136791   2.520   0.528   7.350
12302TIP3    H236792   2.504   0.428   7.462
12303TIP3   OH236793   2.582   0.347   7.611
12303TIP3    H136794   2.533   0.340   7.693
12303TIP3    H236795   2.666   0.384   7.637
12304TIP3   OH236796   2.590   0.737   7.955
12304TIP3    H136797   2.662   0.681   7.928
12304TIP3    H236798   2.597   0.813   7.898
12305TIP3   OH236799   5.675   5.638   0.082
12305TIP3    H136800   5.610   5.681   0.138
12305TIP3    H236801   5.624   5.583   0.024
12306TIP3   OH236802   2.497   0.240   7.218
12306TIP3    H136803   2.435   0.242   7.146
12306TIP3    H236804   2.473   0.314   7.273
12307TIP3   OH236805   6.004   5.212   0.500
12307TIP3    H136806   6.011   5.123   0.533
12307TIP3    H236807   6.068   5.262   0.551
12308TIP3   OH236808   6.056   4.960   0.578
12308TIP3    H136809   6.010   4.901   0.638
12308TIP3    H236810   6.145   4.966   0.614
12309TIP3   OH236811   2.160   1.116   7.567
12309TIP3    H136812   2.201   1.103   7.482
12309TIP3    H236813   2.154   1.211   7.578
12310TIP3   OH236814   5.335   5.887   0.529
12310TIP3    H136815   5.387   5.833   0.589
12310TIP3    H236816   5.259   5.915   0.581
12311TIP3   OH236817   4.998   5.787   0.096
12311TIP3    H136818   5.010   5.769   0.003
12311TIP3    H236819   4.982   5.881   0.101
12312TIP3   OH236820   5.236   5.706   0.239
12312TIP3    H136821   5.141   5.714   0.243
12312TIP3    H236822   5.259   5.739   0.152
12313TIP3   OH236823   2.257   1.358   8.020
12313TIP3    H136824   2.242   1.430   7.959
12313TIP3    H236825   2.275   1.283   7.963
12314TIP3   OH236826   1.556   0.988   7.220
12314TIP3    H136827   1.644   0.982   7.181
12314TIP3    H236828   1.507   0.917   7.179
12315TIP3   OH236829   2.280   1.089   7.322
12315TIP3    H136830   2.279   0.994   7.312
12315TIP3    H236831   2.230   1.121   7.247
12316TIP3   OH236832   5.688   5.910   0.642
12316TIP3    H136833   5.693   5.848   0.568
12316TIP3    H236834   5.713   5.994   0.604
12317TIP3   OH236835   3.765   0.620   7.250
12317TIP3    H136836   3.730   0.705   7.225
12317TIP3    H236837   3.696   0.558   7.226
12318TIP3   OH236838   3.756   0.612   7.654
12318TIP3    H136839   3.805   0.594   7.734
12318TIP3    H236840   3.711   0.529   7.636
12319TIP3   OH236841   3.063   0.549   7.980
12319TIP3    H136842   3.082   0.467   8.025
12319TIP3    H236843   3.136   0.559   7.918
12320TIP3   OH236844   4.025   0.918   7.352
12320TIP3    H136845   4.013   0.851   7.420
12320TIP3    H236846   4.049   0.997   7.401
12321TIP3   OH236847   3.058   0.904   7.704
12321TIP3    H136848   3.034   0.812   7.701
12321TIP3    H236849   3.153   0.905   7.689
12322TIP3   OH236850   2.710   0.121   7.491
12322TIP3    H136851   2.668   0.195   7.535
12322TIP3    H236852   2.648   0.095   7.423
12323TIP3   OH236853   2.836   0.433   7.680
12323TIP3    H136854   2.891   0.357   7.699
12323TIP3    H236855   2.898   0.502   7.655
12324TIP3   OH236856   3.703   1.330   7.375
12324TIP3    H136857   3.721   1.269   7.304
12324TIP3    H236858   3.725   1.282   7.454
12325TIP3   OH236859   3.579   0.839   7.638
12325TIP3    H136860   3.618   0.754   7.617
12325TIP3    H236861   3.654   0.895   7.660
12326TIP3   OH236862   3.977   0.324   7.734
12326TIP3    H136863   4.016   0.248   7.777
12326TIP3    H236864   3.946   0.290   7.650
12327TIP3   OH236865   2.998   0.222   7.747
12327TIP3    H136866   3.079   0.194   7.791
12327TIP3    H236867   2.988   0.161   7.674
12328TIP3   OH236868   3.378   0.391   7.611
12328TIP3    H136869   3.472   0.372   7.616
12328TIP3    H236870   3.338   0.307   7.589
12329TIP3   OH236871   4.667   0.403   7.805
12329TIP3    H136872   4.575   0.424   7.823
12329TIP3    H236873   4.694   0.349   7.879
12330TIP3   OH236874   3.658   0.837   7.116
12330TIP3    H136875   3.620   0.804   7.034
12330TIP3    H236876   3.603   0.911   7.140
12331TIP3   OH236877   3.445   0.755   7.861
12331TIP3    H136878   3.381   0.818   7.893
12331TIP3    H236879   3.487   0.799   7.786
12332TIP3   OH236880   3.210   0.109   7.880
12332TIP3    H136881   3.280   0.169   7.903
12332TIP3    H236882   3.253   0.024   7.870
12333TIP3   OH236883   3.261   0.940   7.944
12333TIP3    H136884   3.235   1.015   7.891
12333TIP3    H236885   3.186   0.924   8.002
12334TIP3   OH236886   2.625   0.652   7.255
12334TIP3    H136887   2.595   0.667   7.165
12334TIP3    H236888   2.648   0.738   7.288
12335TIP3   OH236889   4.061   1.164   7.492
12335TIP3    H136890   3.971   1.164   7.524
12335TIP3    H236891   4.069   1.245   7.442
12336TIP3   OH236892   3.772   1.188   7.146
12336TIP3    H136893   3.826   1.109   7.134
12336TIP3    H236894   3.829   1.259   7.117
12337TIP3   OH236895   3.911   0.956   7.104
12337TIP3    H136896   3.835   0.899   7.107
12337TIP3    H236897   3.960   0.936   7.183
12338TIP3   OH236898   4.314   1.044   7.831
12338TIP3    H136899   4.286   0.972   7.774
12338TIP3    H236900   4.303   1.122   7.776
12339TIP3   OH236901   3.598   0.448   7.108
12339TIP3    H136902   3.513   0.487   7.089
12339TIP3    H236903   3.642   0.442   7.023
12340TIP3   OH236904   3.555   0.265   6.796
12340TIP3    H136905   3.626   0.304   6.848
12340TIP3    H236906   3.597   0.195   6.747
12341TIP3   OH236907   4.472   0.708   7.710
12341TIP3    H136908   4.388   0.752   7.699
12341TIP3    H236909   4.510   0.705   7.622
12342TIP3   OH236910   3.945   0.545   7.059
12342TIP3    H136911   3.889   0.575   7.131
12342TIP3    H236912   4.029   0.525   7.101
12343TIP3   OH236913   4.156   0.553   7.972
12343TIP3    H136914   4.172   0.632   8.024
12343TIP3    H236915   4.067   0.564   7.939
12344TIP3   OH236916   3.188   0.522   7.450
12344TIP3    H136917   3.150   0.457   7.390
12344TIP3    H236918   3.256   0.474   7.498
12345TIP3   OH236919   3.318   0.944   7.601
12345TIP3    H136920   3.289   0.928   7.512
12345TIP3    H236921   3.407   0.909   7.605
12346TIP3   OH236922   3.269   0.551   7.804
12346TIP3    H136923   3.311   0.496   7.738
12346TIP3    H236924   3.337   0.615   7.828
12347TIP3   OH236925   3.808   1.182   7.600
12347TIP3    H136926   3.806   1.246   7.671
12347TIP3    H236927   3.808   1.097   7.644
12348TIP3   OH236928   6.701   5.680   0.112
12348TIP3    H136929   6.640   5.750   0.133
12348TIP3    H236930   6.657   5.630   0.044
12349TIP3   OH236931   3.787   0.393   6.893
12349TIP3    H136932   3.842   0.453   6.944
12349TIP3    H236933   3.823   0.397   6.804
12350TIP3   OH236934   6.569   5.244   0.126
12350TIP3    H136935   6.575   5.321   0.183
12350TIP3    H236936   6.476   5.232   0.111
12351TIP3   OH236937   3.520   1.076   7.150
12351TIP3    H136938   3.604   1.121   7.159
12351TIP3    H236939   3.465   1.138   7.102
12352TIP3   OH236940   6.489   5.863   0.148
12352TIP3    H136941   6.473   5.855   0.054
12352TIP3    H236942   6.403   5.848   0.188
12353TIP3   OH236943   3.060   0.359   7.261
12353TIP3    H136944   2.972   0.389   7.239
12353TIP3    H236945   3.050   0.266   7.279
12354TIP3   OH236946   4.125   1.008   6.520
12354TIP3    H136947   4.114   1.101   6.498
12354TIP3    H236948   4.217   0.990   6.503
12355TIP3   OH236949   6.083   5.433   0.113
12355TIP3    H136950   6.002   5.435   0.062
12355TIP3    H236951   6.094   5.342   0.139
12356TIP3   OH236952   2.660   0.970   7.824
12356TIP3    H136953   2.753   0.993   7.836
12356TIP3    H236954   2.613   1.049   7.849
12357TIP3   OH236955   4.537   1.428   7.895
12357TIP3    H136956   4.544   1.332   7.902
12357TIP3    H236957   4.455   1.449   7.940
12358TIP3   OH236958   6.908   5.830  -0.008
12358TIP3    H136959   6.886   5.917   0.026
12358TIP3    H236960   6.846   5.771   0.035
12359TIP3   OH236961   3.416   1.290   6.984
12359TIP3    H136962   3.375   1.271   6.899
12359TIP3    H236963   3.380   1.375   7.009
12360TIP3   OH236964   2.845   1.150   7.353
12360TIP3    H136965   2.896   1.140   7.433
12360TIP3    H236966   2.798   1.067   7.343
12361TIP3   OH236967   3.616   1.230   6.608
12361TIP3    H136968   3.667   1.156   6.572
12361TIP3    H236969   3.653   1.243   6.695
12362TIP3   OH236970   3.671   1.271   6.877
12362TIP3    H136971   3.586   1.272   6.922
12362TIP3    H236972   3.732   1.236   6.942
12363TIP3   OH236973   7.720   5.137   0.126
12363TIP3    H136974   7.634   5.137   0.167
12363TIP3    H236975   7.704   5.110   0.036
12364TIP3   OH236976   6.314   5.574   0.113
12364TIP3    H136977   6.299   5.639   0.181
12364TIP3    H236978   6.228   5.535   0.097
12365TIP3   OH236979   7.346   4.915   0.066
12365TIP3    H136980   7.417   4.860   0.099
12365TIP3    H236981   7.387   4.999   0.047
12366TIP3   OH236982   3.886   0.358   6.629
12366TIP3    H136983   3.823   0.369   6.558
12366TIP3    H236984   3.951   0.426   6.615
12367TIP3   OH236985   3.385   0.307   7.967
12367TIP3    H136986   3.310   0.327   8.024
12367TIP3    H236987   3.408   0.391   7.927
12368TIP3   OH236988   3.232   0.177   7.523
12368TIP3    H136989   3.147   0.139   7.545
12368TIP3    H236990   3.249   0.146   7.434
12369TIP3   OH236991   3.724   0.251   7.259
12369TIP3    H136992   3.674   0.323   7.219
12369TIP3    H236993   3.778   0.217   7.187
12370TIP3   OH236994   7.218   5.237   0.219
12370TIP3    H136995   7.167   5.173   0.269
12370TIP3    H236996   7.303   5.196   0.207
12371TIP3   OH236997   3.887   0.252   7.482
12371TIP3    H136998   3.826   0.275   7.412
12371TIP3    H236999   3.926   0.170   7.454
12372TIP3   OH237000   6.419   4.950   0.116
12372TIP3    H137001   6.381   4.986   0.195
12372TIP3    H237002   6.379   4.863   0.107
12373TIP3   OH237003   3.881   0.524   7.887
12373TIP3    H137004   3.919   0.456   7.832
12373TIP3    H237005   3.855   0.478   7.967
12374TIP3   OH237006   2.974   0.053   7.535
12374TIP3    H137007   2.882   0.073   7.517
12374TIP3    H237008   2.989  -0.032   7.494
12375TIP3   OH237009   3.252   0.078   7.272
12375TIP3    H137010   3.345   0.064   7.259
12375TIP3    H237011   3.213   0.068   7.185
12376TIP3   OH237012   3.143   0.074   7.023
12376TIP3    H137013   3.071   0.038   6.971
12376TIP3    H237014   3.195   0.124   6.960
12377TIP3   OH237015   4.247   1.762   7.974
12377TIP3    H137016   4.244   1.772   7.879
12377TIP3    H237017   4.326   1.810   8.001
12378TIP3   OH237018   6.397   5.524   0.439
12378TIP3    H137019   6.472   5.525   0.380
12378TIP3    H237020   6.431   5.490   0.522
12379TIP3   OH237021   3.654   0.346   7.648
12379TIP3    H137022   3.726   0.300   7.603
12379TIP3    H237023   3.653   0.308   7.736
12380TIP3   OH237024   3.650   0.236   7.899
12380TIP3    H137025   3.560   0.244   7.933
12380TIP3    H237026   3.705   0.268   7.970
12381TIP3   OH237027   3.359   0.577   7.045
12381TIP3    H137028   3.283   0.524   7.020
12381TIP3    H237029   3.331   0.623   7.124
12382TIP3   OH237030   4.239   0.845   7.656
12382TIP3    H137031   4.276   0.893   7.582
12382TIP3    H237032   4.159   0.806   7.621
12383TIP3   OH237033   7.036   5.539  -0.012
12383TIP3    H137034   7.009   5.461   0.036
12383TIP3    H237035   7.038   5.609   0.054
12384TIP3   OH237036   3.883   0.178   7.050
12384TIP3    H137037   3.977   0.189   7.060
12384TIP3    H237038   3.858   0.245   6.985
12385TIP3   OH237039   3.043   0.623   7.660
12385TIP3    H137040   3.082   0.599   7.576
12385TIP3    H237041   3.109   0.598   7.725
12386TIP3   OH237042   3.509   0.748   6.896
12386TIP3    H137043   3.457   0.829   6.893
12386TIP3    H237044   3.455   0.687   6.946
12387TIP3   OH237045   6.306   5.027   0.347
12387TIP3    H137046   6.308   5.037   0.443
12387TIP3    H237047   6.226   4.977   0.330
12388TIP3   OH237048   6.958   5.349   0.170
12388TIP3    H137049   6.898   5.274   0.175
12388TIP3    H237050   7.045   5.311   0.186
12389TIP3   OH237051   3.913   1.207   7.925
12389TIP3    H137052   3.818   1.198   7.935
12389TIP3    H237053   3.940   1.263   7.998
12390TIP3   OH237054   4.277   0.263   6.851
12390TIP3    H137055   4.257   0.196   6.786
12390TIP3    H237056   4.270   0.346   6.804
12391TIP3   OH237057   4.562   1.152   7.912
12391TIP3    H137058   4.472   1.122   7.928
12391TIP3    H237059   4.585   1.113   7.828
12392TIP3   OH237060   4.029   1.076   6.782
12392TIP3    H137061   4.004   1.006   6.842
12392TIP3    H237062   4.054   1.031   6.701
12393TIP3   OH237063   4.003   0.718   7.554
12393TIP3    H137064   3.912   0.694   7.571
12393TIP3    H237065   4.043   0.640   7.517
12394TIP3   OH237066   3.173   0.947   7.364
12394TIP3    H137067   3.170   1.025   7.308
12394TIP3    H237068   3.081   0.929   7.386
12395TIP3   OH237069   2.728   0.214   7.078
12395TIP3    H137070   2.775   0.295   7.096
12395TIP3    H237071   2.649   0.219   7.132
12396TIP3   OH237072   3.255   0.707   7.256
12396TIP3    H137073   3.243   0.794   7.294
12396TIP3    H237074   3.235   0.647   7.328
12397TIP3   OH237075   3.457   1.265   7.790
12397TIP3    H137076   3.489   1.344   7.746
12397TIP3    H237077   3.532   1.233   7.840
12398TIP3   OH237078   3.086   1.171   7.217
12398TIP3    H137079   2.997   1.177   7.253
12398TIP3    H237080   3.120   1.260   7.222
12399TIP3   OH237081   3.825   0.938   7.726
12399TIP3    H137082   3.809   0.934   7.821
12399TIP3    H237083   3.895   0.875   7.712
12400TIP3   OH237084   3.801   0.811   6.655
12400TIP3    H137085   3.852   0.779   6.730
12400TIP3    H237086   3.716   0.769   6.665
12401TIP3   OH237087   4.074   1.420   7.818
12401TIP3    H137088   4.001   1.361   7.837
12401TIP3    H237089   4.040   1.478   7.750
12402TIP3   OH237090   4.109   1.278   6.470
12402TIP3    H137091   4.124   1.335   6.395
12402TIP3    H237092   4.039   1.321   6.519
12403TIP3   OH237093   3.979   0.711   6.839
12403TIP3    H137094   3.960   0.664   6.921
12403TIP3    H237095   4.073   0.726   6.842
12404TIP3   OH237096   2.890   1.115   7.895
12404TIP3    H137097   2.982   1.089   7.897
12404TIP3    H237098   2.867   1.128   7.987
12405TIP3   OH237099   3.137   0.784   6.681
12405TIP3    H137100   3.150   0.694   6.651
12405TIP3    H237101   3.130   0.778   6.776
12406TIP3   OH237102   3.093   0.792   6.958
12406TIP3    H137103   3.156   0.765   7.025
12406TIP3    H237104   3.093   0.887   6.961
12407TIP3   OH237105   2.821   0.467   7.161
12407TIP3    H137106   2.757   0.516   7.213
12407TIP3    H237107   2.845   0.528   7.090
12408TIP3   OH237108   3.358   0.972   6.884
12408TIP3    H137109   3.275   0.999   6.923
12408TIP3    H237110   3.385   1.047   6.831
12409TIP3   OH237111   3.527   0.057   7.287
12409TIP3    H137112   3.594   0.123   7.272
12409TIP3    H237113   3.541   0.030   7.378
12410TIP3   OH237114   7.080   4.974   0.092
12410TIP3    H137115   7.059   4.984   0.185
12410TIP3    H237116   7.168   4.936   0.092
12411TIP3   OH237117   3.111   1.065   6.966
12411TIP3    H137118   3.093   1.137   6.906
12411TIP3    H237119   3.103   1.104   7.053
12412TIP3   OH237120   4.094   0.466   7.466
12412TIP3    H137121   4.024   0.404   7.489
12412TIP3    H237122   4.169   0.436   7.518
12413TIP3   OH237123   2.852   0.656   6.953
12413TIP3    H137124   2.925   0.717   6.962
12413TIP3    H237125   2.881   0.594   6.886
12414TIP3   OH237126   9.284   9.181   7.025
12414TIP3    H137127   9.291   9.273   7.051
12414TIP3    H237128   9.208   9.148   7.073
12415TIP3   OH237129   4.089   1.421   7.394
12415TIP3    H137130   4.048   1.476   7.326
12415TIP3    H237131   4.183   1.436   7.383
12416TIP3   OH237132   2.666   0.931   7.326
12416TIP3    H137133   2.622   0.971   7.400
12416TIP3    H237134   2.627   0.972   7.249
12417TIP3   OH237135   6.145   6.067   0.272
12417TIP3    H137136   6.207   6.104   0.335
12417TIP3    H237137   6.070   6.041   0.326
12418TIP3   OH237138   6.614   6.054   0.300
12418TIP3    H137139   6.695   6.003   0.309
12418TIP3    H237140   6.566   6.012   0.230
12419TIP3   OH237141   3.299   0.980   6.568
12419TIP3    H137142   3.251   0.911   6.614
12419TIP3    H237143   3.373   0.935   6.528
12420TIP3   OH237144   7.270   5.990   0.128
12420TIP3    H137145   7.286   5.906   0.171
12420TIP3    H237146   7.344   6.045   0.154
12421TIP3   OH237147   3.742   1.019   6.487
12421TIP3    H137148   3.778   0.955   6.548
12421TIP3    H237149   3.799   1.013   6.410
12422TIP3   OH237150   6.210   5.354   0.625
12422TIP3    H137151   6.305   5.347   0.629
12422TIP3    H237152   6.193   5.406   0.546
12423TIP3   OH237153   2.971   0.474   6.788
12423TIP3    H137154   3.022   0.444   6.863
12423TIP3    H237155   3.035   0.491   6.720
12424TIP3   OH237156   6.934   5.618   0.244
12424TIP3    H137157   6.851   5.635   0.200
12424TIP3    H237158   6.945   5.523   0.239
12425TIP3   OH237159   3.547   0.696   6.631
12425TIP3    H137160   3.525   0.707   6.723
12425TIP3    H237161   3.528   0.604   6.612
12426TIP3   OH237162   4.095   0.995   7.994
12426TIP3    H137163   4.169   1.027   7.943
12426TIP3    H237164   4.022   1.051   7.968
12427TIP3   OH237165   6.333   5.031   0.617
12427TIP3    H137166   6.415   4.985   0.599
12427TIP3    H237167   6.351   5.083   0.696
12428TIP3   OH237168   3.143   0.410   6.998
12428TIP3    H137169   3.123   0.385   7.088
12428TIP3    H237170   3.190   0.335   6.963
12429TIP3   OH237171   6.799   5.118   0.188
12429TIP3    H137172   6.712   5.157   0.175
12429TIP3    H237173   6.832   5.104   0.099
12430TIP3   OH237174   3.287   0.224   6.848
12430TIP3    H137175   3.254   0.237   6.759
12430TIP3    H237176   3.381   0.240   6.841
12431TIP3   OH237177   7.334   5.491   0.324
12431TIP3    H137178   7.360   5.451   0.241
12431TIP3    H237179   7.332   5.419   0.386
12432TIP3   OH237180   4.068   0.532   6.524
12432TIP3    H137181   4.045   0.493   6.440
12432TIP3    H237182   4.048   0.625   6.513
12433TIP3   OH237183   6.775   4.925   0.373
12433TIP3    H137184   6.834   4.853   0.349
12433TIP3    H237185   6.778   4.984   0.298
12434TIP3   OH237186   3.594   0.540   7.930
12434TIP3    H137187   3.685   0.555   7.903
12434TIP3    H237188   3.549   0.621   7.909
12435TIP3   OH237189   7.477   5.099   0.275
12435TIP3    H137190   7.422   5.057   0.342
12435TIP3    H237191   7.524   5.167   0.323
12436TIP3   OH237192   7.487   5.404   0.105
12436TIP3    H137193   7.439   5.475   0.063
12436TIP3    H237194   7.579   5.419   0.081
12437TIP3   OH237195   6.586   4.927   0.580
12437TIP3    H137196   6.560   4.850   0.630
12437TIP3    H237197   6.627   4.892   0.501
12438TIP3   OH237198   7.094   4.897   0.563
12438TIP3    H137199   7.079   4.904   0.657
12438TIP3    H237200   7.164   4.833   0.554
12439TIP3   OH237201   3.109   1.276   6.786
12439TIP3    H137202   3.199   1.254   6.759
12439TIP3    H237203   3.071   1.318   6.709
12440TIP3   OH237204   2.579   0.659   6.963
12440TIP3    H137205   2.675   0.668   6.963
12440TIP3    H237206   2.564   0.571   6.926
12441TIP3   OH237207   2.456   1.273   7.427
12441TIP3    H137208   2.393   1.217   7.381
12441TIP3    H237209   2.504   1.213   7.484
12442TIP3   OH237210   2.609   1.086   7.566
12442TIP3    H137211   2.602   1.017   7.632
12442TIP3    H237212   2.671   1.149   7.604
12443TIP3   OH237213   4.359   1.471   7.389
12443TIP3    H137214   4.379   1.500   7.478
12443TIP3    H237215   4.424   1.514   7.334
12444TIP3   OH237216   4.382   1.509   7.664
12444TIP3    H137217   4.337   1.425   7.663
12444TIP3    H237218   4.449   1.499   7.731
12445TIP3   OH237219   7.707   5.844   0.183
12445TIP3    H137220   7.640   5.854   0.251
12445TIP3    H237221   7.755   5.927   0.185
12446TIP3   OH237222   4.258   0.726   6.857
12446TIP3    H137223   4.315   0.797   6.828
12446TIP3    H237224   4.299   0.694   6.938
12447TIP3   OH237225   4.377   0.599   7.073
12447TIP3    H137226   4.308   0.566   7.131
12447TIP3    H237227   4.445   0.631   7.132
12448TIP3   OH237228   4.415   0.983   7.493
12448TIP3    H137229   4.472   0.915   7.457
12448TIP3    H237230   4.422   1.056   7.431
12449TIP3   OH237231   4.247   1.264   7.676
12449TIP3    H137232   4.182   1.310   7.729
12449TIP3    H237233   4.197   1.221   7.607
12450TIP3   OH237234   4.263   0.496   6.709
12450TIP3    H137235   4.190   0.508   6.649
12450TIP3    H237236   4.262   0.574   6.764
12451TIP3   OH237237   4.109   0.167   6.637
12451TIP3    H137238   4.044   0.235   6.656
12451TIP3    H237239   4.064   0.107   6.577
12452TIP3   OH237240   4.170   0.465   7.201
12452TIP3    H137241   4.164   0.371   7.181
12452TIP3    H237242   4.146   0.471   7.294
12453TIP3   OH237243   2.801   0.573   7.912
12453TIP3    H137244   2.804   0.527   7.829
12453TIP3    H237245   2.892   0.581   7.939
12454TIP3   OH237246   4.475   0.844   8.010
12454TIP3    H137247   4.549   0.784   8.006
12454TIP3    H237248   4.463   0.875   7.921
12455TIP3   OH237249   7.947   5.283   0.035
12455TIP3    H137250   7.880   5.223   0.069
12455TIP3    H237251   8.020   5.275   0.097
12456TIP3   OH237252   4.157   0.206   7.090
12456TIP3    H137253   4.206   0.130   7.122
12456TIP3    H237254   4.199   0.228   7.007
12457TIP3   OH237255   4.316   0.381   7.601
12457TIP3    H137256   4.400   0.397   7.558
12457TIP3    H237257   4.335   0.390   7.694
12458TIP3   OH237258   4.398   0.486   7.857
12458TIP3    H137259   4.308   0.505   7.884
12458TIP3    H237260   4.424   0.563   7.806
12459TIP3   OH237261   2.869   0.153   7.976
12459TIP3    H137262   2.909   0.176   7.892
12459TIP3    H237263   2.825   0.234   8.005
12460TIP3   OH237264   3.909   1.392   7.039
12460TIP3    H137265   3.967   1.382   6.964
12460TIP3    H237266   3.950   1.459   7.093
12461TIP3   OH237267   6.274   5.770   0.314
12461TIP3    H137268   6.227   5.831   0.370
12461TIP3    H237269   6.349   5.742   0.366
12462TIP3   OH237270   3.206   1.204   7.882
12462TIP3    H137271   3.162   1.286   7.859
12462TIP3    H237272   3.296   1.216   7.851
12463TIP3   OH237273   6.866   6.083   0.096
12463TIP3    H137274   6.917   6.060   0.173
12463TIP3    H237275   6.926   6.137   0.043
12464TIP3   OH237276   3.795   1.609   7.973
12464TIP3    H137277   3.837   1.550   7.910
12464TIP3    H237278   3.867   1.659   8.011
12465TIP3   OH237279   6.161   6.067  -0.010
12465TIP3    H137280   6.090   6.122  -0.042
12465TIP3    H237281   6.147   6.063   0.085
12466TIP3   OH237282   3.117   1.457   7.839
12466TIP3    H137283   3.040   1.458   7.895
12466TIP3    H237284   3.086   1.488   7.754
12467TIP3   OH237285   3.530   1.487   7.646
12467TIP3    H137286   3.461   1.496   7.581
12467TIP3    H237287   3.541   1.575   7.682
12468TIP3   OH237288   3.786   1.431   7.734
12468TIP3    H137289   3.699   1.443   7.697
12468TIP3    H237290   3.844   1.481   7.676
12469TIP3   OH237291   3.983   1.566   7.602
12469TIP3    H137292   3.997   1.657   7.574
12469TIP3    H237293   4.015   1.514   7.529
12470TIP3   OH237294   2.789   1.266   7.693
12470TIP3    H137295   2.814   1.239   7.782
12470TIP3    H237296   2.861   1.234   7.638
12471TIP3   OH237297   3.003   1.140   7.577
12471TIP3    H137298   3.012   1.060   7.628
12471TIP3    H237299   3.090   1.179   7.578
12472TIP3   OH237300   3.275   1.221   7.584
12472TIP3    H137301   3.289   1.128   7.570
12472TIP3    H237302   3.337   1.245   7.653
12473TIP3   OH237303   2.556   1.057   7.106
12473TIP3    H137304   2.472   1.025   7.074
12473TIP3    H237305   2.564   1.144   7.067
12474TIP3   OH237306   3.364   1.200   6.715
12474TIP3    H137307   3.447   1.228   6.676
12474TIP3    H237308   3.333   1.131   6.657
12475TIP3   OH237309   4.064   1.345   6.814
12475TIP3    H137310   4.057   1.249   6.807
12475TIP3    H237311   4.022   1.377   6.734
12476TIP3   OH237312   2.674   1.040   6.765
12476TIP3    H137313   2.679   1.039   6.861
12476TIP3    H237314   2.749   0.989   6.736
12477TIP3   OH237315   4.284   1.490   7.987
12477TIP3    H137316   4.213   1.454   7.933
12477TIP3    H237317   4.271   1.584   7.985
12478TIP3   OH237318   5.555   0.881   6.735
12478TIP3    H137319   5.524   0.969   6.756
12478TIP3    H237320   5.481   0.839   6.693
12479TIP3   OH237321   5.557   0.875   7.161
12479TIP3    H137322   5.595   0.859   7.247
12479TIP3    H237323   5.521   0.791   7.134
12480TIP3   OH237324   4.865   0.750   7.498
12480TIP3    H137325   4.881   0.692   7.573
12480TIP3    H237326   4.953   0.774   7.468
12481TIP3   OH237327   5.814   1.185   6.838
12481TIP3    H137328   5.799   1.126   6.911
12481TIP3    H237329   5.846   1.266   6.878
12482TIP3   OH237330   4.850   1.140   7.191
12482TIP3    H137331   4.834   1.047   7.206
12482TIP3    H237332   4.944   1.148   7.178
12483TIP3   OH237333   4.498   0.370   6.974
12483TIP3    H137334   4.461   0.449   7.013
12483TIP3    H237335   4.422   0.321   6.942
12484TIP3   OH237336   4.612   0.660   7.212
12484TIP3    H137337   4.658   0.580   7.236
12484TIP3    H237338   4.682   0.723   7.193
12485TIP3   OH237339   5.516   1.579   6.882
12485TIP3    H137340   5.520   1.533   6.798
12485TIP3    H237341   5.541   1.513   6.946
12486TIP3   OH237342   5.366   1.090   7.158
12486TIP3    H137343   5.409   1.008   7.136
12486TIP3    H237344   5.437   1.148   7.185
12487TIP3   OH237345   5.766   0.575   7.259
12487TIP3    H137346   5.799   0.491   7.292
12487TIP3    H237347   5.845   0.621   7.229
12488TIP3   OH237348   4.737   0.426   7.292
12488TIP3    H137349   4.826   0.414   7.326
12488TIP3    H237350   4.729   0.359   7.224
12489TIP3   OH237351   5.180   0.683   7.100
12489TIP3    H137352   5.271   0.660   7.117
12489TIP3    H237353   5.165   0.654   7.010
12490TIP3   OH237354   6.281   0.576   7.481
12490TIP3    H137355   6.258   0.654   7.431
12490TIP3    H237356   6.377   0.580   7.490
12491TIP3   OH237357   5.341   1.074   6.648
12491TIP3    H137358   5.402   1.079   6.574
12491TIP3    H237359   5.317   1.164   6.666
12492TIP3   OH237360   5.213   1.020   7.378
12492TIP3    H137361   5.155   1.088   7.412
12492TIP3    H237362   5.255   1.060   7.301
12493TIP3   OH237363   4.998   0.371   7.349
12493TIP3    H137364   5.068   0.416   7.395
12493TIP3    H237365   5.028   0.367   7.258
12494TIP3   OH237366   5.046   1.212   7.486
12494TIP3    H137367   5.030   1.301   7.455
12494TIP3    H237368   4.968   1.189   7.536
12495TIP3   OH237369   4.433   0.915   6.748
12495TIP3    H137370   4.405   0.931   6.658
12495TIP3    H237371   4.451   1.002   6.783
12496TIP3   OH237372   5.868   1.433   6.972
12496TIP3    H137373   5.776   1.438   7.000
12496TIP3    H237374   5.883   1.516   6.926
12497TIP3   OH237375   5.555   1.446   6.644
12497TIP3    H137376   5.594   1.359   6.632
12497TIP3    H237377   5.619   1.507   6.608
12498TIP3   OH237378   5.669   1.203   6.603
12498TIP3    H137379   5.710   1.154   6.532
12498TIP3    H237380   5.726   1.189   6.678
12499TIP3   OH237381   6.090   1.306   7.327
12499TIP3    H137382   6.076   1.235   7.265
12499TIP3    H237383   6.079   1.386   7.276
12500TIP3   OH237384   5.374   0.747   6.573
12500TIP3    H137385   5.288   0.782   6.550
12500TIP3    H237386   5.424   0.751   6.491
12501TIP3   OH237387   5.349   0.578   6.274
12501TIP3    H137388   5.423   0.623   6.315
12501TIP3    H237389   5.381   0.490   6.256
12502TIP3   OH237390   6.278   0.996   7.187
12502TIP3    H137391   6.191   1.036   7.181
12502TIP3    H237392   6.316   1.008   7.100
12503TIP3   OH237393   5.753   0.822   6.550
12503TIP3    H137394   5.696   0.840   6.625
12503TIP3    H237395   5.832   0.784   6.589
12504TIP3   OH237396   5.944   0.851   7.473
12504TIP3    H137397   5.946   0.924   7.534
12504TIP3    H237398   5.853   0.844   7.446
12505TIP3   OH237399   5.110   1.200   7.096
12505TIP3    H137400   5.081   1.188   7.005
12505TIP3    H237401   5.197   1.161   7.098
12506TIP3   OH237402   5.102   0.772   7.346
12506TIP3    H137403   5.131   0.741   7.260
12506TIP3    H237404   5.146   0.856   7.358
12507TIP3   OH237405   5.615   1.423   7.091
12507TIP3    H137406   5.597   1.495   7.152
12507TIP3    H237407   5.609   1.344   7.145
12508TIP3   OH237408   5.241   1.316   7.655
12508TIP3    H137409   5.177   1.372   7.701
12508TIP3    H237410   5.188   1.261   7.598
12509TIP3   OH237411   5.559   0.735   6.371
12509TIP3    H137412   5.633   0.757   6.428
12509TIP3    H237413   5.594   0.738   6.283
12510TIP3   OH237414   5.001   0.893   7.750
12510TIP3    H137415   4.994   0.980   7.790
12510TIP3    H237416   4.913   0.857   7.753
12511TIP3   OH237417   5.298   1.345   6.652
12511TIP3    H137418   5.387   1.382   6.657
12511TIP3    H237419   5.251   1.404   6.594
12512TIP3   OH237420   5.031   1.477   7.737
12512TIP3    H137421   5.004   1.478   7.646
12512TIP3    H237422   4.952   1.455   7.786
12513TIP3   OH237423   5.907   1.271   5.991
12513TIP3    H137424   5.905   1.364   5.969
12513TIP3    H237425   5.998   1.245   5.977
12514TIP3   OH237426   4.626   1.027   7.680
12514TIP3    H137427   4.554   1.006   7.621
12514TIP3    H237428   4.664   0.942   7.703
12515TIP3   OH237429   4.467   1.215   7.341
12515TIP3    H137430   4.557   1.240   7.363
12515TIP3    H237431   4.415   1.291   7.367
12516TIP3   OH237432   6.345   1.657   7.434
12516TIP3    H137433   6.335   1.562   7.442
12516TIP3    H237434   6.257   1.691   7.451
12517TIP3   OH237435   5.430   1.462   7.521
12517TIP3    H137436   5.427   1.553   7.550
12517TIP3    H237437   5.365   1.417   7.576
12518TIP3   OH237438   5.213   1.551   6.470
12518TIP3    H137439   5.174   1.534   6.384
12518TIP3    H237440   5.176   1.635   6.497
12519TIP3   OH237441   4.648   1.405   6.849
12519TIP3    H137442   4.696   1.396   6.931
12519TIP3    H237443   4.600   1.322   6.840
12520TIP3   OH237444   5.416   1.487   6.093
12520TIP3    H137445   5.467   1.414   6.059
12520TIP3    H237446   5.452   1.502   6.181
12521TIP3   OH237447   5.468   1.531   6.362
12521TIP3    H137448   5.385   1.529   6.410
12521TIP3    H237449   5.534   1.505   6.426
12522TIP3   OH237450   6.225   0.752   7.697
12522TIP3    H137451   6.182   0.806   7.631
12522TIP3    H237452   6.257   0.676   7.648
12523TIP3   OH237453   4.822   1.217   7.651
12523TIP3    H137454   4.874   1.208   7.732
12523TIP3    H237455   4.754   1.151   7.659
12524TIP3   OH237456   5.901   0.583   7.588
12524TIP3    H137457   5.961   0.513   7.564
12524TIP3    H237458   5.939   0.662   7.550
12525TIP3   OH237459   5.651   0.718   6.117
12525TIP3    H137460   5.593   0.713   6.040
12525TIP3    H237461   5.735   0.746   6.082
12526TIP3   OH237462   5.162   0.548   7.496
12526TIP3    H137463   5.096   0.549   7.565
12526TIP3    H237464   5.146   0.628   7.446
12527TIP3   OH237465   4.889   0.569   6.868
12527TIP3    H137466   4.883   0.524   6.952
12527TIP3    H237467   4.983   0.582   6.854
12528TIP3   OH237468   5.574   0.582   6.664
12528TIP3    H137469   5.500   0.640   6.646
12528TIP3    H237470   5.597   0.543   6.580
12529TIP3   OH237471   5.702   0.811   7.795
12529TIP3    H137472   5.682   0.756   7.871
12529TIP3    H237473   5.797   0.824   7.799
12530TIP3   OH237474   5.677   0.657   6.922
12530TIP3    H137475   5.641   0.684   6.837
12530TIP3    H237476   5.722   0.575   6.904
12531TIP3   OH237477   4.960   0.562   7.692
12531TIP3    H137478   5.028   0.565   7.761
12531TIP3    H237479   4.891   0.507   7.729
12532TIP3   OH237480   5.672   0.787   7.401
12532TIP3    H137481   5.698   0.715   7.344
12532TIP3    H237482   5.641   0.744   7.481
12533TIP3   OH237483   4.727   0.250   7.071
12533TIP3    H137484   4.647   0.290   7.038
12533TIP3    H237485   4.720   0.158   7.045
12534TIP3   OH237486   5.078   0.282   6.799
12534TIP3    H137487   5.172   0.271   6.811
12534TIP3    H237488   5.070   0.338   6.722
12535TIP3   OH237489   4.852   0.383   6.559
12535TIP3    H137490   4.825   0.312   6.617
12535TIP3    H237491   4.919   0.344   6.502
12536TIP3   OH237492   6.043   2.011   7.470
12536TIP3    H137493   6.038   2.023   7.376
12536TIP3    H237494   6.125   2.055   7.495
12537TIP3   OH237495   4.978   1.140   7.882
12537TIP3    H137496   5.062   1.150   7.928
12537TIP3    H237497   4.913   1.136   7.952
12538TIP3   OH237498   5.439   0.613   7.175
12538TIP3    H137499   5.477   0.536   7.132
12538TIP3    H237500   5.439   0.590   7.268
12539TIP3   OH237501   5.435   0.518   7.436
12539TIP3    H137502   5.347   0.530   7.472
12539TIP3    H237503   5.494   0.549   7.504
12540TIP3   OH237504   5.133   0.908   6.582
12540TIP3    H137505   5.101   0.859   6.657
12540TIP3    H237506   5.198   0.968   6.618
12541TIP3   OH237507   6.037   1.116   7.136
12541TIP3    H137508   6.068   1.173   7.066
12541TIP3    H237509   5.952   1.084   7.106
12542TIP3   OH237510   5.559   1.195   7.533
12542TIP3    H137511   5.609   1.178   7.612
12542TIP3    H237512   5.516   1.279   7.550
12543TIP3   OH237513   5.609   0.434   6.440
12543TIP3    H137514   5.692   0.406   6.480
12543TIP3    H237515   5.629   0.442   6.347
12544TIP3   OH237516   4.836   0.838   7.230
12544TIP3    H137517   4.923   0.815   7.199
12544TIP3    H237518   4.837   0.817   7.323
12545TIP3   OH237519   5.281   1.001   6.361
12545TIP3    H137520   5.252   1.092   6.364
12545TIP3    H237521   5.226   0.956   6.425
12546TIP3   OH237522   4.730   0.796   7.795
12546TIP3    H137523   4.749   0.767   7.885
12546TIP3    H237524   4.657   0.741   7.768
12547TIP3   OH237525   5.463   0.952   7.841
12547TIP3    H137526   5.392   0.896   7.809
12547TIP3    H237527   5.543   0.914   7.804
12548TIP3   OH237528   5.694   1.482   7.427
12548TIP3    H137529   5.601   1.463   7.438
12548TIP3    H237530   5.722   1.519   7.511
12549TIP3   OH237531   6.168   0.481   6.456
12549TIP3    H137532   6.175   0.402   6.402
12549TIP3    H237533   6.123   0.544   6.401
12550TIP3   OH237534   6.336   1.366   7.429
12550TIP3    H137535   6.242   1.363   7.413
12550TIP3    H237536   6.376   1.352   7.343
12551TIP3   OH237537   5.818   1.322   6.251
12551TIP3    H137538   5.797   1.241   6.297
12551TIP3    H237539   5.846   1.295   6.164
12552TIP3   OH237540   5.791   1.001   7.051
12552TIP3    H137541   5.706   0.965   7.075
12552TIP3    H237542   5.837   0.929   7.008
12553TIP3   OH237543   4.972   1.200   6.855
12553TIP3    H137544   4.969   1.274   6.795
12553TIP3    H237545   4.882   1.167   6.858
12554TIP3   OH237546   4.433   0.505   6.493
12554TIP3    H137547   4.522   0.515   6.527
12554TIP3    H237548   4.378   0.498   6.572
12555TIP3   OH237549   5.259   1.534   7.308
12555TIP3    H137550   5.318   1.590   7.258
12555TIP3    H237551   5.316   1.488   7.370
12556TIP3   OH237552   4.879   1.419   6.699
12556TIP3    H137553   4.794   1.425   6.742
12556TIP3    H237554   4.914   1.508   6.701
12557TIP3   OH237555   5.602   1.200   7.259
12557TIP3    H137556   5.591   1.195   7.354
12557TIP3    H237557   5.678   1.145   7.241
12558TIP3   OH237558   5.599   1.071   6.160
12558TIP3    H137559   5.643   1.059   6.244
12558TIP3    H237560   5.512   1.032   6.173
12559TIP3   OH237561   5.850   1.692   7.328
12559TIP3    H137562   5.785   1.623   7.341
12559TIP3    H237563   5.821   1.737   7.249
12560TIP3   OH237564   5.918   1.544   5.960
12560TIP3    H137565   5.963   1.617   5.917
12560TIP3    H237566   5.840   1.584   5.998
12561TIP3   OH237567   5.765   1.044   6.386
12561TIP3    H137568   5.750   0.966   6.439
12561TIP3    H237569   5.858   1.044   6.366
12562TIP3   OH237570   4.678   1.397   7.472
12562TIP3    H137571   4.729   1.331   7.519
12562TIP3    H237572   4.696   1.479   7.519
12563TIP3   OH237573   4.942   1.053   6.173
12563TIP3    H137574   4.950   0.963   6.142
12563TIP3    H237575   4.935   1.045   6.268
12564TIP3   OH237576   4.906   1.033   6.447
12564TIP3    H137577   4.983   1.004   6.496
12564TIP3    H237578   4.905   1.128   6.457
12565TIP3   OH237579   4.652   0.752   6.683
12565TIP3    H137580   4.581   0.798   6.728
12565TIP3    H237581   4.668   0.803   6.604
12566TIP3   OH237582   5.164   1.243   6.373
12566TIP3    H137583   5.079   1.264   6.410
12566TIP3    H237584   5.185   1.319   6.318
12567TIP3   OH237585   5.350   0.232   6.810
12567TIP3    H137586   5.439   0.264   6.797
12567TIP3    H237587   5.333   0.246   6.903
12568TIP3   OH237588   5.627   0.617   7.614
12568TIP3    H137589   5.633   0.682   7.683
12568TIP3    H237590   5.715   0.581   7.607
12569TIP3   OH237591   4.909   1.309   6.451
12569TIP3    H137592   4.887   1.379   6.389
12569TIP3    H237593   4.897   1.349   6.537
12570TIP3   OH237594   5.919   0.773   6.957
12570TIP3    H137595   5.833   0.731   6.954
12570TIP3    H237596   5.956   0.747   7.042
12571TIP3   OH237597   4.661   0.902   6.444
12571TIP3    H137598   4.736   0.961   6.446
12571TIP3    H237599   4.682   0.839   6.374
12572TIP3   OH237600   4.467   0.205   6.583
12572TIP3    H137601   4.506   0.279   6.630
12572TIP3    H237602   4.459   0.136   6.649
12573TIP3   OH237603   5.935   1.696   6.887
12573TIP3    H137604   5.881   1.737   6.820
12573TIP3    H237605   6.023   1.728   6.870
12574TIP3   OH237606   4.471   1.184   6.824
12574TIP3    H137607   4.432   1.222   6.903
12574TIP3    H237608   4.427   1.228   6.752
12575TIP3   OH237609   4.672   1.707   7.900
12575TIP3    H137610   4.753   1.702   7.951
12575TIP3    H237611   4.643   1.616   7.892
12576TIP3   OH237612   5.141   1.645   7.926
12576TIP3    H137613   5.229   1.610   7.943
12576TIP3    H237614   5.106   1.588   7.857
12577TIP3   OH237615   5.103   1.243   6.055
12577TIP3    H137616   5.055   1.175   6.103
12577TIP3    H237617   5.178   1.197   6.017
12578TIP3   OH237618   5.750   1.580   7.675
12578TIP3    H137619   5.753   1.509   7.739
12578TIP3    H237620   5.827   1.634   7.695
12579TIP3   OH237621   5.545   1.275   5.980
12579TIP3    H137622   5.578   1.210   6.042
12579TIP3    H237623   5.604   1.268   5.904
12580TIP3   OH237624   8.046   5.733   0.077
12580TIP3    H137625   8.073   5.642   0.071
12580TIP3    H237626   7.964   5.738   0.028
12581TIP3   OH237627   4.738   0.711   6.257
12581TIP3    H137628   4.763   0.623   6.284
12581TIP3    H237629   4.812   0.744   6.207
12582TIP3   OH237630   5.399   1.222   7.859
12582TIP3    H137631   5.353   1.241   7.777
12582TIP3    H237632   5.434   1.134   7.848
12583TIP3   OH237633   5.313   0.984   6.094
12583TIP3    H137634   5.296   0.988   6.189
12583TIP3    H237635   5.303   0.892   6.072
12584TIP3   OH237636   5.865   1.254   7.475
12584TIP3    H137637   5.943   1.280   7.427
12584TIP3    H237638   5.801   1.322   7.454
12585TIP3   OH237639   8.179   5.492   0.051
12585TIP3    H137640   8.254   5.452   0.006
12585TIP3    H237641   8.204   5.494   0.143
12586TIP3   OH237642   4.901   0.647   6.573
12586TIP3    H137643   4.913   0.555   6.549
12586TIP3    H237644   4.959   0.695   6.513
12587TIP3   OH237645   5.259   0.793   7.734
12587TIP3    H137646   5.172   0.832   7.729
12587TIP3    H237647   5.300   0.811   7.650
12588TIP3   OH237648   5.084   0.575   6.346
12588TIP3    H137649   5.047   0.560   6.259
12588TIP3    H237650   5.178   0.586   6.330
12589TIP3   OH237651   5.759   1.129   7.832
12589TIP3    H137652   5.823   1.087   7.775
12589TIP3    H237653   5.755   1.072   7.909
12590TIP3   OH237654   5.872   0.780   5.971
12590TIP3    H137655   5.846   0.736   5.891
12590TIP3    H237656   5.848   0.872   5.957
12591TIP3   OH237657   5.192   0.558   7.854
12591TIP3    H137658   5.259   0.494   7.830
12591TIP3    H237659   5.223   0.641   7.816
12592TIP3   OH237660   5.398   0.867   7.512
12592TIP3    H137661   5.484   0.883   7.473
12592TIP3    H237662   5.339   0.926   7.466
12593TIP3   OH237663   5.970   0.831   7.884
12593TIP3    H137664   6.024   0.754   7.865
12593TIP3    H237665   6.032   0.903   7.891
12594TIP3   OH237666   5.990   1.077   7.639
12594TIP3    H137667   5.936   1.141   7.592
12594TIP3    H237668   6.078   1.089   7.604
12595TIP3   OH237669   8.456   5.300   0.106
12595TIP3    H137670   8.381   5.273   0.158
12595TIP3    H237671   8.450   5.248   0.026
12596TIP3   OH237672   8.932   5.268   0.006
12596TIP3    H137673   8.885   5.294   0.085
12596TIP3    H237674   8.964   5.180   0.025
12597TIP3   OH237675   4.902   1.521   6.269
12597TIP3    H137676   4.994   1.507   6.244
12597TIP3    H237677   4.865   1.567   6.194
12598TIP3   OH237678   4.386   0.928   6.464
12598TIP3    H137679   4.481   0.935   6.458
12598TIP3    H237680   4.365   0.848   6.416
12599TIP3   OH237681   4.271   1.493   6.913
12599TIP3    H137682   4.206   1.440   6.867
12599TIP3    H237683   4.316   1.432   6.970
12600TIP3   OH237684   4.419   1.322   7.073
12600TIP3    H137685   4.410   1.253   7.139
12600TIP3    H237686   4.475   1.387   7.115
12601TIP3   OH237687   6.161   1.776   7.145
12601TIP3    H137688   6.133   1.686   7.163
12601TIP3    H237689   6.232   1.766   7.081
12602TIP3   OH237690   6.217   1.465   7.751
12602TIP3    H137691   6.146   1.477   7.813
12602TIP3    H237692   6.265   1.547   7.753
12603TIP3   OH237693   6.033   1.026   6.351
12603TIP3    H137694   6.100   1.086   6.318
12603TIP3    H237695   6.075   0.980   6.424
12604TIP3   OH237696   6.150   0.890   6.558
12604TIP3    H137697   6.091   0.841   6.615
12604TIP3    H237698   6.213   0.931   6.617
12605TIP3   OH237699   6.217   1.273   6.985
12605TIP3    H137700   6.264   1.200   6.945
12605TIP3    H237701   6.233   1.347   6.927
12606TIP3   OH237702   6.030   1.527   7.183
12606TIP3    H137703   5.965   1.583   7.225
12606TIP3    H237704   5.988   1.496   7.103
12607TIP3   OH237705   6.083   0.877   6.122
12607TIP3    H137706   6.007   0.824   6.099
12607TIP3    H237707   6.059   0.920   6.204
12608TIP3   OH237708   5.972   0.400   6.019
12608TIP3    H137709   6.027   0.476   6.033
12608TIP3    H237710   5.951   0.368   6.107
12609TIP3   OH237711   5.979   0.713   6.694
12609TIP3    H137712   5.995   0.619   6.699
12609TIP3    H237713   5.965   0.739   6.785
12610TIP3   OH237714   4.591   0.772   7.465
12610TIP3    H137715   4.580   0.726   7.382
12610TIP3    H237716   4.685   0.768   7.482
12611TIP3   OH237717   6.249   1.106   7.541
12611TIP3    H137718   6.322   1.045   7.531
12611TIP3    H237719   6.271   1.179   7.484
12612TIP3   OH237720   6.481   0.948   7.591
12612TIP3    H137721   6.455   0.919   7.678
12612TIP3    H237722   6.556   1.006   7.606
12613TIP3   OH237723   5.843   0.388   6.561
12613TIP3    H137724   5.885   0.309   6.595
12613TIP3    H237725   5.892   0.410   6.482
12614TIP3   OH237726   6.237   0.582   7.152
12614TIP3    H137727   6.275   0.645   7.091
12614TIP3    H237728   6.312   0.533   7.186
12615TIP3   OH237729   6.209   0.823   7.389
12615TIP3    H137730   6.125   0.861   7.413
12615TIP3    H237731   6.240   0.876   7.316
12616TIP3   OH237732   4.573   0.439   7.522
12616TIP3    H137733   4.629   0.434   7.444
12616TIP3    H237734   4.633   0.423   7.595
12617TIP3   OH237735   5.711   1.627   6.524
12617TIP3    H137736   5.770   1.621   6.449
12617TIP3    H237737   5.752   1.691   6.582
12618TIP3   OH237738   4.814   1.434   7.904
12618TIP3    H137739   4.721   1.419   7.890
12618TIP3    H237740   4.828   1.419   7.997
12619TIP3   OH237741   5.019   1.487   7.453
12619TIP3    H137742   4.958   1.550   7.415
12619TIP3    H237743   5.102   1.503   7.408
12620TIP3   OH237744   5.425   1.748   7.575
12620TIP3    H137745   5.452   1.735   7.666
12620TIP3    H237746   5.504   1.781   7.532
12621TIP3   OH237747   5.659   1.853   7.482
12621TIP3    H137748   5.731   1.807   7.439
12621TIP3    H237749   5.701   1.925   7.529
12622TIP3   OH237750   4.683   1.835   7.472
12622TIP3    H137751   4.668   1.909   7.414
12622TIP3    H237752   4.692   1.873   7.559
12623TIP3   OH237753   4.875   1.689   7.344
12623TIP3    H137754   4.804   1.732   7.393
12623TIP3    H237755   4.867   1.725   7.256
12624TIP3   OH237756   5.543   1.693   7.141
12624TIP3    H137757   5.522   1.673   7.050
12624TIP3    H237758   5.622   1.747   7.136
12625TIP3   OH237759   5.789   1.816   7.090
12625TIP3    H137760   5.791   1.908   7.065
12625TIP3    H237761   5.844   1.772   7.025
12626TIP3   OH237762   4.594   1.497   7.222
12626TIP3    H137763   4.622   1.472   7.310
12626TIP3    H237764   4.665   1.469   7.165
12627TIP3   OH237765   4.797   1.387   7.080
12627TIP3    H137766   4.809   1.301   7.120
12627TIP3    H237767   4.884   1.428   7.085
12628TIP3   OH237768   5.065   1.478   7.109
12628TIP3    H137769   5.084   1.386   7.092
12628TIP3    H237770   5.123   1.502   7.181
12629TIP3   OH237771   4.351   1.310   6.611
12629TIP3    H137772   4.268   1.278   6.575
12629TIP3    H237773   4.358   1.399   6.577
12630TIP3   OH237774   5.163   1.465   6.200
12630TIP3    H137775   5.247   1.492   6.162
12630TIP3    H237776   5.133   1.395   6.142
12631TIP3   OH237777   5.862   1.590   6.296
12631TIP3    H137778   5.852   1.496   6.285
12631TIP3    H237779   5.822   1.627   6.217
12632TIP3   OH237780   4.469   1.302   6.260
12632TIP3    H137781   4.474   1.314   6.355
12632TIP3    H237782   4.549   1.254   6.238
12633TIP3   OH237783   6.078   1.736   7.490
12633TIP3    H137784   6.007   1.708   7.433
12633TIP3    H237785   6.073   1.832   7.490
12634TIP3   OH237786   7.348   1.144   6.254
12634TIP3    H137787   7.329   1.233   6.224
12634TIP3    H237788   7.282   1.090   6.210
12635TIP3   OH237789   7.318   1.138   6.616
12635TIP3    H137790   7.354   1.127   6.704
12635TIP3    H237791   7.289   1.050   6.590
12636TIP3   OH237792   6.626   1.063   6.994
12636TIP3    H137793   6.673   1.013   7.061
12636TIP3    H237794   6.695   1.096   6.937
12637TIP3   OH237795   7.623   1.425   6.336
12637TIP3    H137796   7.599   1.370   6.410
12637TIP3    H237797   7.644   1.509   6.374
12638TIP3   OH237798   6.615   1.414   6.710
12638TIP3    H137799   6.598   1.322   6.689
12638TIP3    H237800   6.710   1.424   6.702
12639TIP3   OH237801   6.342   0.703   6.498
12639TIP3    H137802   6.288   0.782   6.503
12639TIP3    H237803   6.279   0.631   6.494
12640TIP3   OH237804   6.392   0.969   6.676
12640TIP3    H137805   6.445   0.890   6.687
12640TIP3    H237806   6.454   1.036   6.648
12641TIP3   OH237807   7.285   1.850   6.340
12641TIP3    H137808   7.309   1.788   6.271
12641TIP3    H237809   7.298   1.802   6.422
12642TIP3   OH237810   7.147   1.357   6.659
12642TIP3    H137811   7.185   1.277   6.622
12642TIP3    H237812   7.223   1.412   6.679
12643TIP3   OH237813   7.584   0.892   6.706
12643TIP3    H137814   7.663   0.869   6.756
12643TIP3    H237815   7.600   0.857   6.619
12644TIP3   OH237816   6.509   0.731   6.771
12644TIP3    H137817   6.602   0.716   6.783
12644TIP3    H237818   6.485   0.676   6.696
12645TIP3   OH237819   6.956   0.984   6.610
12645TIP3    H137820   7.046   0.951   6.612
12645TIP3    H237821   6.902   0.906   6.596
12646TIP3   OH237822   8.197   0.772   6.853
12646TIP3    H137823   8.188   0.865   6.830
12646TIP3    H237824   8.282   0.766   6.895
12647TIP3   OH237825   7.264   1.353   6.095
12647TIP3    H137826   7.222   1.318   6.017
12647TIP3    H237827   7.210   1.427   6.121
12648TIP3   OH237828   7.026   1.288   6.899
12648TIP3    H137829   6.962   1.355   6.922
12648TIP3    H237830   7.064   1.319   6.816
12649TIP3   OH237831   6.763   0.653   6.811
12649TIP3    H137832   6.806   0.726   6.855
12649TIP3    H237833   6.827   0.624   6.746
12650TIP3   OH237834   6.837   1.471   6.972
12650TIP3    H137835   6.824   1.560   6.940
12650TIP3    H237836   6.761   1.454   7.027
12651TIP3   OH237837   6.224   1.184   6.230
12651TIP3    H137838   6.194   1.201   6.141
12651TIP3    H237839   6.245   1.270   6.266
12652TIP3   OH237840   7.660   1.675   6.464
12652TIP3    H137841   7.570   1.672   6.498
12652TIP3    H237842   7.665   1.758   6.417
12653TIP3   OH237843   7.368   1.706   6.117
12653TIP3    H137844   7.423   1.628   6.108
12653TIP3    H237845   7.423   1.778   6.089
12654TIP3   OH237846   7.519   1.483   6.084
12654TIP3    H137847   7.450   1.417   6.072
12654TIP3    H237848   7.565   1.455   6.163
12655TIP3   OH237849   7.907   1.577   6.822
12655TIP3    H137850   7.875   1.507   6.765
12655TIP3    H237851   7.888   1.658   6.774
12656TIP3   OH237852   7.187   0.994   6.083
12656TIP3    H137853   7.096   1.023   6.072
12656TIP3    H237854   7.223   0.995   5.994
12657TIP3   OH237855   7.133   0.799   5.760
12657TIP3    H137856   7.209   0.829   5.809
12657TIP3    H237857   7.161   0.715   5.722
12658TIP3   OH237858   8.074   1.270   6.670
12658TIP3    H137859   7.983   1.299   6.674
12658TIP3    H237860   8.102   1.289   6.581
12659TIP3   OH237861   7.532   1.090   6.044
12659TIP3    H137862   7.484   1.106   6.125
12659TIP3    H237863   7.616   1.053   6.072
12660TIP3   OH237864   7.717   1.135   6.916
12660TIP3    H137865   7.742   1.218   6.956
12660TIP3    H237866   7.625   1.146   6.891
12661TIP3   OH237867   6.749   1.067   6.421
12661TIP3    H137868   6.712   0.996   6.370
12661TIP3    H237869   6.825   1.029   6.465
12662TIP3   OH237870   6.887   1.453   6.599
12662TIP3    H137871   6.869   1.441   6.506
12662TIP3    H237872   6.976   1.420   6.611
12663TIP3   OH237873   6.836   1.109   6.815
12663TIP3    H137874   6.880   1.074   6.738
12663TIP3    H237875   6.899   1.172   6.852
12664TIP3   OH237876   7.412   1.681   6.576
12664TIP3    H137877   7.403   1.758   6.633
12664TIP3    H237878   7.399   1.607   6.635
12665TIP3   OH237879   7.036   1.574   7.136
12665TIP3    H137880   6.975   1.633   7.179
12665TIP3    H237881   6.981   1.519   7.079
12666TIP3   OH237882   7.367   0.950   5.873
12666TIP3    H137883   7.423   1.005   5.927
12666TIP3    H237884   7.394   0.968   5.783
12667TIP3   OH237885   6.770   1.147   7.292
12667TIP3    H137886   6.780   1.239   7.317
12667TIP3    H237887   6.677   1.128   7.303
12668TIP3   OH237888   7.119   1.587   6.128
12668TIP3    H137889   7.201   1.637   6.131
12668TIP3    H237890   7.059   1.643   6.080
12669TIP3   OH237891   6.828   1.729   7.223
12669TIP3    H137892   6.801   1.739   7.132
12669TIP3    H237893   6.747   1.711   7.271
12670TIP3   OH237894   6.634   0.876   6.254
12670TIP3    H137895   6.560   0.925   6.219
12670TIP3    H237896   6.634   0.794   6.204
12671TIP3   OH237897   7.704   1.520   5.485
12671TIP3    H137898   7.695   1.613   5.465
12671TIP3    H237899   7.796   1.499   5.468
12672TIP3   OH237900   6.423   1.293   7.181
12672TIP3    H137901   6.353   1.292   7.116
12672TIP3    H237902   6.456   1.203   7.183
12673TIP3   OH237903   6.338   1.466   6.816
12673TIP3    H137904   6.425   1.451   6.780
12673TIP3    H237905   6.350   1.536   6.881
12674TIP3   OH237906   8.129   1.952   6.876
12674TIP3    H137907   8.140   1.857   6.885
12674TIP3    H237908   8.047   1.971   6.922
12675TIP3   OH237909   7.231   1.712   7.000
12675TIP3    H137910   7.225   1.803   7.029
12675TIP3    H237911   7.162   1.667   7.049
12676TIP3   OH237912   7.010   1.808   5.957
12676TIP3    H137913   6.964   1.789   5.875
12676TIP3    H237914   6.972   1.891   5.987
12677TIP3   OH237915   6.434   1.670   6.327
12677TIP3    H137916   6.485   1.661   6.407
12677TIP3    H237917   6.388   1.587   6.318
12678TIP3   OH237918   7.211   1.744   5.583
12678TIP3    H137919   7.263   1.672   5.547
12678TIP3    H237920   7.246   1.757   5.671
12679TIP3   OH237921   7.264   1.785   5.852
12679TIP3    H137922   7.177   1.788   5.894
12679TIP3    H237923   7.321   1.747   5.919
12680TIP3   OH237924   8.017   1.095   7.038
12680TIP3    H137925   7.950   1.155   7.070
12680TIP3    H237926   7.988   1.008   7.067
12681TIP3   OH237927   6.629   1.475   7.153
12681TIP3    H137928   6.677   1.469   7.235
12681TIP3    H237929   6.556   1.414   7.162
12682TIP3   OH237930   7.772   1.004   7.177
12682TIP3    H137931   7.732   0.918   7.166
12682TIP3    H237932   7.733   1.057   7.108
12683TIP3   OH237933   7.450   0.972   5.619
12683TIP3    H137934   7.373   1.002   5.570
12683TIP3    H237935   7.524   1.010   5.573
12684TIP3   OH237936   6.879   0.865   6.931
12684TIP3    H137937   6.838   0.870   7.018
12684TIP3    H237938   6.853   0.946   6.888
12685TIP3   OH237939   6.780   0.790   6.544
12685TIP3    H137940   6.710   0.726   6.537
12685TIP3    H237941   6.829   0.782   6.462
12686TIP3   OH237942   7.396   0.845   6.180
12686TIP3    H137943   7.319   0.892   6.147
12686TIP3    H237944   7.407   0.772   6.120
12687TIP3   OH237945   7.500   1.199   7.237
12687TIP3    H137946   7.478   1.130   7.300
12687TIP3    H237947   7.480   1.161   7.151
12688TIP3   OH237948   7.454   0.952   6.423
12688TIP3    H137949   7.417   1.035   6.393
12688TIP3    H237950   7.452   0.896   6.345
12689TIP3   OH237951   6.764   0.901   7.172
12689TIP3    H137952   6.775   0.973   7.234
12689TIP3    H237953   6.713   0.836   7.220
12690TIP3   OH237954   7.448   1.078   6.849
12690TIP3    H137955   7.491   1.015   6.792
12690TIP3    H237956   7.442   1.034   6.934
12691TIP3   OH237957   6.587   0.593   6.530
12691TIP3    H137958   6.516   0.651   6.504
12691TIP3    H237959   6.550   0.505   6.524
12692TIP3   OH237960   6.856   0.528   6.228
12692TIP3    H137961   6.951   0.518   6.233
12692TIP3    H237962   6.842   0.603   6.170
12693TIP3   OH237963   6.644   0.679   6.057
12693TIP3    H137964   6.555   0.675   6.023
12693TIP3    H237965   6.692   0.612   6.007
12694TIP3   OH237966   7.836   2.271   6.967
12694TIP3    H137967   7.832   2.287   6.872
12694TIP3    H237968   7.915   2.317   6.995
12695TIP3   OH237969   6.774   1.403   7.390
12695TIP3    H137970   6.856   1.416   7.438
12695TIP3    H237971   6.706   1.418   7.456
12696TIP3   OH237972   7.203   0.862   6.641
12696TIP3    H137973   7.193   0.778   6.596
12696TIP3    H237974   7.215   0.838   6.733
12697TIP3   OH237975   7.231   0.759   6.899
12697TIP3    H137976   7.150   0.707   6.904
12697TIP3    H237977   7.278   0.738   6.980
12698TIP3   OH237978   6.940   1.103   6.026
12698TIP3    H137979   6.864   1.054   5.995
12698TIP3    H237980   6.908   1.154   6.100
12699TIP3   OH237981   7.827   1.396   6.637
12699TIP3    H137982   7.864   1.445   6.564
12699TIP3    H237983   7.744   1.362   6.604
12700TIP3   OH237984   7.397   1.478   7.013
12700TIP3    H137985   7.349   1.399   7.040
12700TIP3    H237986   7.336   1.550   7.030
12701TIP3   OH237987   7.411   0.691   5.938
12701TIP3    H137988   7.503   0.668   5.930
12701TIP3    H237989   7.408   0.785   5.917
12702TIP3   OH237990   6.610   1.139   6.650
12702TIP3    H137991   6.648   1.124   6.563
12702TIP3    H237992   6.683   1.124   6.711
12703TIP3   OH237993   7.101   1.274   5.883
12703TIP3    H137994   7.051   1.356   5.884
12703TIP3    H237995   7.044   1.211   5.927
12704TIP3   OH237996   6.514   1.046   7.323
12704TIP3    H137997   6.512   1.006   7.410
12704TIP3    H237998   6.435   1.013   7.280
12705TIP3   OH237999   7.236   1.245   7.349
12705TIP3    H138000   7.165   1.185   7.329
12705TIP3    H238001   7.298   1.235   7.276
12706TIP3   OH238002   7.503   1.748   6.914
12706TIP3    H138003   7.410   1.725   6.919
12706TIP3    H238004   7.527   1.773   7.003
12707TIP3   OH238005   7.935   0.710   5.946
12707TIP3    H138006   7.958   0.635   5.891
12707TIP3    H238007   7.909   0.779   5.884
12708TIP3   OH238008   8.158   1.679   6.895
12708TIP3    H138009   8.066   1.655   6.904
12708TIP3    H238010   8.184   1.642   6.810
12709TIP3   OH238011   7.623   1.586   5.750
12709TIP3    H138012   7.599   1.514   5.808
12709TIP3    H238013   7.645   1.544   5.667
12710TIP3   OH238014   7.581   1.261   6.573
12710TIP3    H138015   7.495   1.222   6.563
12710TIP3    H238016   7.640   1.187   6.586
12711TIP3   OH238017   6.761   1.485   6.347
12711TIP3    H138018   6.756   1.549   6.276
12711TIP3    H238019   6.695   1.515   6.410
12712TIP3   OH238020   6.309   0.813   5.996
12712TIP3    H138021   6.376   0.871   6.031
12712TIP3    H238022   6.232   0.830   6.050
12713TIP3   OH238023   6.820   1.246   6.222
12713TIP3    H138024   6.811   1.333   6.262
12713TIP3    H238025   6.794   1.185   6.291
12714TIP3   OH238026   7.049   1.782   6.794
12714TIP3    H138027   7.082   1.857   6.744
12714TIP3    H238028   7.124   1.752   6.845
12715TIP3   OH238029   6.669   1.692   6.182
12715TIP3    H138030   6.583   1.695   6.224
12715TIP3    H238031   6.704   1.781   6.192
12716TIP3   OH238032   7.400   1.453   6.736
12716TIP3    H138033   7.410   1.460   6.831
12716TIP3    H238034   7.472   1.396   6.708
12717TIP3   OH238035   7.386   1.323   5.630
12717TIP3    H138036   7.437   1.306   5.709
12717TIP3    H238037   7.297   1.299   5.654
12718TIP3   OH238038   7.655   1.949   6.805
12718TIP3    H138039   7.588   1.885   6.828
12718TIP3    H238040   7.616   1.999   6.733
12719TIP3   OH238041   7.699   1.790   5.441
12719TIP3    H138042   7.717   1.849   5.368
12719TIP3    H238043   7.630   1.834   5.491
12720TIP3   OH238044   7.557   1.272   5.836
12720TIP3    H138045   7.542   1.217   5.913
12720TIP3    H238046   7.652   1.275   5.827
12721TIP3   OH238047   6.430   1.640   7.017
12721TIP3    H138048   6.503   1.600   7.064
12721TIP3    H238049   6.459   1.729   6.999
12722TIP3   OH238050   6.727   1.317   5.672
12722TIP3    H138051   6.741   1.228   5.639
12722TIP3    H238052   6.721   1.306   5.767
12723TIP3   OH238053   6.685   1.311   5.947
12723TIP3    H138054   6.735   1.287   6.024
12723TIP3    H238055   6.686   1.407   5.947
12724TIP3   OH238056   6.432   1.020   6.134
12724TIP3    H138057   6.362   1.060   6.187
12724TIP3    H238058   6.447   1.083   6.064
12725TIP3   OH238059   6.953   1.498   5.864
12725TIP3    H138060   6.866   1.520   5.898
12725TIP3    H238061   6.975   1.572   5.807
12726TIP3   OH238062   7.124   0.493   6.279
12726TIP3    H138063   7.155   0.577   6.312
12726TIP3    H238064   7.173   0.428   6.329
12727TIP3   OH238065   7.445   0.966   7.092
12727TIP3    H138066   7.378   0.963   7.159
12727TIP3    H238067   7.506   0.896   7.115
12728TIP3   OH238068   6.702   1.583   5.936
12728TIP3    H138069   6.683   1.654   5.874
12728TIP3    H238070   6.688   1.623   6.022
12729TIP3   OH238071   7.728   0.983   6.404
12729TIP3    H138072   7.635   0.970   6.422
12729TIP3    H238073   7.763   1.023   6.484
12730TIP3   OH238074   6.436   1.196   5.916
12730TIP3    H138075   6.513   1.251   5.930
12730TIP3    H238076   6.463   1.133   5.850
12731TIP3   OH238077   6.250   0.512   6.054
12731TIP3    H138078   6.312   0.554   6.114
12731TIP3    H238079   6.255   0.566   5.975
12732TIP3   OH238080   7.682   1.938   6.376
12732TIP3    H138081   7.639   1.991   6.309
12732TIP3    H238082   7.776   1.954   6.364
12733TIP3   OH238083   6.259   1.447   6.324
12733TIP3    H138084   6.218   1.487   6.401
12733TIP3    H238085   6.219   1.491   6.250
12734TIP3   OH238086   6.469   1.981   7.363
12734TIP3    H138087   6.551   1.980   7.412
12734TIP3    H238088   6.449   1.889   7.348
12735TIP3   OH238089   6.932   1.891   7.420
12735TIP3    H138090   7.024   1.866   7.430
12735TIP3    H238091   6.901   1.838   7.347
12736TIP3   OH238092   6.901   1.487   5.548
12736TIP3    H138093   6.839   1.433   5.597
12736TIP3    H238094   6.978   1.431   5.536
12737TIP3   OH238095   7.557   1.834   7.169
12737TIP3    H138096   7.567   1.769   7.239
12737TIP3    H238097   7.629   1.895   7.183
12738TIP3   OH238098   7.343   1.538   5.463
12738TIP3    H138099   7.372   1.470   5.524
12738TIP3    H238100   7.399   1.528   5.387
12739TIP3   OH238101   6.569   1.387   7.578
12739TIP3    H138102   6.597   1.296   7.586
12739TIP3    H238103   6.483   1.382   7.537
12740TIP3   OH238104   6.547   1.007   5.756
12740TIP3    H138105   6.597   0.978   5.832
12740TIP3    H238106   6.614   1.027   5.690
12741TIP3   OH238107   7.183   1.510   7.356
12741TIP3    H138108   7.139   1.524   7.273
12741TIP3    H238109   7.214   1.419   7.352
12742TIP3   OH238110   7.100   1.269   5.609
12742TIP3    H138111   7.090   1.275   5.704
12742TIP3    H238112   7.109   1.175   5.591
12743TIP3   OH238113   7.663   1.451   6.962
12743TIP3    H138114   7.697   1.531   6.922
12743TIP3    H238115   7.572   1.473   6.985
12744TIP3   OH238116   6.685   1.133   7.601
12744TIP3    H138117   6.766   1.107   7.559
12744TIP3    H238118   6.709   1.152   7.692
12745TIP3   OH238119   6.723   0.943   5.961
12745TIP3    H138120   6.699   0.902   6.045
12745TIP3    H238121   6.764   0.873   5.911
12746TIP3   OH238122   7.040   1.074   7.273
12746TIP3    H138123   6.948   1.103   7.274
12746TIP3    H238124   7.058   1.057   7.181
12747TIP3   OH238125   6.867   0.760   5.812
12747TIP3    H138126   6.827   0.764   5.726
12747TIP3    H238127   6.960   0.779   5.796
12748TIP3   OH238128   7.607   1.408   7.374
12748TIP3    H138129   7.573   1.350   7.306
12748TIP3    H238130   7.586   1.364   7.456
12749TIP3   OH238131   7.640   1.050   5.443
12749TIP3    H138132   7.627   1.003   5.361
12749TIP3    H238133   7.614   1.140   5.424
12750TIP3   OH238134   7.056   0.768   7.251
12750TIP3    H138135   7.133   0.734   7.205
12750TIP3    H238136   7.046   0.857   7.218
12751TIP3   OH238137   7.270   1.236   7.029
12751TIP3    H138138   7.313   1.184   6.962
12751TIP3    H238139   7.178   1.239   7.002
12752TIP3   OH238140   7.879   1.089   7.606
12752TIP3    H138141   7.811   1.068   7.541
12752TIP3    H238142   7.864   1.181   7.628
12753TIP3   OH238143   7.829   1.301   7.112
12753TIP3    H138144   7.757   1.359   7.086
12753TIP3    H238145   7.908   1.347   7.081
12754TIP3   OH238146   6.940   0.999   7.627
12754TIP3    H138147   6.878   0.952   7.684
12754TIP3    H238148   6.988   0.930   7.582
12755TIP3   OH238149   7.390   0.987   7.379
12755TIP3    H138150   7.350   1.026   7.457
12755TIP3    H238151   7.375   0.893   7.389
12756TIP3   OH238152   6.702   1.793   5.754
12756TIP3    H138153   6.791   1.771   5.727
12756TIP3    H238154   6.664   1.837   5.678
12757TIP3   OH238155   6.166   1.190   5.948
12757TIP3    H138156   6.260   1.203   5.938
12757TIP3    H238157   6.150   1.104   5.908
12758TIP3   OH238158   6.061   1.752   6.399
12758TIP3    H138159   6.002   1.691   6.354
12758TIP3    H238160   6.105   1.699   6.465
12759TIP3   OH238161   6.197   1.603   6.591
12759TIP3    H138162   6.231   1.537   6.651
12759TIP3    H238163   6.196   1.684   6.642
12760TIP3   OH238164   7.951   1.995   6.372
12760TIP3    H138165   7.969   2.022   6.461
12760TIP3    H238166   8.006   2.052   6.318
12761TIP3   OH238167   7.966   2.026   6.651
12761TIP3    H138168   7.921   1.942   6.649
12761TIP3    H238169   8.037   2.014   6.714
12762TIP3   OH238170   8.014   1.735   7.213
12762TIP3    H138171   7.946   1.744   7.279
12762TIP3    H238172   8.065   1.816   7.221
12763TIP3   OH238173   7.832   1.266   5.816
12763TIP3    H138174   7.895   1.335   5.794
12763TIP3    H238175   7.872   1.222   5.892
12764TIP3   OH238176   7.951   1.143   6.031
12764TIP3    H138177   7.890   1.091   6.083
12764TIP3    H238178   8.010   1.182   6.096
12765TIP3   OH238179   8.007   1.525   6.472
12765TIP3    H138180   8.054   1.456   6.425
12765TIP3    H238181   8.011   1.601   6.413
12766TIP3   OH238182   7.827   1.785   6.663
12766TIP3    H138183   7.758   1.833   6.710
12766TIP3    H238184   7.781   1.742   6.591
12767TIP3   OH238185   7.863   1.149   5.566
12767TIP3    H138186   7.781   1.104   5.548
12767TIP3    H238187   7.851   1.186   5.654
12768TIP3   OH238188   7.763   0.694   5.638
12768TIP3    H138189   7.763   0.749   5.559
12768TIP3    H238190   7.743   0.606   5.606
12769TIP3   OH238191   7.763   0.961   6.139
12769TIP3    H138192   7.737   0.870   6.125
12769TIP3    H238193   7.759   0.973   6.234
12770TIP3   OH238194   6.366   1.048   6.933
12770TIP3    H138195   6.364   1.032   6.838
12770TIP3    H238196   6.459   1.059   6.953
12771TIP3   OH238197   8.044   1.410   6.990
12771TIP3    H138198   8.123   1.383   6.942
12771TIP3    H238199   7.998   1.468   6.929
12772TIP3   OH238200   8.261   1.227   7.048
12772TIP3    H138201   8.173   1.190   7.054
12772TIP3    H238202   8.286   1.245   7.139
12773TIP3   OH238203   7.662   0.682   6.141
12773TIP3    H138204   7.746   0.656   6.178
12773TIP3    H238205   7.665   0.653   6.050
12774TIP3   OH238206   7.978   0.863   6.605
12774TIP3    H138207   8.029   0.927   6.555
12774TIP3    H238208   8.016   0.866   6.693
12775TIP3   OH238209   8.112   1.026   6.791
12775TIP3    H138210   8.083   1.052   6.879
12775TIP3    H238211   8.099   1.105   6.738
12776TIP3   OH238212   6.292   0.772   6.935
12776TIP3    H138213   6.365   0.773   6.873
12776TIP3    H238214   6.274   0.864   6.952
12777TIP3   OH238215   7.507   1.910   6.013
12777TIP3    H138216   7.562   1.896   5.936
12777TIP3    H238217   7.551   1.979   6.063
12778TIP3   OH238218   6.612   1.696   7.396
12778TIP3    H138219   6.519   1.677   7.400
12778TIP3    H238220   6.637   1.711   7.487
12779TIP3   OH238221   6.818   1.746   6.940
12779TIP3    H138222   6.768   1.822   6.911
12779TIP3    H238223   6.903   1.755   6.896
12780TIP3   OH238224   7.214   1.977   7.081
12780TIP3    H138225   7.252   1.973   7.169
12780TIP3    H238226   7.274   2.032   7.031
12781TIP3   OH238227   7.404   2.132   6.954
12781TIP3    H138228   7.465   2.077   6.905
12781TIP3    H238229   7.460   2.188   7.008
12782TIP3   OH238230   6.454   1.915   6.942
12782TIP3    H138231   6.388   1.881   6.882
12782TIP3    H238232   6.413   1.992   6.981
12783TIP3   OH238233   6.705   1.978   6.844
12783TIP3    H138234   6.619   1.962   6.883
12783TIP3    H238235   6.686   1.999   6.753
12784TIP3   OH238236   7.116   1.997   6.633
12784TIP3    H138237   7.043   2.006   6.572
12784TIP3    H238238   7.126   2.083   6.673
12785TIP3   OH238239   7.380   1.934   6.680
12785TIP3    H138240   7.289   1.955   6.659
12785TIP3    H238241   7.432   2.000   6.633
12786TIP3   OH238242   7.582   2.098   6.578
12786TIP3    H138243   7.586   2.186   6.540
12786TIP3    H238244   7.614   2.040   6.508
12787TIP3   OH238245   6.604   1.627   6.534
12787TIP3    H138246   6.593   1.564   6.606
12787TIP3    H238247   6.675   1.684   6.564
12788TIP3   OH238248   6.860   1.735   6.595
12788TIP3    H138249   6.873   1.641   6.583
12788TIP3    H238250   6.918   1.758   6.668
12789TIP3   OH238251   6.156   1.565   6.102
12789TIP3    H138252   6.074   1.529   6.068
12789TIP3    H238253   6.159   1.654   6.066
12790TIP3   OH238254   6.957   1.716   5.685
12790TIP3    H138255   7.041   1.744   5.648
12790TIP3    H238256   6.929   1.644   5.628
12791TIP3   OH238257   7.657   1.855   5.786
12791TIP3    H138258   7.650   1.760   5.779
12791TIP3    H238259   7.615   1.889   5.707
12792TIP3   OH238260   6.265   1.561   5.750
12792TIP3    H138261   6.270   1.565   5.846
12792TIP3    H238262   6.344   1.514   5.723
12793TIP3   OH238263   7.874   1.999   6.971
12793TIP3    H138264   7.801   1.969   6.917
12793TIP3    H238265   7.860   2.093   6.980
12794TIP3   OH238266   9.151   1.374   5.732
12794TIP3    H138267   9.123   1.464   5.715
12794TIP3    H238268   9.086   1.320   5.686
12795TIP3   OH238269   9.091   1.374   6.121
12795TIP3    H138270   9.161   1.369   6.186
12795TIP3    H238271   9.054   1.286   6.118
12796TIP3   OH238272   8.424   1.311   6.480
12796TIP3    H138273   8.468   1.258   6.546
12796TIP3    H238274   8.495   1.347   6.426
12797TIP3   OH238275   9.404   1.670   5.819
12797TIP3    H138276   9.381   1.607   5.888
12797TIP3    H238277   9.430   1.749   5.866
12798TIP3   OH238278   8.430   1.676   6.172
12798TIP3    H138279   8.408   1.583   6.170
12798TIP3    H238280   8.525   1.678   6.162
12799TIP3   OH238281   8.125   0.943   5.956
12799TIP3    H138282   8.088   1.027   5.982
12799TIP3    H238283   8.053   0.897   5.914
12800TIP3   OH238284   8.192   1.221   6.159
12800TIP3    H138285   8.241   1.142   6.177
12800TIP3    H238286   8.258   1.286   6.134
12801TIP3   OH238287   9.095   2.089   5.834
12801TIP3    H138288   9.111   2.025   5.764
12801TIP3    H238289   9.108   2.039   5.915
12802TIP3   OH238290   8.941   1.608   6.140
12802TIP3    H138291   8.976   1.521   6.119
12802TIP3    H238292   9.019   1.661   6.158
12803TIP3   OH238293   9.464   1.165   6.119
12803TIP3    H138294   9.459   1.074   6.148
12803TIP3    H238295   9.402   1.170   6.047
12804TIP3   OH238296   8.305   0.987   6.250
12804TIP3    H138297   8.398   0.969   6.267
12804TIP3    H238298   8.276   0.915   6.194
12805TIP3   OH238299   8.745   1.236   6.098
12805TIP3    H138300   8.834   1.202   6.106
12805TIP3    H238301   8.691   1.159   6.084
12806TIP3   OH238302   9.049   1.599   5.602
12806TIP3    H138303   9.013   1.566   5.519
12806TIP3    H238304   8.993   1.673   5.624
12807TIP3   OH238305   8.819   1.555   6.384
12807TIP3    H138306   8.755   1.623   6.404
12807TIP3    H238307   8.858   1.583   6.301
12808TIP3   OH238308   8.566   0.909   6.279
12808TIP3    H138309   8.606   0.975   6.335
12808TIP3    H238310   8.603   0.925   6.193
12809TIP3   OH238311   8.631   1.737   6.458
12809TIP3    H138312   8.621   1.827   6.428
12809TIP3    H238313   8.553   1.719   6.510
12810TIP3   OH238314   8.018   1.443   5.712
12810TIP3    H138315   7.987   1.462   5.624
12810TIP3    H238316   8.042   1.528   5.748
12811TIP3   OH238317   9.435   1.909   5.962
12811TIP3    H138318   9.343   1.908   5.989
12811TIP3    H238319   9.449   1.997   5.927
12812TIP3   OH238320   9.171   1.954   5.597
12812TIP3    H138321   9.225   1.875   5.589
12812TIP3    H238322   9.231   2.026   5.578
12813TIP3   OH238323   9.298   1.707   5.571
12813TIP3    H138324   9.213   1.666   5.588
12813TIP3    H238325   9.347   1.692   5.652
12814TIP3   OH238326   8.999   1.225   5.555
12814TIP3    H138327   8.909   1.258   5.548
12814TIP3    H238328   9.030   1.220   5.465
12815TIP3   OH238329   8.929   1.020   5.284
12815TIP3    H138330   8.997   1.087   5.280
12815TIP3    H238331   8.960   0.959   5.351
12816TIP3   OH238332   9.321   1.311   5.517
12816TIP3    H138333   9.268   1.334   5.593
12816TIP3    H238334   9.404   1.283   5.553
12817TIP3   OH238335   9.563   1.351   6.438
12817TIP3    H138336   9.582   1.421   6.500
12817TIP3    H238337   9.485   1.380   6.391
12818TIP3   OH238338   8.550   1.334   5.913
12818TIP3    H138339   8.516   1.266   5.854
12818TIP3    H238340   8.624   1.292   5.957
12819TIP3   OH238341   8.691   1.716   6.076
12819TIP3    H138342   8.672   1.704   5.983
12819TIP3    H238343   8.778   1.678   6.087
12820TIP3   OH238344   8.637   1.365   6.309
12820TIP3    H138345   8.680   1.331   6.230
12820TIP3    H238346   8.700   1.428   6.345
12821TIP3   OH238347   9.179   1.932   6.055
12821TIP3    H138348   9.174   2.005   6.117
12821TIP3    H238349   9.175   1.854   6.110
12822TIP3   OH238350   8.834   1.820   6.630
12822TIP3    H138351   8.774   1.880   6.675
12822TIP3    H238352   8.777   1.770   6.571
12823TIP3   OH238353   9.170   1.164   5.331
12823TIP3    H138354   9.227   1.211   5.391
12823TIP3    H238355   9.193   1.197   5.244
12824TIP3   OH238356   8.576   1.407   6.769
12824TIP3    H138357   8.585   1.498   6.799
12824TIP3    H238358   8.483   1.388   6.778
12825TIP3   OH238359   8.915   1.840   5.617
12825TIP3    H138360   8.996   1.891   5.617
12825TIP3    H238361   8.853   1.892   5.566
12826TIP3   OH238362   8.630   1.985   6.712
12826TIP3    H138363   8.605   1.998   6.620
12826TIP3    H238364   8.547   1.970   6.757
12827TIP3   OH238365   8.435   1.163   5.725
12827TIP3    H138366   8.362   1.213   5.689
12827TIP3    H238367   8.400   1.075   5.739
12828TIP3   OH238368   8.218   1.557   6.659
12828TIP3    H138369   8.145   1.544   6.599
12828TIP3    H238370   8.253   1.469   6.675
12829TIP3   OH238371   8.064   1.746   6.316
12829TIP3    H138372   8.156   1.768   6.332
12829TIP3    H238373   8.016   1.825   6.341
12830TIP3   OH238374   9.021   1.963   6.490
12830TIP3    H138375   9.012   2.053   6.523
12830TIP3    H238376   8.957   1.913   6.540
12831TIP3   OH238377   8.800   2.061   5.444
12831TIP3    H138378   8.762   2.039   5.359
12831TIP3    H238379   8.756   2.142   5.470
12832TIP3   OH238380   8.240   1.925   5.819
12832TIP3    H138381   8.285   1.918   5.903
12832TIP3    H238382   8.191   1.843   5.811
12833TIP3   OH238383   9.028   1.986   5.077
12833TIP3    H138384   9.086   1.914   5.051
12833TIP3    H238385   9.045   1.997   5.171
12834TIP3   OH238386   9.054   2.029   5.350
12834TIP3    H138387   8.964   2.033   5.384
12834TIP3    H238388   9.105   1.992   5.422
12835TIP3   OH238389   8.417   1.745   6.630
12835TIP3    H138390   8.466   1.737   6.712
12835TIP3    H238391   8.347   1.680   6.637
12836TIP3   OH238392   9.244   1.249   5.081
12836TIP3    H138393   9.210   1.228   4.995
12836TIP3    H238394   9.245   1.345   5.084
12837TIP3   OH238395   8.677   1.114   6.416
12837TIP3    H138396   8.644   1.116   6.505
12837TIP3    H238397   8.654   1.200   6.380
12838TIP3   OH238398   8.568   1.043   6.030
12838TIP3    H138399   8.494   0.983   6.019
12838TIP3    H238400   8.617   1.037   5.948
12839TIP3   OH238401   9.200   1.058   5.682
12839TIP3    H138402   9.140   1.101   5.621
12839TIP3    H238403   9.231   0.981   5.634
12840TIP3   OH238404   9.290   1.366   6.746
12840TIP3    H138405   9.316   1.313   6.821
12840TIP3    H238406   9.321   1.454   6.765
12841TIP3   OH238407   9.261   1.193   5.921
12841TIP3    H138408   9.229   1.277   5.886
12841TIP3    H238409   9.263   1.135   5.845
12842TIP3   OH238410   8.565   1.152   6.660
12842TIP3    H138411   8.576   1.225   6.720
12842TIP3    H238412   8.517   1.086   6.710
12843TIP3   OH238413   9.314   1.340   6.281
12843TIP3    H138414   9.370   1.268   6.252
12843TIP3    H238415   9.276   1.308   6.363
12844TIP3   OH238416   8.381   0.842   6.012
12844TIP3    H138417   8.309   0.898   5.982
12844TIP3    H238418   8.345   0.753   6.010
12845TIP3   OH238419   8.658   0.767   5.720
12845TIP3    H138420   8.749   0.799   5.716
12845TIP3    H238421   8.612   0.820   5.655
12846TIP3   OH238422   8.460   0.898   5.522
12846TIP3    H138423   8.403   0.907   5.600
12846TIP3    H238424   8.403   0.923   5.449
12847TIP3   OH238425   9.603   2.500   6.442
12847TIP3    H138426   9.574   2.525   6.354
12847TIP3    H238427   9.694   2.530   6.446
12848TIP3   OH238428   8.575   1.664   6.870
12848TIP3    H138429   8.658   1.675   6.916
12848TIP3    H238430   8.508   1.669   6.938
12849TIP3   OH238431   8.991   1.106   6.148
12849TIP3    H138432   8.935   1.030   6.129
12849TIP3    H238433   9.016   1.094   6.239
12850TIP3   OH238434   9.038   1.009   6.398
12850TIP3    H138435   8.963   0.953   6.418
12850TIP3    H238436   9.103   0.987   6.464
12851TIP3   OH238437   8.750   1.347   5.509
12851TIP3    H138438   8.672   1.301   5.480
12851TIP3    H238439   8.722   1.398   5.585
12852TIP3   OH238440   9.202   1.729   6.482
12852TIP3    H138441   9.158   1.650   6.512
12852TIP3    H238442   9.142   1.800   6.504
12853TIP3   OH238443   8.411   1.394   6.143
12853TIP3    H138444   8.451   1.381   6.057
12853TIP3    H238445   8.482   1.380   6.205
12854TIP3   OH238446   8.908   1.525   5.374
12854TIP3    H138447   8.856   1.606   5.370
12854TIP3    H238448   8.849   1.461   5.415
12855TIP3   OH238449   8.316   1.323   6.798
12855TIP3    H138450   8.317   1.289   6.888
12855TIP3    H238451   8.241   1.279   6.757
12856TIP3   OH238452   9.044   1.459   6.846
12856TIP3    H138453   8.968   1.420   6.802
12856TIP3    H238454   9.118   1.436   6.791
12857TIP3   OH238455   9.287   2.023   6.416
12857TIP3    H138456   9.195   1.996   6.414
12857TIP3    H238457   9.304   2.040   6.509
12858TIP3   OH238458   9.407   1.828   5.192
12858TIP3    H138459   9.397   1.747   5.241
12858TIP3    H238460   9.341   1.824   5.124
12859TIP3   OH238461   9.329   1.506   6.032
12859TIP3    H138462   9.240   1.470   6.032
12859TIP3    H238463   9.379   1.445   6.087
12860TIP3   OH238464   8.562   1.727   5.827
12860TIP3    H138465   8.553   1.804   5.770
12860TIP3    H238466   8.472   1.706   5.851
12861TIP3   OH238467   8.102   1.037   5.501
12861TIP3    H138468   8.166   1.103   5.529
12861TIP3    H238469   8.018   1.072   5.533
12862TIP3   OH238470   8.649   1.494   5.712
12862TIP3    H138471   8.640   1.584   5.745
12862TIP3    H238472   8.617   1.439   5.783
12863TIP3   OH238473   8.844   2.041   6.279
12863TIP3    H138474   8.880   2.115   6.229
12863TIP3    H238475   8.918   2.008   6.330
12864TIP3   OH238476   8.472   1.942   5.674
12864TIP3    H138477   8.385   1.947   5.713
12864TIP3    H238478   8.507   2.031   5.681
12865TIP3   OH238479   9.193   1.704   6.207
12865TIP3    H138480   9.208   1.707   6.302
12865TIP3    H238481   9.262   1.646   6.174
12866TIP3   OH238482   9.200   1.527   5.102
12866TIP3    H138483   9.231   1.533   5.192
12866TIP3    H238484   9.105   1.520   5.109
12867TIP3   OH238485   9.477   2.162   6.284
12867TIP3    H138486   9.403   2.112   6.319
12867TIP3    H238487   9.438   2.217   6.216
12868TIP3   OH238488   9.314   1.541   5.351
12868TIP3    H138489   9.320   1.457   5.396
12868TIP3    H238490   9.314   1.606   5.421
12869TIP3   OH238491   8.271   1.939   6.445
12869TIP3    H138492   8.324   1.881   6.499
12869TIP3    H238493   8.286   2.026   6.480
12870TIP3   OH238494   8.537   1.571   5.152
12870TIP3    H138495   8.548   1.481   5.120
12870TIP3    H238496   8.524   1.561   5.246
12871TIP3   OH238497   8.484   1.572   5.425
12871TIP3    H138498   8.543   1.546   5.495
12871TIP3    H238499   8.487   1.667   5.425
12872TIP3   OH238500   8.215   1.274   5.608
12872TIP3    H138501   8.148   1.317   5.662
12872TIP3    H238502   8.230   1.336   5.536
12873TIP3   OH238503   8.753   1.744   5.340
12873TIP3    H138504   8.673   1.782   5.377
12873TIP3    H238505   8.749   1.765   5.247
12874TIP3   OH238506   8.939   0.779   5.763
12874TIP3    H138507   8.960   0.861   5.808
12874TIP3    H238508   8.978   0.711   5.819
12875TIP3   OH238509   9.203   1.246   6.515
12875TIP3    H138510   9.238   1.280   6.597
12875TIP3    H238511   9.253   1.167   6.498
12876TIP3   OH238512   8.509   1.844   5.421
12876TIP3    H138513   8.488   1.915   5.361
12876TIP3    H238514   8.495   1.881   5.508
12877TIP3   OH238515   8.235   1.455   5.396
12877TIP3    H138516   8.311   1.511   5.410
12877TIP3    H238517   8.264   1.390   5.332
12878TIP3   OH238518   8.097   0.763   5.526
12878TIP3    H138519   8.122   0.854   5.509
12878TIP3    H238520   8.024   0.747   5.466
12879TIP3   OH238521   9.477   2.168   5.875
12879TIP3    H138522   9.436   2.221   5.806
12879TIP3    H238523   9.569   2.164   5.850
12880TIP3   OH238524   8.065   1.707   5.796
12880TIP3    H138525   8.022   1.742   5.874
12880TIP3    H238526   8.020   1.748   5.723
12881TIP3   OH238527   8.264   2.234   6.862
12881TIP3    H138528   8.347   2.235   6.910
12881TIP3    H238529   8.241   2.142   6.854
12882TIP3   OH238530   8.729   2.145   6.912
12882TIP3    H138531   8.823   2.128   6.917
12882TIP3    H238532   8.699   2.091   6.839
12883TIP3   OH238533   8.705   1.763   5.058
12883TIP3    H138534   8.651   1.688   5.083
12883TIP3    H238535   8.774   1.726   5.003
12884TIP3   OH238536   9.350   2.095   6.674
12884TIP3    H138537   9.364   2.019   6.730
12884TIP3    H238538   9.438   2.130   6.658
12885TIP3   OH238539   9.207   1.784   5.004
12885TIP3    H138540   9.205   1.692   5.029
12885TIP3    H238541   9.188   1.783   4.910
12886TIP3   OH238542   8.376   1.645   7.065
12886TIP3    H138543   8.405   1.554   7.068
12886TIP3    H238544   8.294   1.642   7.016
12887TIP3   OH238545   8.348   1.258   5.247
12887TIP3    H138546   8.399   1.230   5.322
12887TIP3    H238547   8.413   1.278   5.179
12888TIP3   OH238548   8.992   1.735   6.838
12888TIP3    H138549   8.947   1.750   6.755
12888TIP3    H238550   9.027   1.646   6.830
12889TIP3   OH238551   8.927   1.507   5.099
12889TIP3    H138552   8.911   1.512   5.194
12889TIP3    H238553   8.910   1.415   5.077
12890TIP3   OH238554   9.480   1.745   6.439
12890TIP3    H138555   9.499   1.800   6.363
12890TIP3    H238556   9.386   1.756   6.453
12891TIP3   OH238557   8.527   1.412   7.082
12891TIP3    H138558   8.606   1.374   7.044
12891TIP3    H238559   8.548   1.425   7.174
12892TIP3   OH238560   8.523   1.193   5.454
12892TIP3    H138561   8.508   1.168   5.545
12892TIP3    H238562   8.567   1.118   5.415
12893TIP3   OH238563   8.837   1.333   6.719
12893TIP3    H138564   8.748   1.366   6.731
12893TIP3    H238565   8.850   1.330   6.625
12894TIP3   OH238566   8.661   1.004   5.300
12894TIP3    H138567   8.618   1.023   5.216
12894TIP3    H238568   8.754   1.014   5.282
12895TIP3   OH238569   9.360   1.609   6.866
12895TIP3    H138570   9.454   1.625   6.858
12895TIP3    H238571   9.350   1.564   6.950
12896TIP3   OH238572   8.975   1.087   6.726
12896TIP3    H138573   8.900   1.052   6.775
12896TIP3    H238574   8.946   1.174   6.699
12897TIP3   OH238575   9.054   1.504   6.531
12897TIP3    H138576   9.081   1.413   6.517
12897TIP3    H238577   8.970   1.510   6.485
12898TIP3   OH238578   9.647   1.586   6.576
12898TIP3    H138579   9.580   1.643   6.536
12898TIP3    H238580   9.722   1.593   6.516
12899TIP3   OH238581   8.792   1.293   7.088
12899TIP3    H138582   8.784   1.210   7.136
12899TIP3    H238583   8.886   1.307   7.080
12900TIP3   OH238584   9.340   1.187   6.959
12900TIP3    H138585   9.264   1.138   6.989
12900TIP3    H238586   9.378   1.132   6.890
12901TIP3   OH238587   8.502   2.056   5.244
12901TIP3    H138588   8.593   2.046   5.215
12901TIP3    H238589   8.458   2.094   5.168
12902TIP3   OH238590   7.966   1.453   5.431
12902TIP3    H138591   8.059   1.470   5.420
12902TIP3    H238592   7.952   1.367   5.392
12903TIP3   OH238593   7.864   2.009   5.881
12903TIP3    H138594   7.800   1.955   5.835
12903TIP3    H238595   7.909   1.948   5.940
12904TIP3   OH238596   8.011   1.843   6.047
12904TIP3    H138597   8.003   1.775   6.114
12904TIP3    H238598   8.063   1.911   6.089
12905TIP3   OH238599   9.548   1.898   6.219
12905TIP3    H138600   9.543   1.992   6.238
12905TIP3    H238601   9.522   1.891   6.127
12906TIP3   OH238602   8.165   1.309   6.414
12906TIP3    H138603   8.163   1.290   6.320
12906TIP3    H238604   8.258   1.317   6.435
12907TIP3   OH238605   8.131   1.035   6.452
12907TIP3    H138606   8.192   1.022   6.380
12907TIP3    H238607   8.117   1.130   6.455
12908TIP3   OH238608   9.319   2.165   5.505
12908TIP3    H138609   9.369   2.124   5.434
12908TIP3    H238610   9.350   2.255   5.507
12909TIP3   OH238611   8.407   1.956   6.876
12909TIP3    H138612   8.312   1.944   6.870
12909TIP3    H238613   8.426   1.951   6.970
12910TIP3   OH238614   8.617   2.011   6.431
12910TIP3    H138615   8.566   2.086   6.399
12910TIP3    H238616   8.701   2.018   6.386
12911TIP3   OH238617   9.004   2.228   6.578
12911TIP3    H138618   9.043   2.228   6.666
12911TIP3    H238619   9.064   2.280   6.525
12912TIP3   OH238620   9.192   2.381   6.447
12912TIP3    H138621   9.251   2.323   6.400
12912TIP3    H238622   9.249   2.433   6.504
12913TIP3   OH238623   8.273   2.236   6.480
12913TIP3    H138624   8.182   2.254   6.457
12913TIP3    H238625   8.295   2.304   6.545
12914TIP3   OH238626   8.502   2.238   6.327
12914TIP3    H138627   8.419   2.239   6.375
12914TIP3    H238628   8.479   2.260   6.237
12915TIP3   OH238629   8.907   2.259   6.116
12915TIP3    H138630   8.832   2.270   6.059
12915TIP3    H238631   8.917   2.343   6.160
12916TIP3   OH238632   9.158   2.173   6.182
12916TIP3    H138633   9.074   2.207   6.151
12916TIP3    H238634   9.223   2.232   6.145
12917TIP3   OH238635   9.370   2.318   6.082
12917TIP3    H138636   9.355   2.405   6.047
12917TIP3    H238637   9.402   2.267   6.008
12918TIP3   OH238638   8.184   2.022   6.193
12918TIP3    H138639   8.210   1.999   6.282
12918TIP3    H238640   8.256   1.991   6.138
12919TIP3   OH238641   8.388   1.915   6.051
12919TIP3    H138642   8.397   1.831   6.096
12919TIP3    H238643   8.475   1.954   6.055
12920TIP3   OH238644   8.657   1.994   6.078
12920TIP3    H138645   8.672   1.901   6.064
12920TIP3    H238646   8.713   2.017   6.151
12921TIP3   OH238647   7.943   1.821   5.579
12921TIP3    H138648   7.860   1.787   5.544
12921TIP3    H238649   7.948   1.911   5.545
12922TIP3   OH238650   8.760   2.007   5.165
12922TIP3    H138651   8.849   2.021   5.131
12922TIP3    H238652   8.730   1.928   5.120
12923TIP3   OH238653   9.468   2.079   5.291
12923TIP3    H138654   9.458   1.987   5.267
12923TIP3    H238655   9.425   2.127   5.220
12924TIP3   OH238656   8.062   1.812   5.228
12924TIP3    H138657   8.065   1.820   5.324
12924TIP3    H238658   8.142   1.766   5.205
12925TIP3   OH238659   9.600   2.233   6.522
12925TIP3    H138660   9.573   2.189   6.442
12925TIP3    H238661   9.608   2.325   6.498
12926TIP3   OH238662   1.599   2.172   7.411
12926TIP3    H138663   1.571   2.259   7.383
12926TIP3    H238664   1.530   2.113   7.380
12927TIP3   OH238665   1.565   2.162   7.808
12927TIP3    H138666   1.634   2.135   7.868
12927TIP3    H238667   1.535   2.080   7.768
12928TIP3   OH238668   4.239   6.785   0.026
12928TIP3    H138669   4.230   6.734   0.106
12928TIP3    H238670   4.329   6.769  -0.003
12929TIP3   OH238671   1.877   2.472   7.499
12929TIP3    H138672   1.867   2.411   7.572
12929TIP3    H238673   1.894   2.557   7.541
12930TIP3   OH238674   0.893   2.459   7.847
12930TIP3    H138675   0.858   2.373   7.825
12930TIP3    H238676   0.982   2.459   7.813
12931TIP3   OH238677   1.538   2.889   7.510
12931TIP3    H138678   1.560   2.830   7.438
12931TIP3    H238679   1.555   2.838   7.589
12932TIP3   OH238680   1.411   2.391   7.796
12932TIP3    H138681   1.459   2.309   7.784
12932TIP3    H238682   1.478   2.459   7.792
12933TIP3   OH238683   2.415   1.716   7.784
12933TIP3    H138684   2.426   1.794   7.839
12933TIP3    H238685   2.478   1.729   7.712
12934TIP3   OH238686   1.845   1.852   7.837
12934TIP3    H138687   1.892   1.772   7.862
12934TIP3    H238688   1.794   1.826   7.760
12935TIP3   OH238689   1.861   1.618   7.473
12935TIP3    H138690   1.918   1.568   7.531
12935TIP3    H238691   1.916   1.638   7.397
12936TIP3   OH238692   1.247   1.936   7.718
12936TIP3    H138693   1.340   1.919   7.726
12936TIP3    H238694   1.207   1.849   7.709
12937TIP3   OH238695   2.475   1.957   7.909
12937TIP3    H138696   2.385   1.975   7.933
12937TIP3    H238697   2.521   1.946   7.992
12938TIP3   OH238698   1.504   2.389   7.269
12938TIP3    H138699   1.465   2.359   7.187
12938TIP3    H238700   1.451   2.464   7.295
12939TIP3   OH238701   4.533   7.008   0.033
12939TIP3    H138702   4.445   7.044   0.023
12939TIP3    H238703   4.576   7.027  -0.051
12940TIP3   OH238704   4.284   7.122   0.083
12940TIP3    H138705   4.289   7.217   0.074
12940TIP3    H238706   4.227   7.094   0.012
12941TIP3   OH238707   0.495   2.237   7.393
12941TIP3    H138708   0.422   2.262   7.336
12941TIP3    H238709   0.517   2.316   7.440
12942TIP3   OH238710   1.896   2.721   7.630
12942TIP3    H138711   1.804   2.720   7.656
12942TIP3    H238712   1.907   2.804   7.584
12943TIP3   OH238713   2.201   1.561   7.855
12943TIP3    H138714   2.119   1.609   7.865
12943TIP3    H238715   2.266   1.629   7.832
12944TIP3   OH238716   1.617   2.747   7.285
12944TIP3    H138717   1.670   2.668   7.276
12944TIP3    H238718   1.676   2.819   7.261
12945TIP3   OH238719   1.754   2.514   7.256
12945TIP3    H138720   1.678   2.456   7.259
12945TIP3    H238721   1.805   2.491   7.334
12946TIP3   OH238722   2.143   2.608   7.976
12946TIP3    H138723   2.139   2.540   7.909
12946TIP3    H238724   2.127   2.690   7.929
12947TIP3   OH238725   1.432   2.016   7.251
12947TIP3    H138726   1.347   2.057   7.239
12947TIP3    H238727   1.473   2.018   7.165
12948TIP3   OH238728   1.398   1.812   6.942
12948TIP3    H138729   1.461   1.868   6.989
12948TIP3    H238730   1.453   1.750   6.894
12949TIP3   OH238731   2.330   2.271   7.839
12949TIP3    H138732   2.249   2.321   7.836
12949TIP3    H238733   2.367   2.281   7.751
12950TIP3   OH238734   1.781   2.109   7.215
12950TIP3    H138735   1.724   2.135   7.287
12950TIP3    H238736   1.867   2.098   7.255
12951TIP3   OH238737   5.244   6.788   0.022
12951TIP3    H138738   5.234   6.882   0.013
12951TIP3    H238739   5.158   6.752   0.000
12952TIP3   OH238740   1.030   2.081   7.619
12952TIP3    H138741   0.993   2.028   7.549
12952TIP3    H238742   1.108   2.033   7.647
12953TIP3   OH238743   1.146   2.467   7.746
12953TIP3    H138744   1.120   2.471   7.654
12953TIP3    H238745   1.239   2.446   7.743
12954TIP3   OH238746   1.220   2.104   7.932
12954TIP3    H138747   1.229   2.053   7.852
12954TIP3    H238748   1.260   2.189   7.911
12955TIP3   OH238749   1.637   2.733   7.722
12955TIP3    H138750   1.638   2.805   7.785
12955TIP3    H238751   1.636   2.654   7.776
12956TIP3   OH238752   4.586   7.153   0.266
12956TIP3    H138753   4.500   7.193   0.281
12956TIP3    H238754   4.573   7.094   0.191
12957TIP3   OH238755   1.616   1.968   7.041
12957TIP3    H138756   1.673   2.027   7.088
12957TIP3    H238757   1.646   1.973   6.950
12958TIP3   OH238758   4.298   6.708   0.388
12958TIP3    H138759   4.300   6.803   0.389
12958TIP3    H238760   4.218   6.686   0.339
12959TIP3   OH238761   1.368   2.627   7.308
12959TIP3    H138762   1.449   2.679   7.308
12959TIP3    H238763   1.307   2.680   7.257
12960TIP3   OH238764   4.354   7.290   0.329
12960TIP3    H138765   4.302   7.337   0.264
12960TIP3    H238766   4.297   7.285   0.406
12961TIP3   OH238767   2.135   1.193   7.115
12961TIP3    H138768   2.058   1.216   7.166
12961TIP3    H238769   2.146   1.267   7.054
12962TIP3   OH238770   0.919   1.932   7.414
12962TIP3    H138771   0.838   1.975   7.388
12962TIP3    H238772   0.895   1.839   7.423
12963TIP3   OH238773   1.958   2.562   6.663
12963TIP3    H138774   1.951   2.655   6.640
12963TIP3    H238775   2.048   2.538   6.640
12964TIP3   OH238776   0.498   2.481   7.922
12964TIP3    H138777   0.568   2.415   7.923
12964TIP3    H238778   0.530   2.549   7.981
12965TIP3   OH238779   5.653   7.638  -0.004
12965TIP3    H138780   5.660   7.542  -0.001
12965TIP3    H238781   5.581   7.659   0.054
12966TIP3   OH238782   4.814   7.304   0.176
12966TIP3    H138783   4.821   7.399   0.167
12966TIP3    H238784   4.721   7.287   0.187
12967TIP3   OH238785   1.260   2.851   7.131
12967TIP3    H138786   1.213   2.830   7.051
12967TIP3    H238787   1.222   2.934   7.160
12968TIP3   OH238788   0.695   2.694   7.497
12968TIP3    H138789   0.728   2.692   7.587
12968TIP3    H238790   0.636   2.619   7.492
12969TIP3   OH238791   1.459   2.790   6.757
12969TIP3    H138792   1.509   2.716   6.722
12969TIP3    H238793   1.495   2.802   6.845
12970TIP3   OH238794   1.513   2.829   7.028
12970TIP3    H138795   1.425   2.833   7.067
12970TIP3    H238796   1.568   2.791   7.096
12971TIP3   OH238797   5.544   6.742   0.183
12971TIP3    H138798   5.499   6.827   0.179
12971TIP3    H238799   5.523   6.700   0.100
12972TIP3   OH238800   4.038   7.132   0.252
12972TIP3    H138801   4.134   7.140   0.255
12972TIP3    H238802   4.011   7.139   0.344
12973TIP3   OH238803   4.925   5.961   0.377
12973TIP3    H138804   4.995   5.912   0.419
12973TIP3    H238805   4.925   6.046   0.422
12974TIP3   OH238806   5.282   6.579   0.211
12974TIP3    H138807   5.272   6.619   0.298
12974TIP3    H238808   5.272   6.653   0.151
12975TIP3   OH238809   1.705   1.935   6.783
12975TIP3    H138810   1.653   1.942   6.703
12975TIP3    H238811   1.785   1.984   6.764
12976TIP3   OH238812   1.373   1.346   7.084
12976TIP3    H138813   1.346   1.362   7.174
12976TIP3    H238814   1.393   1.252   7.081
12977TIP3   OH238815   4.553   6.375   0.052
12977TIP3    H138816   4.517   6.446   0.104
12977TIP3    H238817   4.482   6.352  -0.008
12978TIP3   OH238818   1.130   1.688   7.699
12978TIP3    H138819   1.069   1.624   7.735
12978TIP3    H238820   1.120   1.680   7.604
12979TIP3   OH238821   1.573   1.811   7.364
12979TIP3    H138822   1.520   1.882   7.330
12979TIP3    H238823   1.628   1.784   7.290
12980TIP3   OH238824   5.038   6.715   0.451
12980TIP3    H138825   5.025   6.670   0.535
12980TIP3    H238826   5.122   6.759   0.460
12981TIP3   OH238827   1.716   1.816   7.599
12981TIP3    H138828   1.659   1.840   7.526
12981TIP3    H238829   1.763   1.739   7.567
12982TIP3   OH238830   1.738   2.047   7.982
12982TIP3    H138831   1.776   1.977   7.930
12982TIP3    H238832   1.718   2.006   8.067
12983TIP3   OH238833   1.442   1.551   7.701
12983TIP3    H138834   1.372   1.573   7.762
12983TIP3    H238835   1.522   1.555   7.753
12984TIP3   OH238836   1.101   1.651   7.430
12984TIP3    H138837   1.195   1.644   7.413
12984TIP3    H238838   1.060   1.638   7.345
12985TIP3   OH238839   1.931   1.601   7.897
12985TIP3    H138840   1.930   1.602   7.992
12985TIP3    H238841   1.847   1.563   7.872
12986TIP3   OH238842   0.991   1.630   7.178
12986TIP3    H138843   0.919   1.586   7.134
12986TIP3    H238844   1.041   1.671   7.108
12987TIP3   OH238845   5.355   7.953   0.117
12987TIP3    H138846   5.348   7.974   0.024
12987TIP3    H238847   5.435   7.998   0.146
12988TIP3   OH238848   4.200   7.046   0.743
12988TIP3    H138849   4.274   7.055   0.682
12988TIP3    H238850   4.207   6.956   0.775
12989TIP3   OH238851   1.512   1.889   7.774
12989TIP3    H138852   1.580   1.856   7.715
12989TIP3    H238853   1.525   1.839   7.855
12990TIP3   OH238854   4.817   6.355  -0.004
12990TIP3    H138855   4.726   6.357   0.026
12990TIP3    H238856   4.866   6.328   0.074
12991TIP3   OH238857   1.195   2.148   7.200
12991TIP3    H138858   1.121   2.093   7.174
12991TIP3    H238859   1.166   2.189   7.282
12992TIP3   OH238860   2.096   2.406   7.795
12992TIP3    H138861   2.129   2.455   7.720
12992TIP3    H238862   2.012   2.372   7.766
12993TIP3   OH238863   1.627   1.467   7.108
12993TIP3    H138864   1.533   1.452   7.094
12993TIP3    H238865   1.636   1.562   7.106
12994TIP3   OH238866   4.830   7.040   0.112
12994TIP3    H138867   4.896   7.003   0.170
12994TIP3    H238868   4.814   7.128   0.146
12995TIP3   OH238869   1.727   1.733   7.131
12995TIP3    H138870   1.805   1.721   7.078
12995TIP3    H238871   1.687   1.814   7.097
12996TIP3   OH238872   0.845   2.198   7.791
12996TIP3    H138873   0.902   2.156   7.727
12996TIP3    H238874   0.885   2.179   7.876
12997TIP3   OH238875   1.351   2.309   7.048
12997TIP3    H138876   1.304   2.392   7.043
12997TIP3    H238877   1.293   2.252   7.098
12998TIP3   OH238878   4.812   6.884   0.449
12998TIP3    H138879   4.822   6.812   0.512
12998TIP3    H238880   4.882   6.871   0.386
12999TIP3   OH238881   5.070   7.364  -0.018
12999TIP3    H138882   4.996   7.303  -0.024
12999TIP3    H238883   5.067   7.395   0.073
13000TIP3   OH238884   2.171   1.820   6.990
13000TIP3    H138885   2.095   1.779   6.948
13000TIP3    H238886   2.174   1.907   6.952
13001TIP3   OH238887   5.662   7.370   0.025
13001TIP3    H138888   5.584   7.332   0.064
13001TIP3    H238889   5.678   7.318  -0.054
13002TIP3   OH238890   1.877   2.631   6.926
13002TIP3    H138891   1.844   2.560   6.982
13002TIP3    H238892   1.895   2.589   6.842
13003TIP3   OH238893   1.853   2.288   7.711
13003TIP3    H138894   1.758   2.274   7.717
13003TIP3    H238895   1.887   2.204   7.679
13004TIP3   OH238896   1.002   2.509   7.513
13004TIP3    H138897   1.001   2.584   7.454
13004TIP3    H238898   0.910   2.488   7.527
13005TIP3   OH238899   1.103   2.267   7.424
13005TIP3    H138900   1.078   2.355   7.451
13005TIP3    H238901   1.077   2.211   7.497
13006TIP3   OH238902   1.297   2.810   7.877
13006TIP3    H138903   1.339   2.892   7.851
13006TIP3    H238904   1.306   2.808   7.972
13007TIP3   OH238905   0.931   2.728   7.362
13007TIP3    H138906   0.843   2.732   7.399
13007TIP3    H238907   0.963   2.818   7.367
13008TIP3   OH238908   1.664   2.507   7.880
13008TIP3    H138909   1.619   2.469   7.955
13008TIP3    H238910   1.752   2.469   7.883
13009TIP3   OH238911   1.644   2.371   6.807
13009TIP3    H138912   1.694   2.341   6.883
13009TIP3    H238913   1.560   2.326   6.814
13010TIP3   OH238914   1.893   3.013   7.973
13010TIP3    H138915   1.831   2.940   7.965
13010TIP3    H238916   1.881   3.064   7.893
13011TIP3   OH238917   1.949   2.834   6.616
13011TIP3    H138918   1.958   2.889   6.539
13011TIP3    H238919   1.880   2.876   6.669
13012TIP3   OH238920   1.821   2.279   6.997
13012TIP3    H138921   1.800   2.232   7.078
13012TIP3    H238922   1.916   2.284   6.996
13013TIP3   OH238923   3.885   7.291   0.088
13013TIP3    H138924   3.943   7.229   0.133
13013TIP3    H238925   3.835   7.332   0.158
13014TIP3   OH238926   0.989   2.337   6.826
13014TIP3    H138927   1.002   2.246   6.798
13014TIP3    H238928   0.975   2.331   6.921
13015TIP3   OH238929   0.937   2.353   7.098
13015TIP3    H138930   1.001   2.329   7.166
13015TIP3    H238931   0.934   2.448   7.101
13016TIP3   OH238932   0.697   2.062   7.323
13016TIP3    H138933   0.627   2.109   7.368
13016TIP3    H238934   0.708   2.109   7.240
13017TIP3   OH238935   5.024   6.274   0.190
13017TIP3    H138936   5.117   6.288   0.174
13017TIP3    H238937   5.018   6.252   0.283
13018TIP3   OH238938   1.709   1.410   7.366
13018TIP3    H138939   1.675   1.425   7.278
13018TIP3    H238940   1.740   1.496   7.395
13019TIP3   OH238941   1.207   2.538   7.040
13019TIP3    H138942   1.120   2.561   7.074
13019TIP3    H238943   1.229   2.610   6.981
13020TIP3   OH238944   1.380   1.627   7.443
13020TIP3    H138945   1.445   1.693   7.418
13020TIP3    H238946   1.399   1.609   7.535
13021TIP3   OH238947   4.975   6.548   0.225
13021TIP3    H138948   5.004   6.561   0.315
13021TIP3    H238949   4.996   6.456   0.206
13022TIP3   OH238950   1.525   1.321   7.554
13022TIP3    H138951   1.499   1.394   7.609
13022TIP3    H238952   1.590   1.358   7.494
13023TIP3   OH238953   0.955   2.624   7.111
13023TIP3    H138954   0.934   2.695   7.050
13023TIP3    H238955   0.944   2.663   7.198
13024TIP3   OH238956   5.594   6.442   0.128
13024TIP3    H138957   5.545   6.490   0.195
13024TIP3    H238958   5.572   6.350   0.144
13025TIP3   OH238959   1.933   2.036   7.624
13025TIP3    H138960   1.859   1.979   7.644
13025TIP3    H238961   2.010   1.989   7.657
13026TIP3   OH238962   0.696   2.218   7.091
13026TIP3    H138963   0.765   2.284   7.099
13026TIP3    H238964   0.729   2.157   7.025
13027TIP3   OH238965   1.929   2.980   7.543
13027TIP3    H138966   1.884   3.034   7.478
13027TIP3    H238967   2.022   2.994   7.526
13028TIP3   OH238968   0.498   2.503   7.476
13028TIP3    H138969   0.451   2.542   7.549
13028TIP3    H238970   0.451   2.533   7.398
13029TIP3   OH238971   3.979   7.587   0.563
13029TIP3    H138972   4.055   7.565   0.617
13029TIP3    H238973   3.905   7.583   0.623
13030TIP3   OH238974   4.525   7.597   0.372
13030TIP3    H138975   4.578   7.528   0.412
13030TIP3    H238976   4.436   7.577   0.400
13031TIP3   OH238977   1.145   2.536   6.718
13031TIP3    H138978   1.096   2.466   6.761
13031TIP3    H238979   1.219   2.491   6.676
13032TIP3   OH238980   5.072   7.462   0.233
13032TIP3    H138981   5.032   7.432   0.314
13032TIP3    H238982   5.101   7.552   0.253
13033TIP3   OH238983   1.585   2.578   6.638
13033TIP3    H138984   1.621   2.513   6.699
13033TIP3    H238985   1.641   2.572   6.561
13034TIP3   OH238986   0.820   2.033   6.935
13034TIP3    H138987   0.871   2.007   7.011
13034TIP3    H238988   0.885   2.046   6.866
13035TIP3   OH238989   4.784   7.156   0.447
13035TIP3    H138990   4.715   7.152   0.381
13035TIP3    H238991   4.820   7.067   0.450
13036TIP3   OH238992   1.395   2.249   6.783
13036TIP3    H138993   1.369   2.260   6.874
13036TIP3    H238994   1.374   2.158   6.763
13037TIP3   OH238995   5.178   7.066   0.034
13037TIP3    H138996   5.221   7.146   0.002
13037TIP3    H238997   5.128   7.096   0.110
13038TIP3   OH238998   0.995   1.968   7.142
13038TIP3    H138999   0.977   1.942   7.233
13038TIP3    H239000   1.038   1.892   7.104
13039TIP3   OH239001   4.546   6.622   0.480
13039TIP3    H139002   4.462   6.651   0.446
13039TIP3    H239003   4.599   6.604   0.402
13040TIP3   OH239004   1.124   1.774   6.985
13040TIP3    H139005   1.095   1.784   6.895
13040TIP3    H239006   1.219   1.784   6.981
13041TIP3   OH239007   5.074   7.097   0.524
13041TIP3    H139008   5.094   7.098   0.430
13041TIP3    H239009   5.113   7.015   0.556
13042TIP3   OH239010   1.922   2.067   6.674
13042TIP3    H139011   1.906   2.029   6.587
13042TIP3    H239012   1.901   2.159   6.664
13043TIP3   OH239013   4.659   6.401   0.584
13043TIP3    H139014   4.608   6.322   0.562
13043TIP3    H239015   4.610   6.473   0.544
13044TIP3   OH239016   4.743   6.782   0.088
13044TIP3    H139017   4.745   6.747  -0.001
13044TIP3    H239018   4.743   6.878   0.076
13045TIP3   OH239019   5.301   6.628   0.492
13045TIP3    H139020   5.230   6.600   0.551
13045TIP3    H239021   5.351   6.691   0.544
13046TIP3   OH239022   5.420   6.987   0.158
13046TIP3    H139023   5.355   7.029   0.101
13046TIP3    H239024   5.499   7.041   0.148
13047TIP3   OH239025   4.888   6.415   0.722
13047TIP3    H139026   4.859   6.422   0.813
13047TIP3    H239027   4.807   6.401   0.672
13048TIP3   OH239028   5.096   6.425   0.459
13048TIP3    H139029   5.098   6.393   0.549
13048TIP3    H239030   5.187   6.422   0.430
13049TIP3   OH239031   5.448   6.381   0.739
13049TIP3    H139032   5.480   6.293   0.760
13049TIP3    H239033   5.458   6.431   0.820
13050TIP3   OH239034   0.949   2.834   6.931
13050TIP3    H139035   1.038   2.815   6.901
13050TIP3    H239036   0.909   2.880   6.858
13051TIP3   OH239037   0.426   2.182   7.074
13051TIP3    H139038   0.517   2.211   7.086
13051TIP3    H239039   0.411   2.120   7.145
13052TIP3   OH239040   0.274   2.794   7.518
13052TIP3    H139041   0.181   2.770   7.510
13052TIP3    H239042   0.308   2.736   7.586
13053TIP3   OH239043   0.415   2.639   7.708
13053TIP3    H139044   0.420   2.571   7.774
13053TIP3    H239045   0.467   2.711   7.744
13054TIP3   OH239046   2.198   3.032   7.526
13054TIP3    H139047   2.209   3.062   7.617
13054TIP3    H239048   2.258   3.086   7.475
13055TIP3   OH239049   2.197   3.070   7.799
13055TIP3    H139050   2.153   2.985   7.806
13055TIP3    H239051   2.273   3.062   7.856
13056TIP3   OH239052   5.541   7.391   0.315
13056TIP3    H139053   5.519   7.404   0.407
13056TIP3    H239054   5.574   7.476   0.285
13057TIP3   OH239055   2.104   2.268   7.014
13057TIP3    H139056   2.155   2.343   6.984
13057TIP3    H239057   2.156   2.231   7.086
13058TIP3   OH239058   2.244   2.107   7.221
13058TIP3    H139059   2.166   2.108   7.277
13058TIP3    H239060   2.307   2.162   7.267
13059TIP3   OH239061   2.265   2.547   7.632
13059TIP3    H139062   2.321   2.481   7.590
13059TIP3    H239063   2.271   2.623   7.574
13060TIP3   OH239064   2.064   2.826   7.827
13060TIP3    H139065   1.993   2.854   7.885
13060TIP3    H239066   2.020   2.783   7.754
13061TIP3   OH239067   2.138   2.054   6.845
13061TIP3    H139068   2.065   2.053   6.783
13061TIP3    H239069   2.121   2.129   6.901
13062TIP3   OH239070   1.963   1.715   6.845
13062TIP3    H139071   1.932   1.761   6.767
13062TIP3    H239072   1.959   1.623   6.821
13063TIP3   OH239073   2.011   2.045   7.362
13063TIP3    H139074   2.011   1.950   7.360
13063TIP3    H239075   1.986   2.068   7.451
13064TIP3   OH239076   5.666   7.103   0.134
13064TIP3    H139077   5.713   7.023   0.157
13064TIP3    H239078   5.690   7.120   0.043
13065TIP3   OH239079   5.784   6.878   0.219
13065TIP3    H139080   5.711   6.824   0.250
13065TIP3    H239081   5.858   6.818   0.214
13066TIP3   OH239082   1.946   1.448   6.795
13066TIP3    H139083   2.010   1.401   6.849
13066TIP3    H239084   1.863   1.403   6.810
13067TIP3   OH239085   2.156   1.894   7.700
13067TIP3    H139086   2.242   1.913   7.662
13067TIP3    H239087   2.164   1.923   7.791
13068TIP3   OH239088   2.206   2.047   7.928
13068TIP3    H139089   2.120   2.080   7.953
13068TIP3    H239090   2.251   2.122   7.889
13069TIP3   OH239091   6.008   6.283   0.546
13069TIP3    H139092   6.014   6.191   0.521
13069TIP3    H239093   6.017   6.331   0.464
13070TIP3   OH239094   5.859   6.475   0.149
13070TIP3    H139095   5.764   6.466   0.147
13070TIP3    H239096   5.890   6.394   0.188
13071TIP3   OH239097   2.201   1.389   6.935
13071TIP3    H139098   2.231   1.326   6.869
13071TIP3    H239099   2.245   1.471   6.911
13072TIP3   OH239100   1.766   2.950   7.193
13072TIP3    H139101   1.819   2.938   7.114
13072TIP3    H239102   1.804   3.026   7.236
13073TIP3   OH239103   4.164   7.260   0.540
13073TIP3    H139104   4.082   7.302   0.566
13073TIP3    H239105   4.171   7.184   0.599
13074TIP3   OH239106   4.290   7.394   0.067
13074TIP3    H139107   4.258   7.473   0.024
13074TIP3    H239108   4.385   7.406   0.073
13075TIP3   OH239109   4.776   7.576   0.181
13075TIP3    H139110   4.787   7.599   0.273
13075TIP3    H239111   4.828   7.641   0.133
13076TIP3   OH239112   4.940   7.788   0.108
13076TIP3    H139113   4.987   7.747   0.035
13076TIP3    H239114   5.008   7.837   0.155
13077TIP3   OH239115   5.773   6.133   0.051
13077TIP3    H139116   5.689   6.158   0.088
13077TIP3    H239117   5.784   6.041   0.077
13078TIP3   OH239118   3.964   7.648   0.045
13078TIP3    H139119   3.882   7.660  -0.004
13078TIP3    H239120   3.944   7.677   0.134
13079TIP3   OH239121   0.957   3.017   7.968
13079TIP3    H139122   0.869   3.024   8.004
13079TIP3    H239123   0.948   3.047   7.877
13080TIP3   OH239124   1.381   3.056   7.781
13080TIP3    H139125   1.305   3.061   7.723
13080TIP3    H239126   1.385   3.142   7.822
13081TIP3   OH239127   1.636   2.984   7.847
13081TIP3    H139128   1.546   3.004   7.821
13081TIP3    H239129   1.689   3.044   7.795
13082TIP3   OH239130   1.839   3.148   7.741
13082TIP3    H139131   1.838   3.235   7.702
13082TIP3    H239132   1.868   3.090   7.671
13083TIP3   OH239133   0.596   2.807   7.842
13083TIP3    H139134   0.598   2.778   7.933
13083TIP3    H239135   0.678   2.774   7.805
13084TIP3   OH239136   0.824   2.700   7.741
13084TIP3    H139137   0.842   2.618   7.787
13084TIP3    H239138   0.909   2.743   7.732
13085TIP3   OH239139   1.089   2.779   7.709
13085TIP3    H139140   1.108   2.695   7.668
13085TIP3    H239141   1.157   2.788   7.776
13086TIP3   OH239142   1.702   1.481   7.794
13086TIP3    H139143   1.680   1.447   7.881
13086TIP3    H239144   1.749   1.409   7.752
13087TIP3   OH239145   2.136   1.362   7.679
13087TIP3    H139146   2.163   1.434   7.737
13087TIP3    H239147   2.042   1.353   7.695
13088TIP3   OH239148   2.398   1.550   7.468
13088TIP3    H139149   2.410   1.456   7.461
13088TIP3    H239150   2.414   1.570   7.560
13089TIP3   OH239151   1.866   1.283   7.680
13089TIP3    H139152   1.851   1.258   7.589
13089TIP3    H239153   1.846   1.204   7.731
13090TIP3   OH239154   1.932   1.258   7.287
13090TIP3    H139155   1.852   1.306   7.308
13090TIP3    H239156   1.918   1.170   7.324
13091TIP3   OH239157   0.368   2.585   7.239
13091TIP3    H139158   0.289   2.556   7.194
13091TIP3    H239159   0.376   2.677   7.218
13092TIP3   OH239160   1.339   1.372   7.349
13092TIP3    H139161   1.381   1.326   7.422
13092TIP3    H239162   1.339   1.464   7.376
13093TIP3   OH239163   1.205   2.759   6.862
13093TIP3    H139164   1.288   2.787   6.823
13093TIP3    H239165   1.175   2.688   6.805
13094TIP3   OH239166   1.911   2.900   6.961
13094TIP3    H139167   1.904   2.804   6.954
13094TIP3    H239168   1.866   2.933   6.884
13095TIP3   OH239169   0.500   2.603   6.907
13095TIP3    H139170   0.491   2.603   7.002
13095TIP3    H239171   0.579   2.552   6.890
13096TIP3   OH239172   5.518   6.114   0.756
13096TIP3    H139173   5.507   6.021   0.741
13096TIP3    H239174   5.602   6.135   0.717
13097TIP3   OH239175   5.399   7.683   0.100
13097TIP3    H139176   5.322   7.646   0.057
13097TIP3    H239177   5.383   7.777   0.102
13098TIP3   OH239178   3.398   2.427   6.890
13098TIP3    H139179   3.367   2.513   6.863
13098TIP3    H239180   3.329   2.367   6.862
13099TIP3   OH239181   3.397   2.419   7.313
13099TIP3    H139182   3.450   2.402   7.391
13099TIP3    H239183   3.354   2.336   7.294
13100TIP3   OH239184   2.694   2.266   7.651
13100TIP3    H139185   2.731   2.222   7.728
13100TIP3    H239186   2.770   2.300   7.605
13101TIP3   OH239187   3.685   2.721   6.988
13101TIP3    H139188   3.662   2.658   7.056
13101TIP3    H239189   3.696   2.804   7.034
13102TIP3   OH239190   2.691   2.701   7.339
13102TIP3    H139191   2.672   2.608   7.347
13102TIP3    H239192   2.786   2.707   7.331
13103TIP3   OH239193   2.298   1.826   7.236
13103TIP3    H139194   2.301   1.920   7.253
13103TIP3    H239195   2.251   1.818   7.152
13104TIP3   OH239196   2.461   2.232   7.343
13104TIP3    H139197   2.513   2.155   7.366
13104TIP3    H239198   2.526   2.300   7.326
13105TIP3   OH239199   3.327   3.154   7.000
13105TIP3    H139200   3.352   3.091   6.932
13105TIP3    H239201   3.332   3.104   7.081
13106TIP3   OH239202   3.208   2.639   7.316
13106TIP3    H139203   3.255   2.560   7.290
13106TIP3    H239204   3.277   2.698   7.348
13107TIP3   OH239205   4.219   1.936   7.339
13107TIP3    H139206   4.242   2.015   7.389
13107TIP3    H239207   4.282   1.936   7.266
13108TIP3   OH239208   3.609   2.130   7.351
13108TIP3    H139209   3.645   2.046   7.379
13108TIP3    H239210   3.572   2.113   7.264
13109TIP3   OH239211   2.969   1.782   7.317
13109TIP3    H139212   2.949   1.854   7.257
13109TIP3    H239213   2.921   1.707   7.281
13110TIP3   OH239214   3.666   1.889   6.950
13110TIP3    H139215   3.730   1.887   7.021
13110TIP3    H239216   3.715   1.921   6.874
13111TIP3   OH239217   2.594   2.001   7.417
13111TIP3    H139218   2.677   1.986   7.462
13111TIP3    H239219   2.597   1.941   7.342
13112TIP3   OH239220   3.012   2.200   7.257
13112TIP3    H139221   3.107   2.189   7.262
13112TIP3    H239222   2.979   2.116   7.225
13113TIP3   OH239223   4.255   2.162   7.495
13113TIP3    H139224   4.181   2.223   7.489
13113TIP3    H239225   4.318   2.207   7.551
13114TIP3   OH239226   2.953   1.786   7.744
13114TIP3    H139227   2.896   1.825   7.677
13114TIP3    H239228   2.905   1.798   7.826
13115TIP3   OH239229   3.298   2.645   6.753
13115TIP3    H139230   3.258   2.616   6.671
13115TIP3    H239231   3.246   2.722   6.779
13116TIP3   OH239232   3.044   2.565   7.527
13116TIP3    H139233   2.991   2.637   7.561
13116TIP3    H239234   3.093   2.603   7.454
13117TIP3   OH239235   3.825   1.924   7.168
13117TIP3    H139236   3.786   1.901   7.253
13117TIP3    H239237   3.885   1.996   7.189
13118TIP3   OH239238   2.830   1.901   7.524
13118TIP3    H139239   2.884   1.976   7.552
13118TIP3    H239240   2.883   1.856   7.459
13119TIP3   OH239241   2.890   2.771   7.628
13119TIP3    H139242   2.879   2.862   7.600
13119TIP3    H239243   2.809   2.751   7.675
13120TIP3   OH239244   2.262   2.469   6.893
13120TIP3    H139245   2.226   2.485   6.806
13120TIP3    H239246   2.282   2.556   6.928
13121TIP3   OH239247   3.701   2.970   7.124
13121TIP3    H139248   3.614   2.964   7.164
13121TIP3    H239249   3.700   3.054   7.077
13122TIP3   OH239250   4.041   1.821   7.510
13122TIP3    H139251   3.958   1.861   7.486
13122TIP3    H239252   4.103   1.851   7.443
13123TIP3   OH239253   3.292   1.486   7.484
13123TIP3    H139254   3.286   1.393   7.506
13123TIP3    H239255   3.214   1.525   7.524
13124TIP3   OH239256   3.412   3.005   6.781
13124TIP3    H139257   3.466   2.926   6.772
13124TIP3    H239258   3.469   3.076   6.753
13125TIP3   OH239259   3.557   2.778   6.748
13125TIP3    H139260   3.491   2.710   6.738
13125TIP3    H239261   3.609   2.751   6.823
13126TIP3   OH239262   3.933   2.862   7.468
13126TIP3    H139263   3.916   2.787   7.410
13126TIP3    H239264   3.918   2.939   7.412
13127TIP3   OH239265   3.227   2.263   6.741
13127TIP3    H139266   3.144   2.308   6.722
13127TIP3    H239267   3.273   2.261   6.657
13128TIP3   OH239268   3.197   2.068   6.430
13128TIP3    H139269   3.263   2.119   6.478
13128TIP3    H239270   3.247   2.003   6.382
13129TIP3   OH239271   4.123   2.534   7.334
13129TIP3    H139272   4.039   2.579   7.326
13129TIP3    H239273   4.161   2.538   7.247
13130TIP3   OH239274   3.580   2.359   6.698
13130TIP3    H139275   3.526   2.387   6.772
13130TIP3    H239276   3.661   2.325   6.738
13131TIP3   OH239277   3.810   2.387   7.645
13131TIP3    H139278   3.807   2.469   7.693
13131TIP3    H239279   3.726   2.382   7.600
13132TIP3   OH239280   2.812   2.330   7.105
13132TIP3    H139281   2.779   2.269   7.039
13132TIP3    H239282   2.887   2.285   7.144
13133TIP3   OH239283   2.953   2.753   7.247
13133TIP3    H139284   2.931   2.742   7.154
13133TIP3    H239285   3.041   2.716   7.254
13134TIP3   OH239286   2.909   2.332   7.479
13134TIP3    H139287   2.950   2.297   7.400
13134TIP3    H239288   2.958   2.412   7.497
13135TIP3   OH239289   3.465   2.967   7.259
13135TIP3    H139290   3.451   3.048   7.307
13135TIP3    H239291   3.449   2.897   7.323
13136TIP3   OH239292   3.088   2.861   7.802
13136TIP3    H139293   3.028   2.920   7.848
13136TIP3    H239294   3.032   2.810   7.743
13137TIP3   OH239295   3.415   2.213   6.533
13137TIP3    H139296   3.473   2.273   6.580
13137TIP3    H239297   3.444   2.218   6.442
13138TIP3   OH239298   2.850   2.435   7.893
13138TIP3    H139299   2.852   2.526   7.925
13138TIP3    H239300   2.757   2.410   7.900
13139TIP3   OH239301   3.163   2.887   6.790
13139TIP3    H139302   3.246   2.934   6.794
13139TIP3    H239303   3.104   2.945   6.741
13140TIP3   OH239304   2.886   3.027   7.884
13140TIP3    H139305   2.860   3.039   7.793
13140TIP3    H239306   2.804   3.011   7.931
13141TIP3   OH239307   3.926   1.443   6.594
13141TIP3    H139308   3.850   1.465   6.648
13141TIP3    H239309   3.937   1.519   6.536
13142TIP3   OH239310   2.690   2.171   6.901
13142TIP3    H139311   2.616   2.227   6.876
13142TIP3    H239312   2.658   2.082   6.888
13143TIP3   OH239313   3.755   2.819   6.149
13143TIP3    H139314   3.750   2.912   6.126
13143TIP3    H239315   3.845   2.794   6.128
13144TIP3   OH239316   2.466   2.579   7.828
13144TIP3    H139317   2.400   2.564   7.761
13144TIP3    H239318   2.510   2.495   7.838
13145TIP3   OH239319   2.316   2.782   7.492
13145TIP3    H139320   2.405   2.809   7.513
13145TIP3    H239321   2.262   2.858   7.512
13146TIP3   OH239322   4.163   3.215   7.542
13146TIP3    H139323   4.167   3.121   7.560
13146TIP3    H239324   4.084   3.244   7.588
13147TIP3   OH239325   3.274   3.011   7.666
13147TIP3    H139326   3.265   3.101   7.696
13147TIP3    H239327   3.207   2.963   7.714
13148TIP3   OH239328   3.055   3.105   6.620
13148TIP3    H139329   3.012   3.085   6.537
13148TIP3    H239330   3.016   3.188   6.648
13149TIP3   OH239331   2.488   2.963   6.996
13149TIP3    H139332   2.532   2.954   7.080
13149TIP3    H239333   2.438   2.882   6.986
13150TIP3   OH239334   3.255   3.044   6.245
13150TIP3    H139335   3.305   2.970   6.209
13150TIP3    H239336   3.291   3.057   6.332
13151TIP3   OH239337   3.309   3.085   6.515
13151TIP3    H139338   3.223   3.087   6.557
13151TIP3    H239339   3.367   3.048   6.581
13152TIP3   OH239340   4.047   2.356   7.820
13152TIP3    H139341   3.968   2.360   7.767
13152TIP3    H239342   4.072   2.263   7.820
13153TIP3   OH239343   2.662   2.777   7.788
13153TIP3    H139344   2.718   2.769   7.865
13153TIP3    H239345   2.594   2.710   7.801
13154TIP3   OH239346   3.050   1.574   7.600
13154TIP3    H139347   2.966   1.546   7.563
13154TIP3    H239348   3.030   1.654   7.648
13155TIP3   OH239349   3.595   1.707   7.806
13155TIP3    H139350   3.660   1.678   7.870
13155TIP3    H239351   3.511   1.682   7.845
13156TIP3   OH239352   3.826   2.114   7.705
13156TIP3    H139353   3.787   2.110   7.792
13156TIP3    H239354   3.813   2.205   7.677
13157TIP3   OH239355   3.497   2.200   6.272
13157TIP3    H139356   3.448   2.203   6.190
13157TIP3    H239357   3.580   2.243   6.252
13158TIP3   OH239358   3.203   1.613   6.593
13158TIP3    H139359   3.166   1.620   6.680
13158TIP3    H239360   3.168   1.531   6.558
13159TIP3   OH239361   2.986   2.107   7.622
13159TIP3    H139362   2.945   2.115   7.707
13159TIP3    H239363   2.965   2.189   7.577
13160TIP3   OH239364   2.872   1.980   7.155
13160TIP3    H139365   2.779   1.968   7.174
13160TIP3    H239366   2.881   1.951   7.064
13161TIP3   OH239367   3.347   2.056   6.876
13161TIP3    H139368   3.302   2.130   6.836
13161TIP3    H239369   3.407   2.025   6.808
13162TIP3   OH239370   3.559   2.358   7.932
13162TIP3    H139371   3.526   2.283   7.981
13162TIP3    H239372   3.652   2.363   7.954
13163TIP3   OH239373   3.514   2.072   7.101
13163TIP3    H139374   3.447   2.091   7.036
13163TIP3    H239375   3.564   2.000   7.063
13164TIP3   OH239376   2.832   2.116   7.849
13164TIP3    H139377   2.874   2.173   7.914
13164TIP3    H239378   2.820   2.033   7.895
13165TIP3   OH239379   2.873   1.596   6.566
13165TIP3    H139380   2.863   1.605   6.661
13165TIP3    H239381   2.794   1.637   6.530
13166TIP3   OH239382   2.351   1.625   6.920
13166TIP3    H139383   2.393   1.653   6.839
13166TIP3    H239384   2.289   1.695   6.940
13167TIP3   OH239385   3.560   2.330   7.527
13167TIP3    H139386   3.585   2.264   7.463
13167TIP3    H239387   3.516   2.281   7.597
13168TIP3   OH239388   3.236   1.774   7.201
13168TIP3    H139389   3.161   1.774   7.261
13168TIP3    H239390   3.313   1.764   7.259
13169TIP3   OH239391   2.625   1.828   7.202
13169TIP3    H139392   2.581   1.829   7.116
13169TIP3    H239393   2.683   1.753   7.199
13170TIP3   OH239394   2.879   1.863   6.906
13170TIP3    H139395   2.974   1.873   6.899
13170TIP3    H239396   2.847   1.881   6.818
13171TIP3   OH239397   3.680   1.866   7.402
13171TIP3    H139398   3.660   1.883   7.493
13171TIP3    H239399   3.615   1.801   7.374
13172TIP3   OH239400   2.771   1.887   6.656
13172TIP3    H139401   2.709   1.837   6.602
13172TIP3    H239402   2.826   1.933   6.593
13173TIP3   OH239403   3.881   3.567   7.627
13173TIP3    H139404   3.877   3.583   7.533
13173TIP3    H239405   3.960   3.613   7.657
13174TIP3   OH239406   6.108   7.315   0.002
13174TIP3    H139407   6.188   7.329   0.053
13174TIP3    H239408   6.037   7.322   0.066
13175TIP3   OH239409   3.284   2.151   7.302
13175TIP3    H139410   3.353   2.103   7.254
13175TIP3    H239411   3.283   2.110   7.388
13176TIP3   OH239412   2.785   1.604   7.187
13176TIP3    H139413   2.755   1.527   7.235
13176TIP3    H239414   2.820   1.570   7.105
13177TIP3   OH239415   3.253   2.054   7.563
13177TIP3    H139416   3.166   2.086   7.588
13177TIP3    H239417   3.314   2.104   7.618
13178TIP3   OH239418   2.989   2.398   6.687
13178TIP3    H139419   2.913   2.347   6.659
13178TIP3    H239420   2.961   2.441   6.768
13179TIP3   OH239421   3.880   2.660   7.287
13179TIP3    H139422   3.914   2.708   7.211
13179TIP3    H239423   3.801   2.618   7.255
13180TIP3   OH239424   3.456   1.716   6.598
13180TIP3    H139425   3.363   1.695   6.592
13180TIP3    H239426   3.459   1.812   6.606
13181TIP3   OH239427   3.400   2.743   7.708
13181TIP3    H139428   3.454   2.734   7.786
13181TIP3    H239429   3.362   2.830   7.715
13182TIP3   OH239430   3.513   1.984   6.662
13182TIP3    H139431   3.609   1.986   6.669
13182TIP3    H239432   3.491   2.060   6.608
13183TIP3   OH239433   2.679   2.412   7.333
13183TIP3    H139434   2.718   2.395   7.247
13183TIP3    H239435   2.746   2.385   7.396
13184TIP3   OH239436   3.143   2.561   6.532
13184TIP3    H139437   3.095   2.644   6.527
13184TIP3    H239438   3.087   2.504   6.584
13185TIP3   OH239439   2.581   2.352   7.942
13185TIP3    H139440   2.606   2.328   8.031
13185TIP3    H239441   2.509   2.294   7.920
13186TIP3   OH239442   3.314   2.485   7.983
13186TIP3    H139443   3.250   2.426   7.945
13186TIP3    H239444   3.398   2.454   7.948
13187TIP3   OH239445   3.543   3.032   7.590
13187TIP3    H139446   3.449   3.019   7.594
13187TIP3    H239447   3.566   3.071   7.674
13188TIP3   OH239448   3.933   2.081   6.485
13188TIP3    H139449   3.877   2.033   6.425
13188TIP3    H239450   3.941   2.168   6.445
13189TIP3   OH239451   4.178   2.933   7.566
13189TIP3    H139452   4.084   2.922   7.556
13189TIP3    H239453   4.215   2.911   7.481
13190TIP3   OH239454   3.670   2.887   6.411
13190TIP3    H139455   3.640   2.813   6.465
13190TIP3    H239456   3.692   2.847   6.326
13191TIP3   OH239457   3.650   2.523   7.189
13191TIP3    H139458   3.560   2.502   7.215
13191TIP3    H239459   3.682   2.442   7.149
13192TIP3   OH239460   2.810   2.761   7.004
13192TIP3    H139461   2.808   2.836   6.945
13192TIP3    H239462   2.720   2.756   7.038
13193TIP3   OH239463   2.383   2.049   6.718
13193TIP3    H139464   2.420   2.135   6.738
13193TIP3    H239465   2.298   2.048   6.761
13194TIP3   OH239466   2.886   2.514   6.908
13194TIP3    H139467   2.871   2.604   6.937
13194TIP3    H239468   2.860   2.460   6.983
13195TIP3   OH239469   3.093   3.082   7.457
13195TIP3    H139470   3.127   3.156   7.408
13195TIP3    H239471   3.168   3.050   7.508
13196TIP3   OH239472   2.724   2.982   6.854
13196TIP3    H139473   2.637   2.989   6.892
13196TIP3    H239474   2.760   3.071   6.859
13197TIP3   OH239475   3.438   2.747   7.434
13197TIP3    H139476   3.424   2.744   7.529
13197TIP3    H239477   3.518   2.697   7.419
13198TIP3   OH239478   3.439   2.628   6.298
13198TIP3    H139479   3.486   2.603   6.377
13198TIP3    H239480   3.356   2.580   6.303
13199TIP3   OH239481   3.696   3.241   7.470
13199TIP3    H139482   3.625   3.179   7.489
13199TIP3    H239483   3.662   3.294   7.398
13200TIP3   OH239484   3.748   3.091   6.104
13200TIP3    H139485   3.765   3.149   6.030
13200TIP3    H239486   3.678   3.135   6.153
13201TIP3   OH239487   2.808   1.860   7.964
13201TIP3    H139488   2.715   1.840   7.970
13201TIP3    H239489   2.849   1.806   8.031
13202TIP3   OH239490   3.607   2.553   6.500
13202TIP3    H139491   3.592   2.493   6.573
13202TIP3    H239492   3.703   2.556   6.492
13203TIP3   OH239493   2.519   2.978   7.619
13203TIP3    H139494   2.573   2.919   7.672
13203TIP3    H239495   2.533   3.065   7.657
13204TIP3   OH239496   2.787   2.588   6.316
13204TIP3    H139497   2.797   2.497   6.289
13204TIP3    H239498   2.773   2.583   6.410
13205TIP3   OH239499   2.728   2.606   6.588
13205TIP3    H139500   2.793   2.583   6.655
13205TIP3    H239501   2.724   2.702   6.590
13206TIP3   OH239502   2.466   2.302   6.800
13206TIP3    H139503   2.400   2.349   6.851
13206TIP3    H239504   2.484   2.359   6.726
13207TIP3   OH239505   3.619   1.934   7.659
13207TIP3    H139506   3.701   1.977   7.685
13207TIP3    H239507   3.613   1.857   7.716
13208TIP3   OH239508   3.517   1.670   6.865
13208TIP3    H139509   3.497   1.687   6.773
13208TIP3    H239510   3.561   1.749   6.896
13209TIP3   OH239511   2.996   2.789   6.524
13209TIP3    H139512   2.911   2.815   6.561
13209TIP3    H239513   3.021   2.862   6.468
13210TIP3   OH239514   3.157   1.871   6.953
13210TIP3    H139515   3.220   1.937   6.924
13210TIP3    H239516   3.186   1.849   7.042
13211TIP3   OH239517   3.461   2.157   7.718
13211TIP3    H139518   3.491   2.191   7.802
13211TIP3    H239519   3.510   2.076   7.705
13212TIP3   OH239520   3.328   1.563   7.035
13212TIP3    H139521   3.307   1.639   7.089
13212TIP3    H239522   3.400   1.592   6.979
13213TIP3   OH239523   2.746   2.879   6.601
13213TIP3    H139524   2.728   2.951   6.541
13213TIP3    H239525   2.737   2.917   6.688
13214TIP3   OH239526   2.842   1.590   6.848
13214TIP3    H139527   2.832   1.682   6.873
13214TIP3    H239528   2.936   1.574   6.852
13215TIP3   OH239529   4.097   2.095   7.729
13215TIP3    H139530   4.003   2.080   7.720
13215TIP3    H239531   4.131   2.084   7.640
13216TIP3   OH239532   3.741   2.266   7.095
13216TIP3    H139533   3.667   2.208   7.113
13216TIP3    H239534   3.813   2.230   7.147
13217TIP3   OH239535   2.485   2.471   6.580
13217TIP3    H139536   2.555   2.535   6.587
13217TIP3    H239537   2.515   2.410   6.513
13218TIP3   OH239538   2.405   1.773   6.697
13218TIP3    H139539   2.414   1.867   6.710
13218TIP3    H239540   2.359   1.764   6.613
13219TIP3   OH239541   3.720   3.236   7.039
13219TIP3    H139542   3.678   3.290   6.972
13219TIP3    H239543   3.814   3.252   7.027
13220TIP3   OH239544   2.785   1.502   7.550
13220TIP3    H139545   2.758   1.462   7.468
13220TIP3    H239546   2.782   1.431   7.614
13221TIP3   OH239547   2.309   2.741   6.971
13221TIP3    H139548   2.268   2.779   7.049
13221TIP3    H239549   2.266   2.784   6.897
13222TIP3   OH239550   5.780   7.895   0.019
13222TIP3    H139551   5.860   7.885   0.069
13222TIP3    H239552   5.748   7.806   0.007
13223TIP3   OH239553   6.257   7.806   0.080
13223TIP3    H139554   6.350   7.781   0.086
13223TIP3    H239555   6.224   7.754   0.007
13224TIP3   OH239556   2.938   2.792   6.205
13224TIP3    H139557   2.891   2.721   6.250
13224TIP3    H239558   3.012   2.749   6.163
13225TIP3   OH239559   3.599   3.134   7.838
13225TIP3    H139560   3.614   3.062   7.899
13225TIP3    H239561   3.674   3.193   7.851
13226TIP3   OH239562   3.381   2.833   6.126
13226TIP3    H139563   3.417   2.769   6.187
13226TIP3    H239564   3.437   2.827   6.049
13227TIP3   OH239565   5.893   7.309   0.176
13227TIP3    H139566   5.916   7.216   0.171
13227TIP3    H239567   5.807   7.314   0.135
13228TIP3   OH239568   2.604   2.282   6.424
13228TIP3    H139569   2.657   2.259   6.500
13228TIP3    H239570   2.669   2.296   6.354
13229TIP3   OH239571   3.250   2.761   8.001
13229TIP3    H139572   3.203   2.781   7.920
13229TIP3    H239573   3.284   2.672   7.987
13230TIP3   OH239574   3.192   2.502   6.268
13230TIP3    H139575   3.166   2.512   6.360
13230TIP3    H239576   3.171   2.410   6.248
13231TIP3   OH239577   3.711   2.808   7.623
13231TIP3    H139578   3.789   2.834   7.574
13231TIP3    H239579   3.648   2.878   7.608
13232TIP3   OH239580   6.011   7.063   0.175
13232TIP3    H139581   6.097   7.023   0.168
13232TIP3    H239582   5.981   7.041   0.264
13233TIP3   OH239583   2.780   2.225   6.633
13233TIP3    H139584   2.765   2.194   6.722
13233TIP3    H239585   2.831   2.155   6.592
13234TIP3   OH239586   3.079   2.290   7.864
13234TIP3    H139587   3.003   2.347   7.874
13234TIP3    H239588   3.128   2.328   7.791
13235TIP3   OH239589   2.925   2.039   6.486
13235TIP3    H139590   2.895   2.043   6.395
13235TIP3    H239591   3.020   2.046   6.480
13236TIP3   OH239592   3.599   2.679   7.971
13236TIP3    H139593   3.665   2.641   7.912
13236TIP3    H239594   3.594   2.617   8.044
13237TIP3   OH239595   3.719   2.322   6.159
13237TIP3    H139596   3.704   2.284   6.073
13237TIP3    H239597   3.698   2.415   6.149
13238TIP3   OH239598   3.206   2.068   7.958
13238TIP3    H139599   3.207   1.993   7.898
13238TIP3    H239600   3.159   2.136   7.910
13239TIP3   OH239601   3.212   1.864   7.768
13239TIP3    H139602   3.236   1.909   7.687
13239TIP3    H239603   3.120   1.841   7.756
13240TIP3   OH239604   3.223   2.413   7.672
13240TIP3    H139605   3.310   2.451   7.657
13240TIP3    H239606   3.164   2.469   7.622
13241TIP3   OH239607   7.087   6.981   0.040
13241TIP3    H139608   7.124   6.892   0.040
13241TIP3    H239609   7.161   7.038   0.020
13242TIP3   OH239610   3.835   2.629   7.785
13242TIP3    H139611   3.782   2.692   7.736
13242TIP3    H239612   3.924   2.642   7.753
13243TIP3   OH239613   6.409   6.851   0.178
13243TIP3    H139614   6.318   6.846   0.209
13243TIP3    H239615   6.410   6.797   0.099
13244TIP3   OH239616   3.332   1.633   7.854
13244TIP3    H139617   3.290   1.713   7.822
13244TIP3    H239618   3.264   1.566   7.848
13245TIP3   OH239619   6.724   6.754   0.041
13245TIP3    H139620   6.714   6.746   0.136
13245TIP3    H239621   6.639   6.726   0.006
13246TIP3   OH239622   3.708   2.081   7.941
13246TIP3    H139623   3.629   2.084   7.995
13246TIP3    H239624   3.776   2.049   8.001
13247TIP3   OH239625   7.205   6.639   0.080
13247TIP3    H139626   7.220   6.545   0.090
13247TIP3    H239627   7.204   6.673   0.169
13248TIP3   OH239628   6.240   6.615   0.176
13248TIP3    H139629   6.245   6.527   0.139
13248TIP3    H239630   6.291   6.610   0.257
13249TIP3   OH239631   6.665   6.276   0.112
13249TIP3    H139632   6.718   6.198   0.127
13249TIP3    H239633   6.638   6.269   0.020
13250TIP3   OH239634   6.777   6.488   0.235
13250TIP3    H139635   6.742   6.416   0.181
13250TIP3    H239636   6.706   6.552   0.239
13251TIP3   OH239637   2.748   3.090   6.421
13251TIP3    H139638   2.837   3.068   6.393
13251TIP3    H239639   2.709   3.134   6.345
13252TIP3   OH239640   2.211   2.467   6.602
13252TIP3    H139641   2.306   2.479   6.595
13252TIP3    H239642   2.195   2.382   6.561
13253TIP3   OH239643   2.115   3.053   7.059
13253TIP3    H139644   2.051   3.000   7.012
13253TIP3    H239645   2.160   2.991   7.117
13254TIP3   OH239646   2.262   2.883   7.222
13254TIP3    H139647   2.254   2.815   7.289
13254TIP3    H239648   2.314   2.951   7.264
13255TIP3   OH239649   3.990   3.292   7.034
13255TIP3    H139650   4.012   3.320   7.123
13255TIP3    H239651   4.044   3.347   6.978
13256TIP3   OH239652   4.012   3.319   7.316
13256TIP3    H139653   3.965   3.235   7.310
13256TIP3    H239654   4.082   3.303   7.379
13257TIP3   OH239655   4.064   3.026   7.881
13257TIP3    H139656   3.993   3.035   7.944
13257TIP3    H239657   4.113   3.108   7.888
13258TIP3   OH239658   3.887   2.539   6.495
13258TIP3    H139659   3.944   2.610   6.463
13258TIP3    H239660   3.930   2.508   6.575
13259TIP3   OH239661   3.989   2.418   6.728
13259TIP3    H139662   3.920   2.358   6.757
13259TIP3    H239663   3.992   2.485   6.797
13260TIP3   OH239664   4.071   2.791   7.126
13260TIP3    H139665   4.122   2.730   7.074
13260TIP3    H239666   4.071   2.872   7.075
13261TIP3   OH239667   3.867   3.082   7.318
13261TIP3    H139668   3.801   3.128   7.370
13261TIP3    H239669   3.818   3.042   7.246
13262TIP3   OH239670   3.928   2.315   6.340
13262TIP3    H139671   3.858   2.310   6.275
13262TIP3    H239672   3.909   2.395   6.390
13263TIP3   OH239673   3.778   1.967   6.293
13263TIP3    H139674   3.735   2.008   6.217
13263TIP3    H239675   3.767   1.873   6.279
13264TIP3   OH239676   3.799   2.246   6.825
13264TIP3    H139677   3.806   2.152   6.810
13264TIP3    H239678   3.782   2.254   6.919
13265TIP3   OH239679   2.438   2.334   7.595
13265TIP3    H139680   2.427   2.299   7.507
13265TIP3    H239681   2.530   2.318   7.617
13266TIP3   OH239682   4.093   2.670   7.690
13266TIP3    H139683   4.157   2.600   7.672
13266TIP3    H239684   4.116   2.740   7.628
13267TIP3   OH239685   4.263   2.453   7.676
13267TIP3    H139686   4.193   2.417   7.730
13267TIP3    H239687   4.339   2.398   7.696
13268TIP3   OH239688   3.737   1.698   6.259
13268TIP3    H139689   3.804   1.667   6.320
13268TIP3    H239690   3.656   1.655   6.287
13269TIP3   OH239691   3.806   1.978   6.718
13269TIP3    H139692   3.852   1.894   6.730
13269TIP3    H239693   3.849   2.017   6.641
13270TIP3   OH239694   3.967   2.162   7.229
13270TIP3    H139695   4.052   2.170   7.187
13270TIP3    H239696   3.979   2.201   7.315
13271TIP3   OH239697   4.023   2.311   7.465
13271TIP3    H139698   3.949   2.339   7.520
13271TIP3    H239699   4.056   2.391   7.425
13272TIP3   OH239700   5.990   6.712   0.185
13272TIP3    H139701   6.082   6.690   0.171
13272TIP3    H239702   5.943   6.629   0.170
13273TIP3   OH239703   4.498   1.898   7.990
13273TIP3    H139704   4.560   1.834   7.956
13273TIP3    H239705   4.465   1.944   7.913
13274TIP3   OH239706   3.924   1.732   6.772
13274TIP3    H139707   3.971   1.718   6.854
13274TIP3    H239708   3.863   1.658   6.767
13275TIP3   OH239709   2.629   1.717   7.613
13275TIP3    H139710   2.683   1.642   7.590
13275TIP3    H239711   2.680   1.793   7.584
13276TIP3   OH239712   2.408   1.981   7.629
13276TIP3    H139713   2.473   2.000   7.561
13276TIP3    H239714   2.455   1.996   7.711
13277TIP3   OH239715   4.350   2.011   7.792
13277TIP3    H139716   4.263   2.049   7.806
13277TIP3    H239717   4.333   1.931   7.741
13278TIP3   OH239718   3.967   1.643   6.409
13278TIP3    H139719   4.015   1.584   6.352
13278TIP3    H239720   4.021   1.722   6.413
13279TIP3   OH239721   2.338   1.535   7.176
13279TIP3    H139722   2.296   1.449   7.171
13279TIP3    H239723   2.347   1.563   7.084
13280TIP3   OH239724   3.554   3.208   6.678
13280TIP3    H139725   3.608   3.195   6.600
13280TIP3    H239726   3.596   3.279   6.726
13281TIP3   OH239727   2.692   1.598   7.878
13281TIP3    H139728   2.619   1.576   7.936
13281TIP3    H239729   2.650   1.639   7.802
13282TIP3   OH239730   5.928   7.613   0.036
13282TIP3    H139731   5.835   7.612   0.014
13282TIP3    H239732   5.931   7.609   0.131
13283TIP3   OH239733   2.865   3.048   7.605
13283TIP3    H139734   2.814   3.122   7.574
13283TIP3    H239735   2.950   3.057   7.561
13284TIP3   OH239736   3.258   3.277   7.744
13284TIP3    H139737   3.295   3.272   7.832
13284TIP3    H239738   3.319   3.331   7.694
13285TIP3   OH239739   3.449   3.432   7.619
13285TIP3    H139740   3.511   3.380   7.568
13285TIP3    H239741   3.503   3.490   7.671
13286TIP3   OH239742   4.255   1.767   7.697
13286TIP3    H139743   4.184   1.779   7.634
13286TIP3    H239744   4.295   1.683   7.673
13287TIP3   OH239745   2.524   3.277   7.655
13287TIP3    H139746   2.434   3.296   7.628
13287TIP3    H239747   2.546   3.346   7.718
13288TIP3   OH239748   2.754   3.278   7.504
13288TIP3    H139749   2.671   3.280   7.551
13288TIP3    H239750   2.732   3.302   7.414
13289TIP3   OH239751   3.165   3.295   7.297
13289TIP3    H139752   3.093   3.306   7.235
13289TIP3    H239753   3.176   3.382   7.336
13290TIP3   OH239754   3.427   3.226   7.346
13290TIP3    H139755   3.336   3.249   7.325
13290TIP3    H239756   3.479   3.292   7.299
13291TIP3   OH239757   3.627   3.394   7.244
13291TIP3    H139758   3.631   3.482   7.208
13291TIP3    H239759   3.657   3.337   7.174
13292TIP3   OH239760   2.436   3.063   7.367
13292TIP3    H139761   2.462   3.041   7.456
13292TIP3    H239762   2.507   3.029   7.312
13293TIP3   OH239763   2.637   2.944   7.228
13293TIP3    H139764   2.648   2.860   7.272
13293TIP3    H239765   2.723   2.986   7.233
13294TIP3   OH239766   2.904   3.031   7.257
13294TIP3    H139767   2.924   2.938   7.242
13294TIP3    H239768   2.960   3.056   7.330
13295TIP3   OH239769   3.460   1.680   7.339
13295TIP3    H139770   3.417   1.611   7.389
13295TIP3    H239771   3.530   1.636   7.291
13296TIP3   OH239772   3.969   1.596   7.220
13296TIP3    H139773   4.009   1.649   7.151
13296TIP3    H239774   3.881   1.632   7.231
13297TIP3   OH239775   4.087   1.686   6.989
13297TIP3    H139776   4.153   1.621   6.966
13297TIP3    H239777   4.131   1.770   6.979
13298TIP3   OH239778   2.695   1.378   7.322
13298TIP3    H139779   2.607   1.345   7.341
13298TIP3    H239780   2.750   1.300   7.318
13299TIP3   OH239781   2.533   1.296   6.967
13299TIP3    H139782   2.572   1.319   6.883
13299TIP3    H239783   2.495   1.378   6.999
13300TIP3   OH239784   3.175   1.429   7.231
13300TIP3    H139785   3.226   1.469   7.161
13300TIP3    H239786   3.220   1.455   7.312
13301TIP3   OH239787   3.674   1.555   7.219
13301TIP3    H139788   3.701   1.521   7.134
13301TIP3    H239789   3.686   1.482   7.280
13302TIP3   OH239790   3.738   1.521   6.780
13302TIP3    H139791   3.659   1.568   6.805
13302TIP3    H239792   3.728   1.434   6.818
13303TIP3   OH239793   2.192   2.865   6.755
13303TIP3    H139794   2.108   2.835   6.719
13303TIP3    H239795   2.200   2.955   6.724
13304TIP3   OH239796   2.642   1.420   6.742
13304TIP3    H139797   2.688   1.361   6.681
13304TIP3    H239798   2.711   1.475   6.778
13305TIP3   OH239799   3.115   1.618   6.856
13305TIP3    H139800   3.178   1.567   6.907
13305TIP3    H239801   3.131   1.709   6.883
13306TIP3   OH239802   3.002   3.013   6.351
13306TIP3    H139803   3.085   3.041   6.312
13306TIP3    H239804   2.971   2.943   6.294
13307TIP3   OH239805   3.703   3.156   6.450
13307TIP3    H139806   3.696   3.061   6.441
13307TIP3    H239807   3.662   3.190   6.370
13308TIP3   OH239808   6.190   6.338   0.172
13308TIP3    H139809   6.143   6.259   0.199
13308TIP3    H239810   6.280   6.324   0.202
13309TIP3   OH239811   6.449   6.318   0.276
13309TIP3    H139812   6.524   6.307   0.218
13309TIP3    H239813   6.458   6.247   0.340
13310TIP3   OH239814   2.311   2.855   6.404
13310TIP3    H139815   2.313   2.869   6.499
13310TIP3    H239816   2.392   2.808   6.385
13311TIP3   OH239817   7.269   6.371   0.095
13311TIP3    H139818   7.294   6.352   0.186
13311TIP3    H239819   7.351   6.373   0.047
13312TIP3   OH239820   3.915   3.293   7.636
13312TIP3    H139821   3.841   3.265   7.582
13312TIP3    H239822   3.905   3.388   7.642
13313TIP3   OH239823   5.193   2.677   6.375
13313TIP3    H139824   5.159   2.765   6.360
13313TIP3    H239825   5.123   2.618   6.346
13314TIP3   OH239826   5.187   2.678   6.804
13314TIP3    H139827   5.243   2.657   6.879
13314TIP3    H239828   5.146   2.595   6.780
13315TIP3   OH239829   5.463   2.986   6.471
13315TIP3    H139830   5.450   2.920   6.540
13315TIP3    H239831   5.484   3.066   6.518
13316TIP3   OH239832   4.505   2.983   6.827
13316TIP3    H139833   4.502   2.898   6.871
13316TIP3    H239834   4.598   2.995   6.806
13317TIP3   OH239835   4.148   2.195   6.648
13317TIP3    H139836   4.104   2.276   6.673
13317TIP3    H239837   4.082   2.147   6.598
13318TIP3   OH239838   4.452   2.393   6.810
13318TIP3    H139839   4.391   2.322   6.787
13318TIP3    H239840   4.433   2.462   6.747
13319TIP3   OH239841   5.130   3.402   6.491
13319TIP3    H139842   5.149   3.340   6.421
13319TIP3    H239843   5.144   3.352   6.572
13320TIP3   OH239844   5.000   2.897   6.812
13320TIP3    H139845   5.047   2.818   6.787
13320TIP3    H239846   5.068   2.956   6.844
13321TIP3   OH239847   5.975   2.211   6.820
13321TIP3    H139848   6.015   2.277   6.876
13321TIP3    H239849   6.034   2.202   6.745
13322TIP3   OH239850   5.405   2.360   6.849
13322TIP3    H139851   5.468   2.290   6.867
13322TIP3    H239852   5.375   2.342   6.760
13323TIP3   OH239853   4.771   2.023   6.782
13323TIP3    H139854   4.739   2.091   6.724
13323TIP3    H239855   4.711   1.949   6.768
13324TIP3   OH239856   5.466   2.152   6.441
13324TIP3    H139857   5.536   2.151   6.507
13324TIP3    H239858   5.508   2.183   6.361
13325TIP3   OH239859   4.794   2.426   6.767
13325TIP3    H139860   4.874   2.456   6.808
13325TIP3    H239861   4.823   2.376   6.691
13326TIP3   OH239862   6.058   2.406   7.002
13326TIP3    H139863   5.991   2.473   6.985
13326TIP3    H239864   6.127   2.453   7.048
13327TIP3   OH239865   5.047   2.886   6.270
13327TIP3    H139866   5.031   2.871   6.177
13327TIP3    H239867   5.011   2.973   6.288
13328TIP3   OH239868   4.840   2.825   7.030
13328TIP3    H139869   4.782   2.896   7.058
13328TIP3    H239870   4.884   2.859   6.952
13329TIP3   OH239871   5.659   2.183   6.633
13329TIP3    H139872   5.732   2.128   6.664
13329TIP3    H239873   5.684   2.272   6.659
13330TIP3   OH239874   4.658   2.198   6.967
13330TIP3    H139875   4.660   2.186   7.062
13330TIP3    H239876   4.702   2.120   6.932
13331TIP3   OH239877   4.677   3.029   7.121
13331TIP3    H139878   4.667   3.119   7.090
13331TIP3    H239879   4.600   3.014   7.176
13332TIP3   OH239880   4.058   2.728   6.380
13332TIP3    H139881   4.027   2.743   6.291
13332TIP3    H239882   4.080   2.815   6.413
13333TIP3   OH239883   5.495   3.232   6.616
13333TIP3    H139884   5.406   3.226   6.650
13333TIP3    H239885   5.498   3.314   6.567
13334TIP3   OH239886   5.815   2.076   7.001
13334TIP3    H139887   5.728   2.110   6.982
13334TIP3    H239888   5.872   2.117   6.935
13335TIP3   OH239889   5.055   1.737   6.975
13335TIP3    H139890   5.062   1.649   7.012
13335TIP3    H239891   4.979   1.775   7.018
13336TIP3   OH239892   5.203   3.253   6.268
13336TIP3    H139893   5.255   3.173   6.255
13336TIP3    H239894   5.262   3.324   6.241
13337TIP3   OH239895   5.358   3.036   6.219
13337TIP3    H139896   5.373   2.961   6.161
13337TIP3    H239897   5.398   3.011   6.302
13338TIP3   OH239898   5.728   3.123   6.955
13338TIP3    H139899   5.714   3.048   6.897
13338TIP3    H239900   5.715   3.200   6.899
13339TIP3   OH239901   5.016   2.519   6.226
13339TIP3    H139902   4.937   2.569   6.210
13339TIP3    H239903   5.064   2.522   6.143
13340TIP3   OH239904   4.991   2.330   5.916
13340TIP3    H139905   5.057   2.378   5.966
13340TIP3    H239906   5.041   2.262   5.869
13341TIP3   OH239907   5.913   2.784   6.831
13341TIP3    H139908   5.829   2.830   6.825
13341TIP3    H239909   5.950   2.792   6.743
13342TIP3   OH239910   5.381   2.613   6.185
13342TIP3    H139911   5.326   2.639   6.260
13342TIP3    H239912   5.464   2.588   6.225
13343TIP3   OH239913   5.605   2.640   7.138
13343TIP3    H139914   5.604   2.725   7.183
13343TIP3    H239915   5.525   2.640   7.085
13344TIP3   OH239916   4.570   2.565   6.608
13344TIP3    H139917   4.551   2.514   6.529
13344TIP3    H239918   4.659   2.537   6.633
13345TIP3   OH239919   4.759   3.021   6.727
13345TIP3    H139920   4.742   3.004   6.634
13345TIP3    H239921   4.844   2.981   6.744
13346TIP3   OH239922   5.250   3.228   6.738
13346TIP3    H139923   5.242   3.308   6.790
13346TIP3    H239924   5.237   3.158   6.802
13347TIP3   OH239925   4.880   3.124   7.289
13347TIP3    H139926   4.817   3.180   7.335
13347TIP3    H239927   4.826   3.072   7.230
13348TIP3   OH239928   5.212   2.470   6.021
13348TIP3    H139929   5.272   2.528   6.068
13348TIP3    H239930   5.241   2.474   5.930
13349TIP3   OH239931   4.644   2.679   7.442
13349TIP3    H139932   4.643   2.774   7.455
13349TIP3    H239933   4.552   2.656   7.427
13350TIP3   OH239934   4.949   3.148   6.279
13350TIP3    H139935   5.037   3.186   6.283
13350TIP3    H239936   4.898   3.211   6.228
13351TIP3   OH239937   4.667   3.280   7.374
13351TIP3    H139938   4.647   3.294   7.282
13351TIP3    H239939   4.581   3.270   7.416
13352TIP3   OH239940   5.723   1.700   6.079
13352TIP3    H139941   5.648   1.723   6.134
13352TIP3    H239942   5.733   1.775   6.021
13353TIP3   OH239943   4.479   2.419   6.388
13353TIP3    H139944   4.404   2.472   6.359
13353TIP3    H239945   4.449   2.329   6.380
13354TIP3   OH239946   5.550   3.074   5.633
13354TIP3    H139947   5.545   3.167   5.611
13354TIP3    H239948   5.640   3.049   5.610
13355TIP3   OH239949   4.264   2.838   7.326
13355TIP3    H139950   4.194   2.817   7.264
13355TIP3    H239951   4.297   2.752   7.354
13356TIP3   OH239952   4.108   3.041   6.998
13356TIP3    H139953   4.193   3.077   7.023
13356TIP3    H239954   4.047   3.112   7.013
13357TIP3   OH239955   5.963   3.478   7.031
13357TIP3    H139956   5.966   3.383   7.042
13357TIP3    H239957   5.884   3.506   7.077
13358TIP3   OH239958   5.071   3.269   7.155
13358TIP3    H139959   5.062   3.360   7.184
13358TIP3    H239960   5.003   3.222   7.203
13359TIP3   OH239961   4.850   3.361   6.108
13359TIP3    H139962   4.809   3.342   6.023
13359TIP3    H239963   4.814   3.446   6.134
13360TIP3   OH239964   4.283   3.223   6.480
13360TIP3    H139965   4.329   3.218   6.564
13360TIP3    H239966   4.236   3.140   6.473
13361TIP3   OH239967   5.052   3.298   5.731
13361TIP3    H139968   5.102   3.224   5.697
13361TIP3    H239969   5.088   3.314   5.818
13362TIP3   OH239970   5.105   3.344   6.000
13362TIP3    H139971   5.020   3.344   6.045
13362TIP3    H239972   5.167   3.310   6.066
13363TIP3   OH239973   5.844   2.607   7.311
13363TIP3    H139974   5.765   2.613   7.256
13363TIP3    H239975   5.868   2.514   7.308
13364TIP3   OH239976   4.462   3.028   7.293
13364TIP3    H139977   4.514   3.016   7.373
13364TIP3    H239978   4.390   2.966   7.302
13365TIP3   OH239979   4.823   1.831   7.110
13365TIP3    H139980   4.740   1.795   7.080
13365TIP3    H239981   4.799   1.915   7.150
13366TIP3   OH239982   5.616   2.362   7.194
13366TIP3    H139983   5.567   2.345   7.275
13366TIP3    H239984   5.600   2.455   7.176
13367TIP3   OH239985   5.289   2.445   5.757
13367TIP3    H139986   5.245   2.451   5.673
13367TIP3    H239987   5.372   2.492   5.744
13368TIP3   OH239988   4.997   1.872   6.078
13368TIP3    H139989   4.961   1.879   6.166
13368TIP3    H239990   4.964   1.789   6.044
13369TIP3   OH239991   4.852   2.417   7.094
13369TIP3    H139992   4.773   2.412   7.148
13369TIP3    H239993   4.888   2.504   7.111
13370TIP3   OH239994   4.641   2.226   6.646
13370TIP3    H139995   4.553   2.190   6.660
13370TIP3    H239996   4.661   2.205   6.555
13371TIP3   OH239997   5.145   2.316   6.361
13371TIP3    H139998   5.098   2.388   6.320
13371TIP3    H239999   5.205   2.285   6.294
13372TIP3   OH240000   5.332   2.598   7.456
13372TIP3    H140001   5.307   2.527   7.516
13372TIP3    H240002   5.425   2.611   7.471
13373TIP3   OH240003   5.308   2.329   6.589
13373TIP3    H140004   5.246   2.351   6.520
13373TIP3    H240005   5.361   2.259   6.553
13374TIP3   OH240006   4.633   2.383   7.263
13374TIP3    H140007   4.607   2.413   7.350
13374TIP3    H240008   4.645   2.289   7.272
13375TIP3   OH240009   4.666   1.851   6.054
13375TIP3    H140010   4.657   1.856   6.149
13375TIP3    H240011   4.588   1.894   6.019
13376TIP3   OH240012   4.242   1.895   6.918
13376TIP3    H140013   4.318   1.933   6.962
13376TIP3    H240014   4.275   1.865   6.834
13377TIP3   OH240015   4.118   1.879   6.424
13377TIP3    H140016   4.161   1.913   6.345
13377TIP3    H240017   4.058   1.949   6.451
13378TIP3   OH240018   5.344   2.569   7.013
13378TIP3    H140019   5.372   2.501   6.952
13378TIP3    H240020   5.320   2.522   7.092
13379TIP3   OH240021   5.035   2.030   6.685
13379TIP3    H140022   4.953   2.023   6.734
13379TIP3    H240023   5.103   2.013   6.750
13380TIP3   OH240024   4.405   2.121   6.712
13380TIP3    H140025   4.312   2.126   6.689
13380TIP3    H240026   4.426   2.028   6.704
13381TIP3   OH240027   4.680   2.125   6.392
13381TIP3    H140028   4.775   2.132   6.382
13381TIP3    H240029   4.647   2.140   6.303
13382TIP3   OH240030   5.528   2.107   6.910
13382TIP3    H140031   5.459   2.092   6.974
13382TIP3    H240032   5.513   2.041   6.842
13383TIP3   OH240033   4.568   2.146   6.141
13383TIP3    H140034   4.506   2.095   6.088
13383TIP3    H240035   4.622   2.192   6.078
13384TIP3   OH240036   5.679   3.826   7.114
13384TIP3    H140037   5.673   3.843   7.020
13384TIP3    H240038   5.761   3.868   7.141
13385TIP3   OH240039   4.614   2.944   7.527
13385TIP3    H140040   4.696   2.962   7.573
13385TIP3    H240041   4.547   2.953   7.594
13386TIP3   OH240042   5.086   2.409   6.782
13386TIP3    H140043   5.148   2.379   6.715
13386TIP3    H240044   5.107   2.357   6.859
13387TIP3   OH240045   4.551   1.869   6.688
13387TIP3    H140046   4.530   1.789   6.736
13387TIP3    H240047   4.572   1.839   6.600
13388TIP3   OH240048   5.085   2.276   7.122
13388TIP3    H140049   5.006   2.327   7.103
13388TIP3    H240050   5.149   2.340   7.153
13389TIP3   OH240051   4.778   2.663   6.180
13389TIP3    H140052   4.705   2.607   6.153
13389TIP3    H240053   4.753   2.697   6.266
13390TIP3   OH240054   5.677   2.919   6.776
13390TIP3    H140055   5.715   2.966   6.703
13390TIP3    H240056   5.598   2.879   6.741
13391TIP3   OH240057   5.252   1.974   6.086
13391TIP3    H140058   5.159   1.953   6.080
13391TIP3    H240059   5.255   2.069   6.095
13392TIP3   OH240060   5.198   3.003   7.197
13392TIP3    H140061   5.255   2.993   7.273
13392TIP3    H240062   5.163   3.092   7.204
13393TIP3   OH240063   5.312   2.240   6.149
13393TIP3    H140064   5.407   2.242   6.158
13393TIP3    H240065   5.291   2.317   6.097
13394TIP3   OH240066   4.936   2.815   6.016
13394TIP3    H140067   4.890   2.899   6.011
13394TIP3    H240068   4.881   2.760   6.072
13395TIP3   OH240069   4.368   2.610   7.454
13395TIP3    H140070   4.381   2.595   7.548
13395TIP3    H240071   4.291   2.559   7.431
13396TIP3   OH240072   5.103   2.756   7.490
13396TIP3    H140073   5.035   2.695   7.462
13396TIP3    H240074   5.185   2.716   7.460
13397TIP3   OH240075   5.341   3.288   7.077
13397TIP3    H140076   5.246   3.277   7.081
13397TIP3    H240077   5.364   3.328   7.162
13398TIP3   OH240078   5.721   2.329   5.966
13398TIP3    H140079   5.665   2.283   5.903
13398TIP3    H240080   5.728   2.418   5.932
13399TIP3   OH240081   5.974   3.195   7.050
13399TIP3    H140082   5.879   3.181   7.040
13399TIP3    H240083   6.011   3.168   6.966
13400TIP3   OH240084   5.463   3.146   5.891
13400TIP3    H140085   5.439   3.071   5.946
13400TIP3    H240086   5.489   3.107   5.808
13401TIP3   OH240087   5.443   2.788   6.676
13401TIP3    H140088   5.353   2.768   6.701
13401TIP3    H240089   5.476   2.707   6.636
13402TIP3   OH240090   4.613   3.013   6.483
13402TIP3    H140091   4.619   3.089   6.424
13402TIP3    H240092   4.522   3.012   6.512
13403TIP3   OH240093   4.171   2.302   6.209
13403TIP3    H140094   4.210   2.388   6.227
13403TIP3    H240095   4.088   2.303   6.255
13404TIP3   OH240096   4.674   2.752   6.415
13404TIP3    H140097   4.667   2.846   6.434
13404TIP3    H240098   4.631   2.710   6.489
13405TIP3   OH240099   4.888   3.339   6.946
13405TIP3    H140100   4.922   3.413   6.896
13405TIP3    H240101   4.963   3.307   6.995
13406TIP3   OH240102   4.521   3.240   6.340
13406TIP3    H140103   4.434   3.248   6.377
13406TIP3    H240104   4.558   3.328   6.345
13407TIP3   OH240105   5.231   3.010   6.921
13407TIP3    H140106   5.219   3.005   7.016
13407TIP3    H240107   5.315   2.967   6.905
13408TIP3   OH240108   5.240   2.884   5.799
13408TIP3    H140109   5.281   2.868   5.883
13408TIP3    H240110   5.155   2.840   5.805
13409TIP3   OH240111   5.493   3.500   6.957
13409TIP3    H140112   5.423   3.438   6.975
13409TIP3    H240113   5.460   3.554   6.885
13410TIP3   OH240114   5.540   3.346   5.592
13410TIP3    H140115   5.551   3.402   5.516
13410TIP3    H240116   5.473   3.390   5.644
13411TIP3   OH240117   5.411   2.834   6.020
13411TIP3    H140118   5.393   2.757   6.075
13411TIP3    H240119   5.504   2.828   6.000
13412TIP3   OH240120   4.311   3.234   7.107
13412TIP3    H140121   4.368   3.179   7.162
13412TIP3    H240122   4.325   3.323   7.140
13413TIP3   OH240123   4.583   2.844   5.800
13413TIP3    H140124   4.594   2.753   5.773
13413TIP3    H240125   4.569   2.841   5.894
13414TIP3   OH240126   4.526   2.860   6.072
13414TIP3    H140127   4.600   2.836   6.128
13414TIP3    H240128   4.523   2.956   6.077
13415TIP3   OH240129   4.259   2.555   6.287
13415TIP3    H140130   4.194   2.604   6.337
13415TIP3    H240131   4.280   2.612   6.213
13416TIP3   OH240132   5.315   1.931   6.354
13416TIP3    H140133   5.295   1.947   6.262
13416TIP3    H240134   5.360   2.010   6.383
13417TIP3   OH240135   4.791   3.043   6.009
13417TIP3    H140136   4.708   3.071   6.047
13417TIP3    H240137   4.819   3.118   5.956
13418TIP3   OH240138   4.960   2.127   6.437
13418TIP3    H140139   5.023   2.193   6.408
13418TIP3    H240140   4.989   2.104   6.525
13419TIP3   OH240141   5.286   2.428   7.244
13419TIP3    H140142   5.284   2.501   7.306
13419TIP3    H240143   5.350   2.367   7.280
13420TIP3   OH240144   5.127   1.820   6.523
13420TIP3    H140145   5.104   1.896   6.576
13420TIP3    H240146   5.196   1.852   6.465
13421TIP3   OH240147   4.542   3.133   6.089
13421TIP3    H140148   4.525   3.204   6.028
13421TIP3    H240149   4.534   3.173   6.175
13422TIP3   OH240150   4.635   1.848   6.332
13422TIP3    H140151   4.625   1.940   6.359
13422TIP3    H240152   4.729   1.831   6.340
13423TIP3   OH240153   5.889   2.346   7.221
13423TIP3    H140154   5.796   2.329   7.205
13423TIP3    H240155   5.929   2.344   7.135
13424TIP3   OH240156   5.526   2.533   6.585
13424TIP3    H140157   5.455   2.470   6.601
13424TIP3    H240158   5.599   2.500   6.637
13425TIP3   OH240159   4.282   2.727   6.068
13425TIP3    H140160   4.354   2.791   6.076
13425TIP3    H240161   4.312   2.665   6.002
13426TIP3   OH240162   4.186   2.024   6.201
13426TIP3    H140163   4.200   2.118   6.210
13426TIP3    H240164   4.139   2.013   6.119
13427TIP3   OH240165   5.526   3.495   6.526
13427TIP3    H140166   5.484   3.547   6.457
13427TIP3    H240167   5.619   3.509   6.513
13428TIP3   OH240168   4.562   1.736   7.069
13428TIP3    H140169   4.539   1.702   6.982
13428TIP3    H240170   4.563   1.660   7.126
13429TIP3   OH240171   4.107   2.997   6.462
13429TIP3    H140172   4.067   3.036   6.540
13429TIP3    H240173   4.063   3.041   6.389
13430TIP3   OH240174   4.321   3.541   7.529
13430TIP3    H140175   4.400   3.553   7.581
13430TIP3    H240176   4.319   3.448   7.508
13431TIP3   OH240177   4.776   3.439   7.571
13431TIP3    H140178   4.868   3.415   7.580
13431TIP3    H240179   4.743   3.387   7.498
13432TIP3   OH240180   4.735   3.049   5.691
13432TIP3    H140181   4.689   2.977   5.736
13432TIP3    H240182   4.810   3.006   5.650
13433TIP3   OH240183   5.393   3.391   7.326
13433TIP3    H140184   5.405   3.319   7.388
13433TIP3    H240185   5.469   3.448   7.340
13434TIP3   OH240186   5.179   3.084   5.616
13434TIP3    H140187   5.218   3.023   5.679
13434TIP3    H240188   5.237   3.080   5.540
13435TIP3   OH240189   4.410   2.939   7.718
13435TIP3    H140190   4.431   2.846   7.728
13435TIP3    H240191   4.323   2.940   7.680
13436TIP3   OH240192   4.402   2.537   5.913
13436TIP3    H140193   4.454   2.514   5.990
13436TIP3    H240194   4.466   2.551   5.843
13437TIP3   OH240195   5.033   3.028   7.498
13437TIP3    H140196   4.992   3.047   7.414
13437TIP3    H240197   5.072   2.941   7.486
13438TIP3   OH240198   4.985   2.759   5.752
13438TIP3    H140199   4.958   2.770   5.844
13438TIP3    H240200   4.964   2.668   5.732
13439TIP3   OH240201   5.506   3.061   7.107
13439TIP3    H140202   5.584   3.088   7.058
13439TIP3    H240203   5.444   3.133   7.094
13440TIP3   OH240204   4.522   2.680   7.713
13440TIP3    H140205   4.596   2.668   7.653
13440TIP3    H240206   4.563   2.700   7.797
13441TIP3   OH240207   4.577   2.481   6.124
13441TIP3    H140208   4.559   2.446   6.211
13441TIP3    H240209   4.628   2.412   6.081
13442TIP3   OH240210   4.904   2.580   7.398
13442TIP3    H140211   4.815   2.613   7.408
13442TIP3    H240212   4.928   2.605   7.308
13443TIP3   OH240213   4.720   2.299   5.972
13443TIP3    H140214   4.691   2.302   5.881
13443TIP3    H240215   4.816   2.307   5.966
13444TIP3   OH240216   5.393   2.935   7.462
13444TIP3    H140217   5.467   2.906   7.409
13444TIP3    H240218   5.396   2.878   7.540
13445TIP3   OH240219   5.508   2.585   5.659
13445TIP3    H140220   5.497   2.544   5.573
13445TIP3    H240221   5.485   2.677   5.645
13446TIP3   OH240222   4.985   2.337   7.492
13446TIP3    H140223   4.941   2.274   7.435
13446TIP3    H240224   4.963   2.422   7.455
13447TIP3   OH240225   5.002   2.088   7.296
13447TIP3    H140226   5.021   2.149   7.225
13447TIP3    H240227   4.907   2.076   7.293
13448TIP3   OH240228   4.999   2.644   7.149
13448TIP3    H140229   5.088   2.670   7.124
13448TIP3    H240230   4.944   2.711   7.109
13449TIP3   OH240231   5.606   2.605   7.538
13449TIP3    H140232   5.647   2.519   7.548
13449TIP3    H240233   5.677   2.663   7.514
13450TIP3   OH240234   5.631   2.887   7.274
13450TIP3    H140235   5.579   2.949   7.222
13450TIP3    H240236   5.721   2.901   7.244
13451TIP3   OH240237   4.879   2.418   7.740
13451TIP3    H140238   4.805   2.360   7.763
13451TIP3    H240239   4.898   2.395   7.649
13452TIP3   OH240240   5.250   2.367   7.588
13452TIP3    H140241   5.254   2.362   7.684
13452TIP3    H240242   5.157   2.356   7.567
13453TIP3   OH240243   5.471   2.310   7.428
13453TIP3    H140244   5.402   2.325   7.492
13453TIP3    H240245   5.550   2.296   7.480
13454TIP3   OH240246   5.691   2.292   7.599
13454TIP3    H140247   5.725   2.202   7.604
13454TIP3    H240248   5.698   2.326   7.688
13455TIP3   OH240249   4.714   2.193   7.794
13455TIP3    H140250   4.718   2.104   7.759
13455TIP3    H240251   4.751   2.185   7.882
13456TIP3   OH240252   5.203   1.900   7.526
13456TIP3    H140253   5.286   1.854   7.537
13456TIP3    H240254   5.141   1.850   7.579
13457TIP3   OH240255   5.272   2.081   7.780
13457TIP3    H140256   5.256   2.047   7.693
13457TIP3    H240257   5.204   2.147   7.793
13458TIP3   OH240258   4.543   3.341   5.907
13458TIP3    H140259   4.633   3.322   5.881
13458TIP3    H240260   4.505   3.387   5.832
13459TIP3   OH240261   4.009   2.723   6.093
13459TIP3    H140262   4.104   2.736   6.084
13459TIP3    H240263   3.992   2.640   6.050
13460TIP3   OH240264   3.910   3.307   6.548
13460TIP3    H140265   3.847   3.253   6.500
13460TIP3    H240266   3.956   3.245   6.605
13461TIP3   OH240267   4.057   3.138   6.714
13461TIP3    H140268   4.049   3.071   6.782
13461TIP3    H240269   4.110   3.207   6.754
13462TIP3   OH240270   5.795   3.557   6.518
13462TIP3    H140271   5.819   3.582   6.607
13462TIP3    H240272   5.866   3.590   6.463
13463TIP3   OH240273   5.813   3.583   6.801
13463TIP3    H140274   5.765   3.500   6.794
13463TIP3    H240275   5.876   3.568   6.871
13464TIP3   OH240276   5.861   3.278   7.382
13464TIP3    H140277   5.792   3.289   7.447
13464TIP3    H240278   5.909   3.361   7.383
13465TIP3   OH240279   5.686   2.799   5.986
13465TIP3    H140280   5.743   2.868   5.953
13465TIP3    H240281   5.735   2.760   6.058
13466TIP3   OH240282   5.820   2.654   6.183
13466TIP3    H140283   5.753   2.619   6.242
13466TIP3    H240284   5.886   2.691   6.242
13467TIP3   OH240285   5.860   3.053   6.614
13467TIP3    H140286   5.914   2.980   6.582
13467TIP3    H240287   5.870   3.121   6.548
13468TIP3   OH240288   5.668   3.345   6.805
13468TIP3    H140289   5.601   3.390   6.857
13468TIP3    H240290   5.620   3.304   6.733
13469TIP3   OH240291   5.720   2.570   5.834
13469TIP3    H140292   5.648   2.570   5.771
13469TIP3    H240293   5.706   2.649   5.886
13470TIP3   OH240294   5.566   2.216   5.769
13470TIP3    H140295   5.520   2.251   5.693
13470TIP3    H240296   5.563   2.121   5.758
13471TIP3   OH240297   5.609   2.520   6.319
13471TIP3    H140298   5.620   2.426   6.310
13471TIP3    H240299   5.587   2.533   6.411
13472TIP3   OH240300   4.252   2.566   7.085
13472TIP3    H140301   4.255   2.480   7.044
13472TIP3    H240302   4.343   2.595   7.087
13473TIP3   OH240303   5.892   2.932   7.184
13473TIP3    H140304   5.955   2.862   7.167
13473TIP3    H240305   5.917   3.002   7.123
13474TIP3   OH240306   6.060   2.714   7.173
13474TIP3    H140307   5.988   2.675   7.223
13474TIP3    H240308   6.134   2.656   7.188
13475TIP3   OH240309   5.535   1.943   5.732
13475TIP3    H140310   5.601   1.919   5.796
13475TIP3    H240311   5.454   1.906   5.766
13476TIP3   OH240312   5.598   2.233   6.204
13476TIP3    H140313   5.647   2.152   6.218
13476TIP3    H240314   5.641   2.273   6.128
13477TIP3   OH240315   5.747   2.432   6.717
13477TIP3    H140316   5.828   2.451   6.670
13477TIP3    H240317   5.767   2.452   6.808
13478TIP3   OH240318   5.828   2.558   6.963
13478TIP3    H140319   5.754   2.587   7.016
13478TIP3    H240320   5.859   2.638   6.919
13479TIP3   OH240321   4.453   2.259   7.724
13479TIP3    H140322   4.547   2.254   7.741
13479TIP3    H240323   4.418   2.175   7.755
13480TIP3   OH240324   6.294   2.144   7.492
13480TIP3    H140325   6.360   2.092   7.446
13480TIP3    H240326   6.254   2.198   7.424
13481TIP3   OH240327   5.721   1.989   6.260
13481TIP3    H140328   5.768   1.975   6.342
13481TIP3    H240329   5.660   1.915   6.254
13482TIP3   OH240330   4.426   1.971   7.138
13482TIP3    H140331   4.464   1.886   7.115
13482TIP3    H240332   4.498   2.018   7.182
13483TIP3   OH240333   4.237   2.207   7.150
13483TIP3    H140334   4.281   2.130   7.113
13483TIP3    H240335   4.292   2.231   7.225
13484TIP3   OH240336   6.139   2.263   7.300
13484TIP3    H140337   6.053   2.303   7.306
13484TIP3    H240338   6.126   2.186   7.245
13485TIP3   OH240339   5.757   1.899   5.892
13485TIP3    H140340   5.804   1.838   5.836
13485TIP3    H240341   5.814   1.976   5.898
13486TIP3   OH240342   4.197   1.749   6.651
13486TIP3    H140343   4.111   1.733   6.692
13486TIP3    H240344   4.177   1.801   6.573
13487TIP3   OH240345   5.343   3.459   6.166
13487TIP3    H140346   5.401   3.450   6.090
13487TIP3    H240347   5.385   3.527   6.219
13488TIP3   OH240348   4.433   3.267   7.532
13488TIP3    H140349   4.342   3.238   7.531
13488TIP3    H240350   4.460   3.258   7.624
13489TIP3   OH240351   4.659   3.305   7.093
13489TIP3    H140352   4.610   3.381   7.061
13489TIP3    H240353   4.744   3.312   7.051
13490TIP3   OH240354   5.054   3.536   7.233
13490TIP3    H140355   5.092   3.530   7.321
13490TIP3    H240356   5.117   3.589   7.184
13491TIP3   OH240357   5.247   3.689   7.108
13491TIP3    H140358   5.310   3.637   7.058
13491TIP3    H240359   5.301   3.748   7.161
13492TIP3   OH240360   6.054   2.027   7.179
13492TIP3    H140361   5.973   2.031   7.128
13492TIP3    H240362   6.086   1.938   7.167
13493TIP3   OH240363   4.318   3.529   7.146
13493TIP3    H140364   4.228   3.548   7.120
13493TIP3    H240365   4.342   3.598   7.207
13494TIP3   OH240366   4.548   3.535   6.991
13494TIP3    H140367   4.464   3.536   7.037
13494TIP3    H240368   4.527   3.559   6.901
13495TIP3   OH240369   4.961   3.552   6.786
13495TIP3    H140370   4.893   3.566   6.721
13495TIP3    H240371   4.974   3.639   6.826
13496TIP3   OH240372   5.225   3.485   6.834
13496TIP3    H140373   5.134   3.507   6.813
13496TIP3    H240374   5.276   3.550   6.786
13497TIP3   OH240375   5.424   3.651   6.729
13497TIP3    H140376   5.428   3.739   6.692
13497TIP3    H240377   5.458   3.595   6.660
13498TIP3   OH240378   4.226   3.320   6.855
13498TIP3    H140379   4.252   3.296   6.943
13498TIP3    H240380   4.299   3.293   6.800
13499TIP3   OH240381   4.434   3.218   6.712
13499TIP3    H140382   4.449   3.134   6.756
13499TIP3    H240383   4.519   3.261   6.714
13500TIP3   OH240384   4.703   3.296   6.740
13500TIP3    H140385   4.726   3.205   6.721
13500TIP3    H240386   4.757   3.319   6.815
13501TIP3   OH240387   5.229   1.926   6.850
13501TIP3    H140388   5.186   1.856   6.898
13501TIP3    H240389   5.311   1.887   6.818
13502TIP3   OH240390   5.770   1.826   6.710
13502TIP3    H140391   5.812   1.879   6.643
13502TIP3    H240392   5.686   1.870   6.726
13503TIP3   OH240393   5.875   1.939   6.485
13503TIP3    H140394   5.942   1.874   6.462
13503TIP3    H240395   5.917   2.023   6.471
13504TIP3   OH240396   4.494   1.634   6.822
13504TIP3    H140397   4.406   1.597   6.833
13504TIP3    H240398   4.552   1.558   6.814
13505TIP3   OH240399   4.324   1.553   6.483
13505TIP3    H140400   4.349   1.600   6.404
13505TIP3    H240401   4.288   1.620   6.541
13506TIP3   OH240402   4.970   1.676   6.713
13506TIP3    H140403   5.024   1.723   6.650
13506TIP3    H240404   5.003   1.704   6.798
13507TIP3   OH240405   5.475   1.826   6.753
13507TIP3    H140406   5.475   1.798   6.662
13507TIP3    H240407   5.494   1.746   6.802
13508TIP3   OH240408   5.534   1.780   6.265
13508TIP3    H140409   5.456   1.827   6.291
13508TIP3    H240410   5.523   1.692   6.301
13509TIP3   OH240411   3.987   3.123   6.249
13509TIP3    H140412   3.905   3.091   6.211
13509TIP3    H240413   3.997   3.211   6.214
13510TIP3   OH240414   4.428   1.677   6.242
13510TIP3    H140415   4.474   1.616   6.184
13510TIP3    H240416   4.497   1.734   6.277
13511TIP3   OH240417   4.911   1.874   6.343
13511TIP3    H140418   4.971   1.821   6.395
13511TIP3    H240419   4.928   1.964   6.370
13512TIP3   OH240420   4.799   3.269   5.839
13512TIP3    H140421   4.882   3.297   5.800
13512TIP3    H240422   4.768   3.200   5.781
13513TIP3   OH240423   5.497   3.414   5.939
13513TIP3    H140424   5.491   3.319   5.928
13513TIP3    H240425   5.457   3.450   5.860
13514TIP3   OH240426   4.747   1.920   7.735
13514TIP3    H140427   4.708   1.844   7.780
13514TIP3    H240428   4.836   1.925   7.769
13515TIP3   OH240429   4.989   1.919   7.878
13515TIP3    H140430   5.083   1.905   7.879
13515TIP3    H240431   4.954   1.852   7.936
13516TIP3   OH240432   4.106   3.115   5.889
13516TIP3    H140433   4.111   3.133   5.982
13516TIP3    H240434   4.186   3.067   5.869
13517TIP3   OH240435   5.811   2.043   7.622
13517TIP3    H140436   5.828   2.009   7.710
13517TIP3    H240437   5.894   2.031   7.576
13518TIP3   OH240438   5.713   3.552   7.125
13518TIP3    H140439   5.639   3.522   7.072
13518TIP3    H240440   5.702   3.647   7.131
13519TIP3   OH240441   6.996   2.939   5.859
13519TIP3    H140442   6.965   3.026   5.834
13519TIP3    H240443   6.923   2.880   5.836
13520TIP3   OH240444   7.004   2.923   6.284
13520TIP3    H140445   7.056   2.906   6.363
13520TIP3    H240446   6.956   2.841   6.269
13521TIP3   OH240447   6.286   2.783   6.642
13521TIP3    H140448   6.325   2.729   6.710
13521TIP3    H240449   6.358   2.807   6.584
13522TIP3   OH240450   7.263   3.240   5.962
13522TIP3    H140451   7.251   3.173   6.030
13522TIP3    H240452   7.284   3.320   6.010
13523TIP3   OH240453   6.239   3.212   6.349
13523TIP3    H140454   6.230   3.118   6.337
13523TIP3    H240455   6.334   3.228   6.346
13524TIP3   OH240456   5.963   2.423   6.099
13524TIP3    H140457   5.927   2.509   6.124
13524TIP3    H240458   5.888   2.377   6.062
13525TIP3   OH240459   6.044   2.740   6.329
13525TIP3    H140460   6.096   2.662   6.352
13525TIP3    H240461   6.110   2.806   6.307
13526TIP3   OH240462   6.891   3.689   5.949
13526TIP3    H140463   6.925   3.609   5.910
13526TIP3    H240464   6.882   3.668   6.043
13527TIP3   OH240465   6.816   3.138   6.316
13527TIP3    H140466   6.863   3.064   6.279
13527TIP3    H240467   6.884   3.199   6.343
13528TIP3   OH240468   7.837   2.472   6.308
13528TIP3    H140469   7.851   2.557   6.350
13528TIP3    H240470   7.862   2.486   6.217
13529TIP3   OH240471   7.204   2.638   6.326
13529TIP3    H140472   7.236   2.551   6.353
13529TIP3    H240473   7.167   2.623   6.239
13530TIP3   OH240474   6.562   2.299   6.287
13530TIP3    H140475   6.540   2.371   6.229
13530TIP3    H240476   6.505   2.227   6.259
13531TIP3   OH240477   7.257   2.401   5.922
13531TIP3    H140478   7.320   2.396   5.994
13531TIP3    H240479   7.308   2.436   5.849
13532TIP3   OH240480   6.187   2.517   6.410
13532TIP3    H140481   6.268   2.494   6.457
13532TIP3    H240482   6.191   2.466   6.330
13533TIP3   OH240483   6.600   2.712   6.234
13533TIP3    H140484   6.695   2.700   6.239
13533TIP3    H240485   6.567   2.630   6.198
13534TIP3   OH240486   7.888   2.693   6.473
13534TIP3    H140487   7.801   2.731   6.467
13534TIP3    H240488   7.924   2.730   6.554
13535TIP3   OH240489   6.547   2.300   6.736
13535TIP3    H140490   6.491   2.336   6.667
13535TIP3    H240491   6.496   2.309   6.816
13536TIP3   OH240492   6.894   3.157   5.722
13536TIP3    H140493   6.854   3.127   5.639
13536TIP3    H240494   6.841   3.233   5.748
13537TIP3   OH240495   6.637   3.062   6.508
13537TIP3    H140496   6.586   3.136   6.539
13537TIP3    H240497   6.691   3.098   6.438
13538TIP3   OH240498   7.413   2.424   6.146
13538TIP3    H140499   7.371   2.402   6.229
13538TIP3    H240500   7.469   2.499   6.167
13539TIP3   OH240501   6.429   2.407   6.508
13539TIP3    H140502   6.484   2.482   6.532
13539TIP3    H240503   6.476   2.364   6.438
13540TIP3   OH240504   6.484   3.262   6.621
13540TIP3    H140505   6.471   3.351   6.587
13540TIP3    H240506   6.404   3.244   6.671
13541TIP3   OH240507   5.854   2.988   5.865
13541TIP3    H140508   5.824   3.008   5.776
13541TIP3    H240509   5.878   3.073   5.901
13542TIP3   OH240510   7.305   3.484   6.104
13542TIP3    H140511   7.220   3.476   6.148
13542TIP3    H240512   7.301   3.569   6.060
13543TIP3   OH240513   7.638   2.360   6.476
13543TIP3    H140514   7.553   2.383   6.440
13543TIP3    H240515   7.701   2.388   6.410
13544TIP3   OH240516   6.879   1.993   6.472
13544TIP3    H140517   6.874   1.901   6.497
13544TIP3    H240518   6.800   2.033   6.509
13545TIP3   OH240519   7.005   3.512   5.763
13545TIP3    H140520   7.058   3.434   5.750
13545TIP3    H240521   7.060   3.585   5.734
13546TIP3   OH240522   7.145   3.284   5.716
13546TIP3    H140523   7.071   3.224   5.716
13546TIP3    H240524   7.195   3.261   5.795
13547TIP3   OH240525   7.540   3.370   6.446
13547TIP3    H140526   7.518   3.298   6.387
13547TIP3    H240527   7.525   3.449   6.394
13548TIP3   OH240528   6.821   2.774   5.713
13548TIP3    H140529   6.738   2.818   5.695
13548TIP3    H240530   6.869   2.777   5.631
13549TIP3   OH240531   6.785   2.589   5.407
13549TIP3    H140532   6.852   2.637   5.457
13549TIP3    H240533   6.834   2.522   5.360
13550TIP3   OH240534   7.708   3.036   6.314
13550TIP3    H140535   7.623   3.081   6.311
13550TIP3    H240536   7.745   3.049   6.226
13551TIP3   OH240537   7.181   2.864   5.672
13551TIP3    H140538   7.126   2.894   5.745
13551TIP3    H240539   7.265   2.841   5.713
13552TIP3   OH240540   7.411   2.895   6.626
13552TIP3    H140541   7.404   2.978   6.672
13552TIP3    H240542   7.330   2.889   6.575
13553TIP3   OH240543   6.402   2.847   6.083
13553TIP3    H140544   6.370   2.787   6.016
13553TIP3    H240545   6.476   2.801   6.123
13554TIP3   OH240546   6.500   3.299   6.292
13554TIP3    H140547   6.580   3.259   6.258
13554TIP3    H240548   6.520   3.392   6.299
13555TIP3   OH240549   6.491   2.837   6.456
13555TIP3    H140550   6.530   2.801   6.376
13555TIP3    H240551   6.542   2.917   6.473
13556TIP3   OH240552   7.076   3.477   6.248
13556TIP3    H140553   7.054   3.560   6.291
13556TIP3    H240554   7.051   3.410   6.311
13557TIP3   OH240555   6.677   3.377   6.785
13557TIP3    H140556   6.615   3.434   6.829
13557TIP3    H240557   6.622   3.323   6.727
13558TIP3   OH240558   7.011   2.728   5.504
13558TIP3    H140559   7.071   2.785   5.552
13558TIP3    H240560   7.040   2.732   5.413
13559TIP3   OH240561   6.431   2.936   6.929
13559TIP3    H140562   6.430   3.031   6.942
13559TIP3    H240563   6.338   2.913   6.917
13560TIP3   OH240564   6.757   3.397   5.754
13560TIP3    H140565   6.839   3.444   5.765
13560TIP3    H240566   6.699   3.459   5.709
13561TIP3   OH240567   6.467   3.533   6.876
13561TIP3    H140568   6.439   3.538   6.784
13561TIP3    H240569   6.386   3.517   6.925
13562TIP3   OH240570   7.519   1.956   5.567
13562TIP3    H140571   7.442   1.977   5.621
13562TIP3    H240572   7.529   2.032   5.510
13563TIP3   OH240573   6.281   2.689   5.879
13563TIP3    H140574   6.202   2.737   5.852
13563TIP3    H240575   6.249   2.601   5.900
13564TIP3   OH240576   7.335   3.336   5.127
13564TIP3    H140577   7.339   3.430   5.107
13564TIP3    H240578   7.424   3.305   5.112
13565TIP3   OH240579   6.059   3.096   6.812
13565TIP3    H140580   5.992   3.076   6.747
13565TIP3    H240581   6.094   3.011   6.838
13566TIP3   OH240582   5.947   3.262   6.443
13566TIP3    H140583   6.040   3.254   6.422
13566TIP3    H240584   5.941   3.341   6.496
13567TIP3   OH240585   7.766   3.755   6.518
13567TIP3    H140586   7.770   3.660   6.528
13567TIP3    H240587   7.687   3.782   6.565
13568TIP3   OH240588   6.895   3.503   6.674
13568TIP3    H140589   6.878   3.597   6.680
13568TIP3    H240590   6.814   3.462   6.706
13569TIP3   OH240591   6.651   3.619   5.592
13569TIP3    H140592   6.608   3.599   5.509
13569TIP3    H240593   6.608   3.699   5.623
13570TIP3   OH240594   6.085   3.480   5.983
13570TIP3    H140595   6.137   3.469   6.063
13570TIP3    H240596   6.042   3.395   5.970
13571TIP3   OH240597   6.849   3.559   5.221
13571TIP3    H140598   6.900   3.484   5.188
13571TIP3    H240599   6.887   3.577   5.307
13572TIP3   OH240600   6.908   3.617   5.487
13572TIP3    H140601   6.822   3.612   5.530
13572TIP3    H240602   6.969   3.584   5.552
13573TIP3   OH240603   7.651   2.854   6.786
13573TIP3    H140604   7.569   2.864   6.737
13573TIP3    H240605   7.670   2.760   6.781
13574TIP3   OH240606   6.254   3.286   6.779
13574TIP3    H140607   6.306   3.276   6.859
13574TIP3    H240608   6.186   3.219   6.787
13575TIP3   OH240609   6.638   2.077   6.595
13575TIP3    H140610   6.553   2.041   6.571
13575TIP3    H240611   6.618   2.160   6.639
13576TIP3   OH240612   7.184   2.212   6.796
13576TIP3    H140613   7.255   2.187   6.856
13576TIP3    H240614   7.104   2.195   6.845
13577TIP3   OH240615   7.408   2.627   6.712
13577TIP3    H140616   7.369   2.624   6.800
13577TIP3    H240617   7.395   2.718   6.684
13578TIP3   OH240618   7.088   2.697   5.239
13578TIP3    H140619   7.046   2.706   5.154
13578TIP3    H240620   7.170   2.746   5.230
13579TIP3   OH240621   6.773   2.144   5.546
13579TIP3    H140622   6.748   2.151   5.638
13579TIP3    H240623   6.748   2.055   5.521
13580TIP3   OH240624   6.582   2.618   6.601
13580TIP3    H140625   6.542   2.624   6.688
13580TIP3    H240626   6.556   2.698   6.556
13581TIP3   OH240627   6.465   2.497   6.123
13581TIP3    H140628   6.375   2.474   6.148
13581TIP3    H240629   6.474   2.463   6.034
13582TIP3   OH240630   6.943   2.570   5.850
13582TIP3    H140631   6.897   2.644   5.811
13582TIP3    H240632   7.002   2.539   5.782
13583TIP3   OH240633   7.133   2.839   6.924
13583TIP3    H140634   7.106   2.771   6.985
13583TIP3    H240635   7.226   2.853   6.943
13584TIP3   OH240636   7.110   2.586   6.075
13584TIP3    H140637   7.042   2.608   6.011
13584TIP3    H240638   7.158   2.514   6.035
13585TIP3   OH240639   6.415   2.613   6.828
13585TIP3    H140640   6.467   2.667   6.888
13585TIP3    H240641   6.398   2.533   6.878
13586TIP3   OH240642   6.449   2.100   5.530
13586TIP3    H140643   6.446   2.107   5.625
13586TIP3    H240644   6.375   2.153   5.499
13587TIP3   OH240645   6.011   2.156   6.406
13587TIP3    H140646   6.076   2.193   6.466
13587TIP3    H240647   6.060   2.138   6.326
13588TIP3   OH240648   5.910   2.132   5.905
13588TIP3    H140649   5.956   2.168   5.829
13588TIP3    H240650   5.849   2.201   5.931
13589TIP3   OH240651   7.164   2.837   6.503
13589TIP3    H140652   7.186   2.770   6.439
13589TIP3    H240653   7.115   2.790   6.571
13590TIP3   OH240654   6.829   2.287   6.176
13590TIP3    H140655   6.751   2.287   6.231
13590TIP3    H240656   6.902   2.278   6.237
13591TIP3   OH240657   6.224   2.375   6.180
13591TIP3    H140658   6.136   2.377   6.142
13591TIP3    H240659   6.253   2.284   6.167
13592TIP3   OH240660   6.476   2.373   5.878
13592TIP3    H140661   6.571   2.384   5.869
13592TIP3    H240662   6.441   2.390   5.790
13593TIP3   OH240663   7.271   2.375   6.384
13593TIP3    H140664   7.252   2.393   6.476
13593TIP3    H240665   7.203   2.313   6.357
13594TIP3   OH240666   6.365   2.393   5.627
13594TIP3    H140667   6.300   2.350   5.572
13594TIP3    H240668   6.419   2.443   5.566
13595TIP3   OH240669   7.465   4.097   6.599
13595TIP3    H140670   7.478   4.110   6.505
13595TIP3    H240671   7.499   4.177   6.639
13596TIP3   OH240672   6.409   3.203   7.012
13596TIP3    H140673   6.491   3.220   7.058
13596TIP3    H240674   6.342   3.212   7.079
13597TIP3   OH240675   6.876   2.660   6.281
13597TIP3    H140676   6.941   2.609   6.232
13597TIP3    H240677   6.873   2.618   6.367
13598TIP3   OH240678   6.365   2.126   6.177
13598TIP3    H140679   6.335   2.053   6.231
13598TIP3    H240680   6.394   2.085   6.095
13599TIP3   OH240681   6.848   2.563   6.544
13599TIP3    H140682   6.761   2.592   6.569
13599TIP3    H240683   6.907   2.614   6.599
13600TIP3   OH240684   6.585   2.907   5.655
13600TIP3    H140685   6.508   2.858   5.628
13600TIP3    H240686   6.559   2.951   5.736
13601TIP3   OH240687   7.474   3.173   6.265
13601TIP3    H140688   7.510   3.223   6.192
13601TIP3    H240689   7.395   3.131   6.231
13602TIP3   OH240690   7.037   2.232   5.570
13602TIP3    H140691   6.942   2.219   5.559
13602TIP3    H240692   7.046   2.327   5.580
13603TIP3   OH240693   7.006   3.245   6.698
13603TIP3    H140694   7.059   3.239   6.777
13603TIP3    H240695   6.972   3.334   6.699
13604TIP3   OH240696   7.107   2.496   5.633
13604TIP3    H140697   7.202   2.500   5.646
13604TIP3    H240698   7.086   2.575   5.583
13605TIP3   OH240699   6.261   2.925   6.309
13605TIP3    H140700   6.300   2.911   6.223
13605TIP3    H240701   6.328   2.898   6.371
13606TIP3   OH240702   6.736   3.075   5.502
13606TIP3    H140703   6.687   3.158   5.499
13606TIP3    H240704   6.682   3.017   5.554
13607TIP3   OH240705   6.154   2.872   6.950
13607TIP3    H140706   6.166   2.848   7.041
13607TIP3    H240707   6.080   2.819   6.920
13608TIP3   OH240708   6.911   3.004   6.954
13608TIP3    H140709   6.854   2.978   6.881
13608TIP3    H240710   6.993   2.958   6.938
13609TIP3   OH240711   7.151   3.546   6.574
13609TIP3    H140712   7.058   3.524   6.580
13609TIP3    H240713   7.172   3.585   6.658
13610TIP3   OH240714   7.519   2.586   5.452
13610TIP3    H140715   7.461   2.540   5.391
13610TIP3    H240716   7.527   2.674   5.416
13611TIP3   OH240717   7.780   3.476   6.534
13611TIP3    H140718   7.687   3.452   6.533
13611TIP3    H240719   7.815   3.441   6.451
13612TIP3   OH240720   7.262   3.406   5.392
13612TIP3    H140721   7.237   3.335   5.451
13612TIP3    H240722   7.279   3.364   5.308
13613TIP3   OH240723   7.250   3.035   6.162
13613TIP3    H140724   7.160   3.014   6.189
13613TIP3    H240725   7.282   2.954   6.123
13614TIP3   OH240726   6.368   3.264   5.927
13614TIP3    H140727   6.363   3.346   5.878
13614TIP3    H240728   6.338   3.287   6.015
13615TIP3   OH240729   5.960   2.558   5.696
13615TIP3    H140730   6.003   2.641   5.718
13615TIP3    H240731   5.879   2.559   5.748
13616TIP3   OH240732   6.480   3.021   5.875
13616TIP3    H140733   6.451   3.111   5.893
13616TIP3    H240734   6.457   2.972   5.954
13617TIP3   OH240735   6.303   3.511   5.815
13617TIP3    H140736   6.221   3.515   5.864
13617TIP3    H240737   6.344   3.596   5.831
13618TIP3   OH240738   7.045   3.257   6.423
13618TIP3    H140739   7.029   3.249   6.517
13618TIP3    H240740   7.132   3.220   6.410
13619TIP3   OH240741   7.025   3.141   5.281
13619TIP3    H140742   7.080   3.111   5.354
13619TIP3    H240743   6.939   3.101   5.299
13620TIP3   OH240744   7.302   3.758   6.452
13620TIP3    H140745   7.231   3.696   6.468
13620TIP3    H240746   7.270   3.813   6.380
13621TIP3   OH240747   7.345   3.613   5.091
13621TIP3    H140748   7.365   3.665   5.014
13621TIP3    H240749   7.274   3.661   5.135
13622TIP3   OH240750   6.392   2.344   6.963
13622TIP3    H140751   6.319   2.284   6.953
13622TIP3    H240752   6.439   2.313   7.040
13623TIP3   OH240753   7.207   3.046   5.463
13623TIP3    H140754   7.192   2.994   5.542
13623TIP3    H240755   7.302   3.056   5.458
13624TIP3   OH240756   6.123   3.482   6.604
13624TIP3    H140757   6.163   3.413   6.657
13624TIP3    H240758   6.105   3.552   6.666
13625TIP3   OH240759   6.377   3.112   5.298
13625TIP3    H140760   6.391   3.021   5.272
13625TIP3    H240761   6.367   3.109   5.394
13626TIP3   OH240762   6.318   3.122   5.573
13626TIP3    H140763   6.372   3.099   5.648
13626TIP3    H240764   6.316   3.217   5.573
13627TIP3   OH240765   6.052   2.810   5.775
13627TIP3    H140766   5.988   2.860   5.826
13627TIP3    H240767   6.073   2.867   5.701
13628TIP3   OH240768   7.213   2.441   6.646
13628TIP3    H140769   7.292   2.486   6.677
13628TIP3    H240770   7.205   2.365   6.702
13629TIP3   OH240771   7.108   2.183   5.836
13629TIP3    H140772   7.084   2.202   5.745
13629TIP3    H240773   7.152   2.262   5.866
13630TIP3   OH240774   6.586   3.300   5.492
13630TIP3    H140775   6.502   3.325   5.531
13630TIP3    H240776   6.612   3.377   5.441
13631TIP3   OH240777   6.756   2.382   5.924
13631TIP3    H140778   6.818   2.450   5.898
13631TIP3    H240779   6.779   2.361   6.015
13632TIP3   OH240780   7.052   2.676   6.698
13632TIP3    H140781   7.079   2.719   6.779
13632TIP3    H240782   7.103   2.595   6.696
13633TIP3   OH240783   6.921   2.078   6.010
13633TIP3    H140784   6.897   2.156   6.062
13633TIP3    H240785   6.991   2.109   5.953
13634TIP3   OH240786   6.337   3.395   5.571
13634TIP3    H140787   6.320   3.464   5.507
13634TIP3    H240788   6.324   3.436   5.656
13635TIP3   OH240789   6.437   2.100   5.810
13635TIP3    H140790   6.424   2.189   5.842
13635TIP3    H240791   6.531   2.086   5.816
13636TIP3   OH240792   7.675   2.582   6.694
13636TIP3    H140793   7.580   2.586   6.705
13636TIP3    H240794   7.689   2.531   6.614
13637TIP3   OH240795   7.338   2.776   6.074
13637TIP3    H140796   7.260   2.721   6.087
13637TIP3    H240797   7.404   2.736   6.131
13638TIP3   OH240798   6.077   2.983   5.556
13638TIP3    H140799   6.148   3.047   5.567
13638TIP3    H240800   6.110   2.922   5.490
13639TIP3   OH240801   5.979   2.280   5.685
13639TIP3    H140802   5.995   2.374   5.698
13639TIP3    H240803   5.921   2.276   5.608
13640TIP3   OH240804   7.323   3.752   6.025
13640TIP3    H140805   7.278   3.801   5.956
13640TIP3    H240806   7.416   3.764   6.007
13641TIP3   OH240807   6.371   2.002   6.566
13641TIP3    H140808   6.343   1.965   6.483
13641TIP3    H240809   6.323   1.951   6.632
13642TIP3   OH240810   5.903   3.257   5.948
13642TIP3    H140811   5.865   3.297   6.026
13642TIP3    H240812   5.861   3.302   5.875
13643TIP3   OH240813   6.104   3.771   6.980
13643TIP3    H140814   6.185   3.794   7.025
13643TIP3    H240815   6.092   3.678   6.998
13644TIP3   OH240816   6.569   3.720   7.051
13644TIP3    H140817   6.659   3.691   7.070
13644TIP3    H240818   6.537   3.657   6.986
13645TIP3   OH240819   6.531   3.309   5.176
13645TIP3    H140820   6.486   3.240   5.226
13645TIP3    H240821   6.605   3.264   5.136
13646TIP3   OH240822   7.195   3.647   6.826
13646TIP3    H140823   7.214   3.575   6.887
13646TIP3    H240824   7.268   3.707   6.837
13647TIP3   OH240825   6.975   3.345   5.104
13647TIP3    H140826   7.008   3.281   5.167
13647TIP3    H240827   7.034   3.338   5.030
13648TIP3   OH240828   6.205   3.196   7.205
13648TIP3    H140829   6.229   3.104   7.214
13648TIP3    H240830   6.118   3.195   7.164
13649TIP3   OH240831   6.198   2.794   5.398
13649TIP3    H140832   6.247   2.770   5.476
13649TIP3    H240833   6.265   2.816   5.333
13650TIP3   OH240834   6.834   3.277   6.987
13650TIP3    H140835   6.791   3.300   6.904
13650TIP3    H240836   6.875   3.192   6.970
13651TIP3   OH240837   6.759   3.021   5.234
13651TIP3    H140838   6.740   3.033   5.327
13651TIP3    H240839   6.744   2.928   5.218
13652TIP3   OH240840   7.311   3.316   6.594
13652TIP3    H140841   7.390   3.343   6.547
13652TIP3    H240842   7.250   3.390   6.584
13653TIP3   OH240843   6.318   2.943   7.206
13653TIP3    H140844   6.392   2.927   7.147
13653TIP3    H240845   6.358   2.956   7.292
13654TIP3   OH240846   6.367   2.738   5.611
13654TIP3    H140847   6.350   2.713   5.702
13654TIP3    H240848   6.419   2.665   5.576
13655TIP3   OH240849   6.652   2.788   6.854
13655TIP3    H140850   6.584   2.850   6.880
13655TIP3    H240851   6.705   2.837   6.792
13656TIP3   OH240852   6.515   2.554   5.463
13656TIP3    H140853   6.488   2.564   5.371
13656TIP3    H240854   6.610   2.563   5.461
13657TIP3   OH240855   7.187   3.196   6.942
13657TIP3    H140856   7.258   3.158   6.890
13657TIP3    H240857   7.184   3.140   7.020
13658TIP3   OH240858   7.305   2.840   5.145
13658TIP3    H140859   7.296   2.804   5.057
13658TIP3    H240860   7.282   2.933   5.135
13659TIP3   OH240861   6.792   2.587   6.976
13659TIP3    H140862   6.799   2.514   6.914
13659TIP3    H240863   6.749   2.657   6.926
13660TIP3   OH240864   6.803   2.390   6.773
13660TIP3    H140865   6.831   2.426   6.689
13660TIP3    H240866   6.714   2.360   6.758
13661TIP3   OH240867   6.808   2.944   6.690
13661TIP3    H140868   6.895   2.969   6.657
13661TIP3    H240869   6.747   2.984   6.627
13662TIP3   OH240870   7.400   2.876   7.021
13662TIP3    H140871   7.441   2.790   7.026
13662TIP3    H240872   7.472   2.937   7.008
13663TIP3   OH240873   7.426   3.141   6.766
13663TIP3    H140874   7.374   3.201   6.713
13663TIP3    H240875   7.516   3.154   6.736
13664TIP3   OH240876   6.681   2.673   7.220
13664TIP3    H140877   6.612   2.609   7.239
13664TIP3    H240878   6.710   2.651   7.132
13665TIP3   OH240879   6.920   2.159   6.880
13665TIP3    H140880   6.881   2.240   6.845
13665TIP3    H240881   6.852   2.093   6.868
13666TIP3   OH240882   7.049   2.628   7.079
13666TIP3    H140883   7.037   2.614   7.173
13666TIP3    H240884   6.963   2.609   7.041
13667TIP3   OH240885   7.298   2.586   6.954
13667TIP3    H140886   7.218   2.584   7.007
13667TIP3    H240887   7.367   2.561   7.015
13668TIP3   OH240888   7.531   2.548   7.104
13668TIP3    H140889   7.544   2.454   7.110
13668TIP3    H240890   7.527   2.577   7.196
13669TIP3   OH240891   6.503   2.472   7.296
13669TIP3    H140892   6.505   2.385   7.257
13669TIP3    H240893   6.542   2.460   7.383
13670TIP3   OH240894   6.986   2.134   7.145
13670TIP3    H140895   7.054   2.067   7.137
13670TIP3    H240896   6.955   2.147   7.055
13671TIP3   OH240897   7.084   2.347   7.290
13671TIP3    H140898   7.052   2.275   7.235
13671TIP3    H240899   7.012   2.410   7.289
13672TIP3   OH240900   6.338   3.602   5.389
13672TIP3    H140901   6.429   3.583   5.364
13672TIP3    H240902   6.301   3.646   5.312
13673TIP3   OH240903   5.804   2.983   5.570
13673TIP3    H140904   5.899   2.994   5.567
13673TIP3    H240905   5.789   2.897   5.530
13674TIP3   OH240906   5.708   3.564   6.034
13674TIP3    H140907   5.643   3.510   5.988
13674TIP3    H240908   5.753   3.503   6.092
13675TIP3   OH240909   5.853   3.396   6.200
13675TIP3    H140910   5.849   3.325   6.265
13675TIP3    H240911   5.906   3.464   6.243
13676TIP3   OH240912   7.594   3.803   6.011
13676TIP3    H140913   7.611   3.828   6.102
13676TIP3    H240914   7.650   3.860   5.959
13677TIP3   OH240915   7.613   3.834   6.290
13677TIP3    H140916   7.566   3.750   6.288
13677TIP3    H240917   7.682   3.821   6.355
13678TIP3   OH240918   7.675   3.541   6.867
13678TIP3    H140919   7.603   3.552   6.929
13678TIP3    H240920   7.717   3.627   6.863
13679TIP3   OH240921   7.487   3.048   5.470
13679TIP3    H140922   7.544   3.120   5.443
13679TIP3    H240923   7.531   3.009   5.546
13680TIP3   OH240924   7.616   2.906   5.671
13680TIP3    H140925   7.548   2.870   5.729
13680TIP3    H240926   7.680   2.945   5.731
13681TIP3   OH240927   7.660   3.311   6.107
13681TIP3    H140928   7.711   3.242   6.064
13681TIP3    H240929   7.661   3.384   6.044
13682TIP3   OH240930   7.471   3.594   6.301
13682TIP3    H140931   7.405   3.640   6.352
13682TIP3    H240932   7.422   3.554   6.229
13683TIP3   OH240933   7.521   2.825   5.314
13683TIP3    H140934   7.447   2.825   5.253
13683TIP3    H240935   7.507   2.903   5.367
13684TIP3   OH240936   7.362   2.466   5.261
13684TIP3    H140937   7.318   2.504   5.185
13684TIP3    H240938   7.359   2.372   5.247
13685TIP3   OH240939   7.409   2.770   5.806
13685TIP3    H140940   7.413   2.676   5.792
13685TIP3    H240941   7.389   2.780   5.899
13686TIP3   OH240942   6.026   2.836   6.586
13686TIP3    H140943   6.016   2.800   6.497
13686TIP3    H240944   6.119   2.827   6.605
13687TIP3   OH240945   7.682   3.184   6.668
13687TIP3    H140946   7.750   3.120   6.651
13687TIP3    H240947   7.682   3.241   6.591
13688TIP3   OH240948   7.863   2.973   6.659
13688TIP3    H140949   7.789   2.933   6.705
13688TIP3    H240950   7.938   2.919   6.681
13689TIP3   OH240951   7.333   2.192   5.222
13689TIP3    H140952   7.397   2.171   5.290
13689TIP3    H240953   7.250   2.159   5.256
13690TIP3   OH240954   7.398   2.492   5.692
13690TIP3    H140955   7.445   2.410   5.704
13690TIP3    H240956   7.439   2.532   5.615
13691TIP3   OH240957   7.553   2.655   6.218
13691TIP3    H140958   7.633   2.673   6.169
13691TIP3    H240959   7.567   2.697   6.304
13692TIP3   OH240960   7.628   2.806   6.446
13692TIP3    H140961   7.556   2.834   6.502
13692TIP3    H240962   7.657   2.886   6.403
13693TIP3   OH240963   6.239   2.508   7.212
13693TIP3    H140964   6.332   2.510   7.233
13693TIP3    H240965   6.208   2.425   7.248
13694TIP3   OH240966   8.089   2.403   6.983
13694TIP3    H140967   8.154   2.349   6.939
13694TIP3    H240968   8.049   2.455   6.913
13695TIP3   OH240969   7.516   2.244   5.744
13695TIP3    H140970   7.562   2.229   5.827
13695TIP3    H240971   7.453   2.172   5.738
13696TIP3   OH240972   6.213   2.231   6.580
13696TIP3    H140973   6.263   2.151   6.589
13696TIP3    H240974   6.279   2.298   6.561
13697TIP3   OH240975   5.989   2.512   6.613
13697TIP3    H140976   6.042   2.493   6.536
13697TIP3    H240977   6.041   2.574   6.663
13698TIP3   OH240978   7.937   2.521   6.789
13698TIP3    H140979   7.855   2.562   6.817
13698TIP3    H240980   7.910   2.447   6.734
13699TIP3   OH240981   7.559   2.155   5.381
13699TIP3    H140982   7.608   2.095   5.325
13699TIP3    H240983   7.613   2.234   5.384
13700TIP3   OH240984   5.984   1.986   6.125
13700TIP3    H140985   5.902   1.983   6.173
13700TIP3    H240986   5.968   2.047   6.052
13701TIP3   OH240987   7.142   3.715   5.651
13701TIP3    H140988   7.203   3.706   5.577
13701TIP3    H240989   7.185   3.777   5.710
13702TIP3   OH240990   6.239   2.105   6.971
13702TIP3    H140991   6.175   2.088   7.040
13702TIP3    H240992   6.217   2.043   6.901
13703TIP3   OH240993   6.240   3.501   7.038
13703TIP3    H140994   6.147   3.480   7.032
13703TIP3    H240995   6.260   3.497   7.132
13704TIP3   OH240996   6.406   3.530   6.605
13704TIP3    H140997   6.313   3.539   6.588
13704TIP3    H240998   6.448   3.546   6.520
13705TIP3   OH240999   6.860   3.781   6.713
13705TIP3    H141000   6.892   3.778   6.803
13705TIP3    H241001   6.926   3.834   6.666
13706TIP3   OH241002   7.048   3.940   6.589
13706TIP3    H141003   7.113   3.888   6.542
13706TIP3    H241004   7.100   4.001   6.643
13707TIP3   OH241005   7.847   2.278   6.677
13707TIP3    H141006   7.763   2.278   6.631
13707TIP3    H241007   7.878   2.188   6.671
13708TIP3   OH241008   6.091   3.768   6.692
13708TIP3    H141009   6.016   3.821   6.665
13708TIP3    H241010   6.096   3.779   6.787
13709TIP3   OH241011   6.312   3.814   6.521
13709TIP3    H141012   6.237   3.801   6.580
13709TIP3    H241013   6.272   3.836   6.437
13710TIP3   OH241014   6.806   3.838   6.208
13710TIP3    H141015   6.713   3.817   6.199
13710TIP3    H241016   6.809   3.913   6.267
13711TIP3   OH241017   7.040   3.747   6.317
13711TIP3    H141018   6.952   3.765   6.284
13711TIP3    H241019   7.096   3.812   6.275
13712TIP3   OH241020   7.242   3.920   6.227
13712TIP3    H141021   7.233   4.005   6.185
13712TIP3    H241022   7.270   3.861   6.157
13713TIP3   OH241023   6.035   3.570   6.354
13713TIP3    H141024   6.066   3.546   6.441
13713TIP3    H241025   6.105   3.541   6.295
13714TIP3   OH241026   6.242   3.460   6.212
13714TIP3    H141027   6.249   3.375   6.256
13714TIP3    H241028   6.325   3.504   6.231
13715TIP3   OH241029   7.055   2.194   6.316
13715TIP3    H141030   7.016   2.122   6.366
13715TIP3    H241031   7.124   2.152   6.264
13716TIP3   OH241032   7.560   2.115   6.206
13716TIP3    H141033   7.595   2.164   6.132
13716TIP3    H241034   7.466   2.137   6.206
13717TIP3   OH241035   7.673   2.190   5.967
13717TIP3    H141036   7.741   2.128   5.939
13717TIP3    H241037   7.712   2.276   5.954
13718TIP3   OH241038   6.285   1.902   6.320
13718TIP3    H141039   6.197   1.866   6.333
13718TIP3    H241040   6.342   1.825   6.313
13719TIP3   OH241041   6.090   1.791   5.950
13719TIP3    H141042   6.129   1.842   5.879
13719TIP3    H241043   6.062   1.857   6.014
13720TIP3   OH241044   6.772   1.942   6.210
13720TIP3    H141045   6.823   1.987   6.143
13720TIP3    H241046   6.813   1.968   6.293
13721TIP3   OH241047   7.271   2.076   6.187
13721TIP3    H141048   7.288   2.041   6.099
13721TIP3    H241049   7.278   2.001   6.245
13722TIP3   OH241050   7.329   2.034   5.752
13722TIP3    H141051   7.250   2.081   5.777
13722TIP3    H241052   7.319   1.947   5.790
13723TIP3   OH241053   5.783   3.381   5.733
13723TIP3    H141054   5.700   3.349   5.696
13723TIP3    H241055   5.791   3.470   5.700
13724TIP3   OH241056   6.224   1.930   5.730
13724TIP3    H141057   6.270   1.870   5.672
13724TIP3    H241058   6.293   1.987   5.764
13725TIP3   OH241059   6.713   2.134   5.817
13725TIP3    H141060   6.770   2.078   5.871
13725TIP3    H241061   6.727   2.222   5.851
13726TIP3   OH241062   6.595   3.529   5.324
13726TIP3    H141063   6.679   3.556   5.286
13726TIP3    H241064   6.564   3.459   5.266
13727TIP3   OH241065   7.298   3.675   5.425
13727TIP3    H141066   7.291   3.580   5.417
13727TIP3    H241067   7.255   3.708   5.346
13728TIP3   OH241068   6.518   2.214   7.198
13728TIP3    H141069   6.480   2.134   7.233
13728TIP3    H241070   6.611   2.210   7.223
13729TIP3   OH241071   6.768   2.190   7.320
13729TIP3    H141072   6.844   2.167   7.267
13729TIP3    H241073   6.758   2.117   7.381
13730TIP3   OH241074   5.905   3.373   5.380
13730TIP3    H141075   5.909   3.388   5.475
13730TIP3    H241076   5.985   3.326   5.360
13731TIP3   OH241077   7.593   2.277   7.105
13731TIP3    H141078   7.611   2.249   7.194
13731TIP3    H241079   7.678   2.272   7.061
13732TIP3   OH241080   7.518   3.827   6.617
13732TIP3    H141081   7.444   3.796   6.564
13732TIP3    H241082   7.506   3.922   6.622
13733TIP3   OH241083   8.778   3.194   5.365
13733TIP3    H141084   8.750   3.282   5.338
13733TIP3    H241085   8.705   3.137   5.339
13734TIP3   OH241086   8.779   3.182   5.769
13734TIP3    H141087   8.829   3.168   5.850
13734TIP3    H241088   8.732   3.100   5.755
13735TIP3   OH241089   8.084   3.046   6.118
13735TIP3    H141090   8.125   2.996   6.189
13735TIP3    H241091   8.158   3.072   6.063
13736TIP3   OH241092   9.071   3.482   5.439
13736TIP3    H141093   9.036   3.421   5.504
13736TIP3    H241094   9.078   3.566   5.485
13737TIP3   OH241095   8.075   3.476   5.803
13737TIP3    H141096   8.056   3.383   5.810
13737TIP3    H241097   8.170   3.482   5.798
13738TIP3   OH241098   7.760   2.678   5.588
13738TIP3    H141099   7.723   2.763   5.613
13738TIP3    H241100   7.687   2.632   5.546
13739TIP3   OH241101   7.842   2.996   5.813
13739TIP3    H141102   7.894   2.918   5.838
13739TIP3    H241103   7.908   3.061   5.789
13740TIP3   OH241104   8.715   3.929   5.454
13740TIP3    H141105   8.745   3.866   5.389
13740TIP3    H241106   8.716   3.881   5.536
13741TIP3   OH241107   8.593   3.408   5.777
13741TIP3    H141108   8.636   3.329   5.745
13741TIP3    H241109   8.664   3.461   5.814
13742TIP3   OH241110   9.491   2.669   5.774
13742TIP3    H141111   9.534   2.722   5.841
13742TIP3    H241112   9.431   2.729   5.730
13743TIP3   OH241113   9.010   2.894   5.811
13743TIP3    H141114   9.037   2.809   5.844
13743TIP3    H241115   8.961   2.875   5.731
13744TIP3   OH241116   8.357   2.554   5.770
13744TIP3    H141117   8.335   2.627   5.712
13744TIP3    H241118   8.302   2.482   5.740
13745TIP3   OH241119   9.032   2.655   5.417
13745TIP3    H141120   9.096   2.641   5.487
13745TIP3    H241121   9.083   2.688   5.344
13746TIP3   OH241122   7.980   2.771   5.903
13746TIP3    H141123   8.064   2.754   5.946
13746TIP3    H241124   7.983   2.720   5.822
13747TIP3   OH241125   8.396   2.970   5.719
13747TIP3    H141126   8.490   2.955   5.725
13747TIP3    H241127   8.361   2.888   5.685
13748TIP3   OH241128   9.587   2.836   5.968
13748TIP3    H141129   9.578   2.931   5.964
13748TIP3    H241130   9.681   2.821   5.982
13749TIP3   OH241131   8.336   2.562   6.224
13749TIP3    H141132   8.287   2.597   6.150
13749TIP3    H241133   8.282   2.579   6.301
13750TIP3   OH241134   8.672   3.404   5.226
13750TIP3    H141135   8.639   3.386   5.138
13750TIP3    H241136   8.631   3.487   5.250
13751TIP3   OH241137   8.426   3.336   5.986
13751TIP3    H141138   8.374   3.409   6.022
13751TIP3    H241139   8.474   3.375   5.914
13752TIP3   OH241140   9.199   2.656   5.630
13752TIP3    H141141   9.159   2.631   5.713
13752TIP3    H241142   9.243   2.739   5.649
13753TIP3   OH241143   8.229   2.666   5.991
13753TIP3    H141144   8.283   2.742   6.014
13753TIP3    H241145   8.275   2.624   5.919
13754TIP3   OH241146   8.274   3.540   6.097
13754TIP3    H141147   8.261   3.629   6.066
13754TIP3    H241148   8.195   3.521   6.148
13755TIP3   OH241149   7.658   3.239   5.362
13755TIP3    H141150   7.620   3.249   5.275
13755TIP3    H241151   7.680   3.329   5.388
13756TIP3   OH241152   9.082   3.733   5.568
13756TIP3    H141153   9.002   3.718   5.619
13756TIP3    H241154   9.067   3.818   5.526
13757TIP3   OH241155   9.343   2.573   5.986
13757TIP3    H141156   9.252   2.598   5.967
13757TIP3    H241157   9.391   2.593   5.906
13758TIP3   OH241158   8.675   2.254   5.956
13758TIP3    H141159   8.670   2.162   5.982
13758TIP3    H241160   8.597   2.294   5.995
13759TIP3   OH241161   8.812   3.790   5.232
13759TIP3    H141162   8.860   3.708   5.227
13759TIP3    H241163   8.876   3.857   5.207
13760TIP3   OH241164   8.960   3.565   5.198
13760TIP3    H141165   8.923   3.490   5.151
13760TIP3    H241166   8.998   3.528   5.277
13761TIP3   OH241167   9.294   3.627   5.918
13761TIP3    H141168   9.275   3.553   5.860
13761TIP3    H241169   9.280   3.705   5.863
13762TIP3   OH241170   8.611   3.034   5.205
13762TIP3    H141171   8.529   3.082   5.189
13762TIP3    H241172   8.653   3.030   5.119
13763TIP3   OH241173   8.567   2.844   4.888
13763TIP3    H141174   8.633   2.890   4.938
13763TIP3    H241175   8.615   2.775   4.842
13764TIP3   OH241176   9.482   3.300   5.748
13764TIP3    H141177   9.391   3.329   5.757
13764TIP3    H241178   9.500   3.308   5.655
13765TIP3   OH241179   8.945   3.105   5.172
13765TIP3    H141180   8.894   3.135   5.247
13765TIP3    H241181   9.029   3.079   5.209
13766TIP3   OH241182   9.169   3.162   6.128
13766TIP3    H141183   9.161   3.244   6.175
13766TIP3    H241184   9.089   3.156   6.076
13767TIP3   OH241185   8.195   3.101   5.567
13767TIP3    H141186   8.158   3.042   5.501
13767TIP3    H241187   8.268   3.052   5.605
13768TIP3   OH241188   8.341   3.528   5.715
13768TIP3    H141189   8.313   3.513   5.625
13768TIP3    H241190   8.428   3.490   5.720
13769TIP3   OH241191   8.295   3.100   5.942
13769TIP3    H141192   8.334   3.064   5.862
13769TIP3    H241193   8.343   3.181   5.957
13770TIP3   OH241194   8.865   3.717   5.725
13770TIP3    H141195   8.842   3.801   5.764
13770TIP3    H241196   8.840   3.653   5.792
13771TIP3   OH241197   8.468   3.634   6.272
13771TIP3    H141198   8.409   3.694   6.317
13771TIP3    H241199   8.411   3.585   6.213
13772TIP3   OH241200   8.792   2.971   4.991
13772TIP3    H141201   8.848   3.031   5.040
13772TIP3    H241202   8.825   2.976   4.901
13773TIP3   OH241203   8.226   3.178   6.414
13773TIP3    H141204   8.231   3.272   6.430
13773TIP3    H241205   8.132   3.160   6.405
13774TIP3   OH241206   8.564   3.656   5.257
13774TIP3    H141207   8.637   3.717   5.250
13774TIP3    H241208   8.496   3.693   5.201
13775TIP3   OH241209   8.258   3.797   6.351
13775TIP3    H141210   8.230   3.805   6.260
13775TIP3    H241211   8.178   3.776   6.400
13776TIP3   OH241212   9.324   2.201   5.086
13776TIP3    H141213   9.240   2.212   5.131
13776TIP3    H241214   9.313   2.249   5.004
13777TIP3   OH241215   8.066   2.952   5.361
13777TIP3    H141216   7.994   3.004   5.326
13777TIP3    H241217   8.029   2.865   5.375
13778TIP3   OH241218   7.859   3.353   6.303
13778TIP3    H141219   7.790   3.335   6.240
13778TIP3    H241220   7.893   3.267   6.327
13779TIP3   OH241221   7.706   3.545   5.950
13779TIP3    H141222   7.800   3.562   5.960
13779TIP3    H241223   7.663   3.623   5.985
13780TIP3   OH241224   9.510   3.988   5.975
13780TIP3    H141225   9.521   3.894   5.986
13780TIP3    H241226   9.430   4.009   6.024
13781TIP3   OH241227   8.654   3.777   6.129
13781TIP3    H141228   8.655   3.864   6.168
13781TIP3    H241229   8.587   3.730   6.179
13782TIP3   OH241230   8.452   3.890   5.069
13782TIP3    H141231   8.409   3.859   4.989
13782TIP3    H241232   8.402   3.966   5.096
13783TIP3   OH241233   7.876   3.742   5.460
13783TIP3    H141234   7.925   3.730   5.541
13783TIP3    H241235   7.831   3.659   5.447
13784TIP3   OH241236   8.651   3.812   4.702
13784TIP3    H141237   8.714   3.758   4.654
13784TIP3    H241238   8.687   3.817   4.790
13785TIP3   OH241239   8.705   3.849   4.975
13785TIP3    H141240   8.615   3.855   5.007
13785TIP3    H241241   8.754   3.815   5.050
13786TIP3   OH241242   9.408   3.125   6.309
13786TIP3    H141243   9.331   3.144   6.256
13786TIP3    H241244   9.428   3.034   6.291
13787TIP3   OH241245   8.055   3.544   6.265
13787TIP3    H141246   8.103   3.536   6.348
13787TIP3    H241247   7.984   3.480   6.273
13788TIP3   OH241248   8.439   2.345   6.081
13788TIP3    H141249   8.355   2.311   6.049
13788TIP3    H241250   8.417   2.425   6.127
13789TIP3   OH241251   8.978   2.466   6.287
13789TIP3    H141252   9.048   2.440   6.347
13789TIP3    H241253   8.897   2.450   6.336
13790TIP3   OH241254   9.174   2.889   6.187
13790TIP3    H141255   9.142   2.879   6.276
13790TIP3    H241256   9.164   2.982   6.168
13791TIP3   OH241257   8.881   2.941   4.731
13791TIP3    H141258   8.822   2.948   4.656
13791TIP3    H241259   8.948   3.008   4.716
13792TIP3   OH241260   8.594   2.380   5.050
13792TIP3    H141261   8.555   2.389   5.137
13792TIP3    H241262   8.556   2.299   5.015
13793TIP3   OH241263   8.379   2.878   6.089
13793TIP3    H141264   8.335   2.885   6.173
13793TIP3    H241265   8.357   2.960   6.044
13794TIP3   OH241266   8.258   2.755   5.611
13794TIP3    H141267   8.169   2.732   5.637
13794TIP3    H241268   8.267   2.723   5.522
13795TIP3   OH241269   8.731   2.833   5.344
13795TIP3    H141270   8.683   2.905   5.303
13795TIP3    H241271   8.785   2.797   5.274
13796TIP3   OH241272   8.923   3.091   6.411
13796TIP3    H141273   8.894   3.024   6.473
13796TIP3    H241274   9.015   3.106   6.434
13797TIP3   OH241275   8.892   2.843   5.568
13797TIP3    H141276   8.823   2.866   5.506
13797TIP3    H241277   8.936   2.768   5.529
13798TIP3   OH241278   8.221   2.894   6.313
13798TIP3    H141279   8.231   2.960   6.381
13798TIP3    H241280   8.202   2.813   6.360
13799TIP3   OH241281   8.259   2.367   5.029
13799TIP3    H141282   8.249   2.372   5.124
13799TIP3    H241283   8.181   2.410   4.995
13800TIP3   OH241284   7.808   2.410   5.894
13800TIP3    H141285   7.879   2.448   5.946
13800TIP3    H241286   7.845   2.398   5.807
13801TIP3   OH241287   7.708   2.390   5.390
13801TIP3    H141288   7.753   2.427   5.315
13801TIP3    H241289   7.644   2.457   5.415
13802TIP3   OH241290   8.939   3.094   5.985
13802TIP3    H141291   8.972   3.029   5.923
13802TIP3    H241292   8.896   3.044   6.053
13803TIP3   OH241293   8.626   2.545   5.665
13803TIP3    H141294   8.548   2.544   5.719
13803TIP3    H241295   8.698   2.531   5.726
13804TIP3   OH241296   8.019   2.630   5.672
13804TIP3    H141297   7.932   2.635   5.633
13804TIP3    H241298   8.048   2.541   5.654
13805TIP3   OH241299   8.271   2.632   5.366
13805TIP3    H141300   8.366   2.642   5.354
13805TIP3    H241301   8.234   2.650   5.280
13806TIP3   OH241302   9.062   2.625   5.875
13806TIP3    H141303   9.035   2.647   5.964
13806TIP3    H241304   8.995   2.564   5.844
13807TIP3   OH241305   8.157   2.653   5.119
13807TIP3    H141306   8.094   2.604   5.065
13807TIP3    H241307   8.207   2.704   5.055
13808TIP3   OH241308   9.285   4.329   6.066
13808TIP3    H141309   9.269   4.363   5.978
13808TIP3    H241310   9.339   4.397   6.107
13809TIP3   OH241311   8.212   3.445   6.503
13809TIP3    H141312   8.293   3.468   6.549
13809TIP3    H241313   8.142   3.461   6.566
13810TIP3   OH241314   8.668   2.917   5.768
13810TIP3    H141315   8.732   2.864   5.719
13810TIP3    H241316   8.666   2.877   5.855
13811TIP3   OH241317   8.162   2.382   5.655
13811TIP3    H141318   8.134   2.307   5.707
13811TIP3    H241319   8.180   2.346   5.568
13812TIP3   OH241320   8.644   2.821   6.031
13812TIP3    H141321   8.556   2.852   6.055
13812TIP3    H241322   8.703   2.872   6.086
13813TIP3   OH241323   8.380   3.173   5.145
13813TIP3    H141324   8.304   3.121   5.119
13813TIP3    H241325   8.354   3.216   5.227
13814TIP3   OH241326   9.235   3.426   5.739
13814TIP3    H141327   9.265   3.472   5.660
13814TIP3    H241328   9.154   3.382   5.712
13815TIP3   OH241329   8.843   2.486   5.051
13815TIP3    H141330   8.752   2.460   5.047
13815TIP3    H241331   8.841   2.581   5.065
13816TIP3   OH241332   8.780   3.513   6.179
13816TIP3    H141333   8.829   3.504   6.261
13816TIP3    H241334   8.743   3.601   6.183
13817TIP3   OH241335   8.888   2.749   5.129
13817TIP3    H141336   8.982   2.759   5.139
13817TIP3    H241337   8.862   2.824   5.075
13818TIP3   OH241338   8.064   3.185   5.795
13818TIP3    H141339   8.102   3.167   5.709
13818TIP3    H241340   8.132   3.158   5.857
13819TIP3   OH241341   8.532   3.337   4.985
13819TIP3    H141342   8.487   3.421   4.987
13819TIP3    H241343   8.477   3.278   5.036
13820TIP3   OH241344   7.951   3.116   6.430
13820TIP3    H141345   7.952   3.090   6.522
13820TIP3    H241346   7.875   3.070   6.393
13821TIP3   OH241347   8.694   3.252   6.451
13821TIP3    H141348   8.624   3.192   6.423
13821TIP3    H241349   8.775   3.209   6.423
13822TIP3   OH241350   8.921   3.793   6.047
13822TIP3    H141351   8.826   3.781   6.049
13822TIP3    H241352   8.942   3.833   6.131
13823TIP3   OH241353   9.283   2.825   4.948
13823TIP3    H141354   9.225   2.778   4.888
13823TIP3    H241355   9.274   2.917   4.923
13824TIP3   OH241356   9.526   3.719   6.025
13824TIP3    H141357   9.437   3.690   6.007
13824TIP3    H241358   9.582   3.653   5.985
13825TIP3   OH241359   9.043   3.649   4.841
13825TIP3    H141360   8.989   3.595   4.899
13825TIP3    H241361   9.000   3.642   4.756
13826TIP3   OH241362   9.014   3.289   5.641
13826TIP3    H141363   8.926   3.270   5.673
13826TIP3    H241364   9.045   3.206   5.605
13827TIP3   OH241365   8.199   3.520   5.476
13827TIP3    H141366   8.197   3.599   5.422
13827TIP3    H241367   8.107   3.505   5.500
13828TIP3   OH241368   7.759   2.823   5.172
13828TIP3    H141369   7.798   2.909   5.186
13828TIP3    H241370   7.679   2.823   5.224
13829TIP3   OH241371   8.283   3.280   5.373
13829TIP3    H141372   8.269   3.370   5.403
13829TIP3    H241373   8.254   3.225   5.445
13830TIP3   OH241374   8.477   3.855   5.923
13830TIP3    H141375   8.515   3.927   5.873
13830TIP3    H241376   8.550   3.824   5.977
13831TIP3   OH241377   8.130   3.749   5.344
13831TIP3    H141378   8.036   3.757   5.362
13831TIP3    H241379   8.159   3.839   5.331
13832TIP3   OH241380   8.821   3.505   5.906
13832TIP3    H141381   8.803   3.506   6.000
13832TIP3    H241382   8.907   3.464   5.898
13833TIP3   OH241383   8.817   3.318   4.775
13833TIP3    H141384   8.825   3.336   4.869
13833TIP3    H241385   8.723   3.312   4.760
13834TIP3   OH241386   9.073   4.006   5.928
13834TIP3    H141387   9.000   3.949   5.952
13834TIP3    H241388   9.035   4.068   5.866
13835TIP3   OH241389   9.103   3.835   4.533
13835TIP3    H141390   9.062   3.914   4.498
13835TIP3    H241391   9.033   3.770   4.535
13836TIP3   OH241392   8.165   2.640   6.431
13836TIP3    H141393   8.070   2.648   6.435
13836TIP3    H241394   8.189   2.589   6.508
13837TIP3   OH241395   8.920   3.345   5.030
13837TIP3    H141396   8.899   3.270   5.085
13837TIP3    H241397   9.012   3.334   5.009
13838TIP3   OH241398   7.907   3.747   6.081
13838TIP3    H141399   7.959   3.689   6.137
13838TIP3    H241400   7.918   3.834   6.120
13839TIP3   OH241401   8.249   3.341   4.773
13839TIP3    H141402   8.226   3.250   4.754
13839TIP3    H241403   8.206   3.359   4.857
13840TIP3   OH241404   8.142   3.409   5.023
13840TIP3    H141405   8.166   3.366   5.105
13840TIP3    H241406   8.047   3.424   5.031
13841TIP3   OH241407   7.853   3.082   5.236
13841TIP3    H141408   7.790   3.125   5.295
13841TIP3    H241409   7.866   3.145   5.165
13842TIP3   OH241410   8.996   2.689   6.129
13842TIP3    H141411   9.069   2.742   6.160
13842TIP3    H241412   8.991   2.616   6.191
13843TIP3   OH241413   8.891   2.437   5.321
13843TIP3    H141414   8.871   2.457   5.230
13843TIP3    H241415   8.930   2.517   5.355
13844TIP3   OH241416   8.386   3.566   5.001
13844TIP3    H141417   8.294   3.539   5.004
13844TIP3    H241418   8.387   3.641   4.941
13845TIP3   OH241419   8.551   2.636   5.413
13845TIP3    H141420   8.610   2.707   5.388
13845TIP3    H241421   8.575   2.616   5.504
13846TIP3   OH241422   8.845   2.933   6.187
13846TIP3    H141423   8.871   2.979   6.267
13846TIP3    H241424   8.893   2.850   6.191
13847TIP3   OH241425   8.709   2.332   5.499
13847TIP3    H141426   8.687   2.410   5.551
13847TIP3    H241427   8.777   2.362   5.439
13848TIP3   OH241428   8.226   2.359   5.309
13848TIP3    H141429   8.214   2.450   5.336
13848TIP3    H241430   8.320   2.344   5.313
13849TIP3   OH241431   9.444   2.874   6.204
13849TIP3    H141432   9.350   2.858   6.195
13849TIP3    H241433   9.482   2.845   6.121
13850TIP3   OH241434   9.113   3.026   5.560
13850TIP3    H141435   9.028   2.983   5.569
13850TIP3    H241436   9.165   2.992   5.633
13851TIP3   OH241437   7.845   3.295   5.032
13851TIP3    H141438   7.813   3.374   4.989
13851TIP3    H241439   7.889   3.246   4.962
13852TIP3   OH241440   7.780   2.543   5.174
13852TIP3    H141441   7.793   2.637   5.183
13852TIP3    H241442   7.736   2.533   5.089
13853TIP3   OH241443   9.071   3.999   5.491
13853TIP3    H141444   9.017   4.054   5.434
13853TIP3    H241445   9.160   4.033   5.481
13854TIP3   OH241446   8.178   2.258   6.040
13854TIP3    H141447   8.149   2.226   5.955
13854TIP3    H241448   8.170   2.183   6.099
13855TIP3   OH241449   7.705   3.517   5.431
13855TIP3    H141450   7.654   3.551   5.504
13855TIP3    H241451   7.666   3.557   5.354
13856TIP3   OH241452   7.912   4.042   6.463
13856TIP3    H141453   7.985   4.046   6.524
13856TIP3    H241454   7.862   3.965   6.490
13857TIP3   OH241455   8.370   3.967   6.537
13857TIP3    H141456   8.456   3.927   6.549
13857TIP3    H241457   8.330   3.917   6.466
13858TIP3   OH241458   8.349   3.564   4.650
13858TIP3    H141459   8.316   3.486   4.694
13858TIP3    H241460   8.431   3.535   4.609
13859TIP3   OH241461   8.956   3.902   6.293
13859TIP3    H141462   8.963   3.837   6.363
13859TIP3    H241463   9.024   3.967   6.314
13860TIP3   OH241464   8.007   3.452   6.694
13860TIP3    H141465   8.022   3.358   6.703
13860TIP3    H241466   7.921   3.458   6.651
13861TIP3   OH241467   7.990   3.097   4.897
13861TIP3    H141468   8.039   3.068   4.974
13861TIP3    H241469   8.055   3.095   4.826
13862TIP3   OH241470   8.629   3.530   6.471
13862TIP3    H141471   8.582   3.553   6.390
13862TIP3    H241472   8.664   3.443   6.454
13863TIP3   OH241473   8.553   3.281   4.707
13863TIP3    H141474   8.516   3.299   4.793
13863TIP3    H241475   8.527   3.191   4.688
13864TIP3   OH241476   9.082   3.564   6.082
13864TIP3    H141477   9.158   3.592   6.031
13864TIP3    H241478   9.019   3.636   6.071
13865TIP3   OH241479   8.118   3.193   6.701
13865TIP3    H141480   8.192   3.183   6.641
13865TIP3    H241481   8.158   3.214   6.785
13866TIP3   OH241482   8.165   3.006   5.097
13866TIP3    H141483   8.143   2.973   5.185
13866TIP3    H241484   8.208   2.932   5.054
13867TIP3   OH241485   8.488   3.078   6.358
13867TIP3    H141486   8.401   3.118   6.369
13867TIP3    H241487   8.516   3.107   6.271
13868TIP3   OH241488   8.298   2.813   4.947
13868TIP3    H141489   8.268   2.814   4.856
13868TIP3    H241490   8.393   2.822   4.941
13869TIP3   OH241491   8.963   3.452   6.437
13869TIP3    H141492   9.035   3.417   6.385
13869TIP3    H241493   8.963   3.397   6.516
13870TIP3   OH241494   9.061   3.127   4.635
13870TIP3    H141495   9.045   3.092   4.547
13870TIP3    H241496   9.033   3.218   4.630
13871TIP3   OH241497   8.586   2.845   6.466
13871TIP3    H141498   8.590   2.776   6.400
13871TIP3    H241499   8.553   2.921   6.418
13872TIP3   OH241500   8.595   2.648   6.261
13872TIP3    H141501   8.623   2.685   6.177
13872TIP3    H241502   8.505   2.621   6.246
13873TIP3   OH241503   8.597   3.177   6.129
13873TIP3    H141504   8.684   3.217   6.123
13873TIP3    H241505   8.540   3.235   6.079
13874TIP3   OH241506   9.178   3.124   6.526
13874TIP3    H141507   9.206   3.062   6.594
13874TIP3    H241508   9.258   3.168   6.498
13875TIP3   OH241509   9.189   3.402   6.270
13875TIP3    H141510   9.140   3.461   6.213
13875TIP3    H241511   9.280   3.412   6.241
13876TIP3   OH241512   8.477   2.923   6.713
13876TIP3    H141513   8.405   2.862   6.732
13876TIP3    H241514   8.504   2.902   6.624
13877TIP3   OH241515   8.714   2.418   6.366
13877TIP3    H141516   8.675   2.498   6.333
13877TIP3    H241517   8.648   2.351   6.352
13878TIP3   OH241518   8.841   2.884   6.571
13878TIP3    H141519   8.831   2.869   6.665
13878TIP3    H241520   8.755   2.864   6.534
13879TIP3   OH241521   9.076   2.824   6.427
13879TIP3    H141522   9.005   2.831   6.490
13879TIP3    H241523   9.154   2.807   6.480
13880TIP3   OH241524   9.324   2.787   6.559
13880TIP3    H141525   9.329   2.696   6.590
13880TIP3    H241526   9.304   2.837   6.638
13881TIP3   OH241527   8.303   2.707   6.775
13881TIP3    H141528   8.310   2.619   6.738
13881TIP3    H241529   8.345   2.701   6.861
13882TIP3   OH241530   8.779   2.388   6.631
13882TIP3    H141531   8.847   2.321   6.625
13882TIP3    H241532   8.751   2.401   6.540
13883TIP3   OH241533   8.881   2.601   6.773
13883TIP3    H141534   8.848   2.530   6.717
13883TIP3    H241535   8.811   2.665   6.776
13884TIP3   OH241536   7.582   3.221   5.092
13884TIP3    H141537   7.666   3.257   5.064
13884TIP3    H241538   7.571   3.143   5.039
13885TIP3   OH241539   7.499   3.831   5.520
13885TIP3    H141540   7.436   3.775   5.475
13885TIP3    H241541   7.545   3.772   5.580
13886TIP3   OH241542   7.641   3.667   5.690
13886TIP3    H141543   7.632   3.595   5.752
13886TIP3    H241544   7.699   3.729   5.734
13887TIP3   OH241545   9.326   4.087   5.482
13887TIP3    H141546   9.348   4.112   5.572
13887TIP3    H241547   9.403   4.113   5.431
13888TIP3   OH241548   9.367   4.096   5.756
13888TIP3    H141549   9.319   4.013   5.756
13888TIP3    H241550   9.432   4.086   5.826
13889TIP3   OH241551   9.403   3.809   6.337
13889TIP3    H141552   9.333   3.812   6.401
13889TIP3    H241553   9.431   3.900   6.326
13890TIP3   OH241554   9.186   3.294   5.000
13890TIP3    H141555   9.246   3.352   4.952
13890TIP3    H241556   9.236   3.267   5.077
13891TIP3   OH241557   9.345   3.181   5.193
13891TIP3    H141558   9.279   3.123   5.229
13891TIP3    H241559   9.389   3.217   5.270
13892TIP3   OH241560   9.376   3.555   5.541
13892TIP3    H141561   9.379   3.519   5.453
13892TIP3    H241562   9.366   3.650   5.528
13893TIP3   OH241563   9.236   3.852   5.767
13893TIP3    H141564   9.173   3.895   5.825
13893TIP3    H241565   9.182   3.811   5.700
13894TIP3   OH241566   9.231   3.070   4.839
13894TIP3    H141567   9.173   3.087   4.765
13894TIP3    H241568   9.212   3.140   4.901
13895TIP3   OH241569   9.133   2.713   4.752
13895TIP3    H141570   9.060   2.742   4.697
13895TIP3    H241571   9.139   2.619   4.734
13896TIP3   OH241572   9.170   3.001   5.295
13896TIP3    H141573   9.174   2.907   5.277
13896TIP3    H241574   9.147   3.007   5.387
13897TIP3   OH241575   7.820   3.083   6.071
13897TIP3    H141576   7.811   3.055   5.980
13897TIP3    H241577   7.915   3.080   6.087
13898TIP3   OH241578   9.451   3.428   6.191
13898TIP3    H141579   9.517   3.363   6.216
13898TIP3    H241580   9.474   3.453   6.102
13899TIP3   OH241581   9.647   3.248   6.254
13899TIP3    H141582   9.572   3.198   6.286
13899TIP3    H241583   9.711   3.182   6.228
13900TIP3   OH241584   9.138   2.438   4.713
13900TIP3    H141585   9.195   2.394   4.777
13900TIP3    H241586   9.050   2.409   4.736
13901TIP3   OH241587   9.174   2.739   5.189
13901TIP3    H141588   9.210   2.651   5.203
13901TIP3    H241589   9.214   2.769   5.107
13902TIP3   OH241590   9.329   2.889   5.703
13902TIP3    H141591   9.413   2.927   5.679
13902TIP3    H241592   9.305   2.934   5.784
13903TIP3   OH241593   9.323   3.055   5.915
13903TIP3    H141594   9.269   3.094   5.984
13903TIP3    H241595   9.412   3.086   5.934
13904TIP3   OH241596   8.040   2.765   6.708
13904TIP3    H141597   8.133   2.763   6.728
13904TIP3    H241598   8.005   2.685   6.746
13905TIP3   OH241599   9.269   2.484   5.238
13905TIP3    H141600   9.312   2.457   5.319
13905TIP3    H241601   9.205   2.415   5.221
13906TIP3   OH241602   8.018   2.484   6.062
13906TIP3    H141603   8.071   2.405   6.065
13906TIP3    H241604   8.081   2.554   6.041
13907TIP3   OH241605   7.795   2.747   6.117
13907TIP3    H141606   7.848   2.736   6.038
13907TIP3    H241607   7.816   2.835   6.148
13908TIP3   OH241608   9.711   2.790   6.269
13908TIP3    H141609   9.644   2.836   6.319
13908TIP3    H241610   9.662   2.723   6.220
13909TIP3   OH241611   9.385   2.355   4.858
13909TIP3    H141612   9.464   2.315   4.894
13909TIP3    H241613   9.406   2.447   4.850
13910TIP3   OH241614   7.784   2.260   5.619
13910TIP3    H141615   7.699   2.248   5.661
13910TIP3    H241616   7.765   2.313   5.542
13911TIP3   OH241617   8.984   3.975   5.127
13911TIP3    H141618   9.024   3.948   5.045
13911TIP3    H241619   9.001   4.069   5.132
13912TIP3   OH241620   8.011   2.305   6.444
13912TIP3    H141621   7.962   2.303   6.526
13912TIP3    H241622   7.957   2.357   6.384
13913TIP3   OH241623   8.045   3.747   6.523
13913TIP3    H141624   7.950   3.750   6.509
13913TIP3    H241625   8.055   3.743   6.618
13914TIP3   OH241626   8.247   3.814   6.067
13914TIP3    H141627   8.197   3.890   6.037
13914TIP3    H241628   8.333   3.824   6.025
13915TIP3   OH241629   8.660   4.032   6.235
13915TIP3    H141630   8.715   4.015   6.311
13915TIP3    H241631   8.710   4.094   6.182
13916TIP3   OH241632   8.814   4.223   6.105
13916TIP3    H141633   8.908   4.213   6.114
13916TIP3    H241634   8.790   4.286   6.173
13917TIP3   OH241635   9.566   2.568   6.170
13917TIP3    H141636   9.485   2.586   6.123
13917TIP3    H241637   9.599   2.486   6.130
13918TIP3   OH241638   7.909   4.038   6.118
13918TIP3    H141639   7.820   4.063   6.095
13918TIP3    H241640   7.930   4.092   6.195
13919TIP3   OH241641   8.141   4.050   5.969
13919TIP3    H141642   8.058   4.049   6.017
13919TIP3    H241643   8.117   4.071   5.879
13920TIP3   OH241644   8.549   4.066   5.757
13920TIP3    H141645   8.475   4.077   5.698
13920TIP3    H241646   8.562   4.152   5.797
13921TIP3   OH241647   8.807   3.979   5.787
13921TIP3    H141648   8.716   4.007   5.774
13921TIP3    H241649   8.860   4.052   5.756
13922TIP3   OH241650   9.000   4.166   5.705
13922TIP3    H141651   9.001   4.254   5.668
13922TIP3    H241652   9.021   4.109   5.631
13923TIP3   OH241653   7.825   3.837   5.831
13923TIP3    H141654   7.849   3.812   5.921
13923TIP3    H241655   7.895   3.803   5.777
13924TIP3   OH241656   8.026   3.721   5.691
13924TIP3    H141657   8.036   3.635   5.733
13924TIP3    H241658   8.113   3.760   5.694
13925TIP3   OH241659   8.294   3.806   5.718
13925TIP3    H141660   8.313   3.714   5.703
13925TIP3    H241661   8.348   3.829   5.794
13926TIP3   OH241662   8.855   2.441   5.801
13926TIP3    H141663   8.811   2.374   5.852
13926TIP3    H241664   8.927   2.395   5.758
13927TIP3   OH241665   9.372   2.375   5.729
13927TIP3    H141666   9.389   2.413   5.643
13927TIP3    H241667   9.277   2.373   5.736
13928TIP3   OH241668   9.434   2.422   5.457
13928TIP3    H141669   9.519   2.391   5.426
13928TIP3    H241670   9.440   2.518   5.453
13929TIP3   OH241671   8.089   2.156   5.800
13929TIP3    H141672   8.000   2.122   5.809
13929TIP3    H241673   8.144   2.078   5.791
13930TIP3   OH241674   7.910   2.064   5.453
13930TIP3    H141675   7.937   2.112   5.375
13930TIP3    H241676   7.874   2.131   5.512
13931TIP3   OH241677   8.569   2.194   5.699
13931TIP3    H141678   8.617   2.240   5.630
13931TIP3    H241679   8.610   2.223   5.780
13932TIP3   OH241680   9.089   2.323   5.697
13932TIP3    H141681   9.099   2.288   5.608
13932TIP3    H241682   9.089   2.245   5.753
13933TIP3   OH241683   9.097   2.272   5.234
13933TIP3    H141684   9.018   2.319   5.259
13933TIP3    H241685   9.089   2.186   5.276
13934TIP3   OH241686   7.602   3.626   5.198
13934TIP3    H141687   7.510   3.611   5.176
13934TIP3    H241688   7.650   3.600   5.120
13935TIP3   OH241689   8.018   2.191   5.216
13935TIP3    H141690   8.064   2.130   5.159
13935TIP3    H241691   8.087   2.247   5.252
13936TIP3   OH241692   8.501   2.387   5.311
13936TIP3    H141693   8.557   2.331   5.365
13936TIP3    H241694   8.518   2.476   5.342
13937TIP3   OH241695   8.399   3.779   4.818
13937TIP3    H141696   8.482   3.802   4.776
13937TIP3    H241697   8.358   3.718   4.756
13938TIP3   OH241698   9.117   3.914   4.883
13938TIP3    H141699   9.102   3.820   4.869
13938TIP3    H241700   9.064   3.956   4.815
13939TIP3   OH241701   8.319   2.438   6.681
13939TIP3    H141702   8.285   2.371   6.740
13939TIP3    H241703   8.411   2.446   6.705
13940TIP3   OH241704   8.566   2.444   6.805
13940TIP3    H141705   8.643   2.422   6.753
13940TIP3    H241706   8.560   2.374   6.870
13941TIP3   OH241707   9.380   2.516   6.611
13941TIP3    H141708   9.405   2.487   6.699
13941TIP3    H241709   9.461   2.509   6.560
13942TIP3   OH241710   9.282   4.061   6.103
13942TIP3    H141711   9.205   4.033   6.054
13942TIP3    H241712   9.279   4.157   6.101
13943TIP3   OH241713   9.482   2.933   5.135
13943TIP3    H141714   9.443   3.020   5.145
13943TIP3    H241715   9.417   2.884   5.084
13944TIP3   OH241716   9.673   3.162   5.311
13944TIP3    H141717   9.600   3.114   5.350
13944TIP3    H241718   9.656   3.158   5.217
13945TIP3   OH241719   9.551   3.536   4.820
13945TIP3    H141720   9.513   3.462   4.868
13945TIP3    H241721   9.592   3.590   4.887
13946TIP3   OH241722   9.599   3.575   5.716
13946TIP3    H141723   9.521   3.565   5.662
13946TIP3    H241724   9.653   3.498   5.696
13947TIP3   OH241725   9.405   3.819   5.466
13947TIP3    H141726   9.476   3.856   5.518
13947TIP3    H241727   9.331   3.878   5.479
13948TIP3   OH241728   9.679   4.010   5.083
13948TIP3    H141729   9.758   3.957   5.085
13948TIP3    H241730   9.648   4.004   4.993
13949TIP3   OH241731   9.750   3.795   5.757
13949TIP3    H141732   9.761   3.816   5.849
13949TIP3    H241733   9.696   3.715   5.756
13950TIP3   OH241734   9.485   2.686   5.394
13950TIP3    H141735   9.535   2.767   5.397
13950TIP3    H241736   9.481   2.664   5.300
13951TIP3   OH241737   0.047   3.281   5.998
13951TIP3    H141738  -0.035   3.327   6.016
13951TIP3    H241739   0.026   3.220   5.927
13952TIP3   OH241740   9.502   3.130   4.618
13952TIP3    H141741   9.547   3.089   4.692
13952TIP3    H241742   9.432   3.069   4.595
13953TIP3   OH241743   9.606   3.948   5.588
13953TIP3    H141744   9.658   3.895   5.649
13953TIP3    H241745   9.602   4.034   5.630
13954TIP3   OH241746   9.449   3.788   4.954
13954TIP3    H141747   9.423   3.843   5.028
13954TIP3    H241748   9.496   3.848   4.896
13955TIP3   OH241749   9.680   4.372   5.986
13955TIP3    H141750   9.739   4.351   6.058
13955TIP3    H241751   9.655   4.287   5.950
13956TIP3   OH241752   0.004   3.613   6.003
13956TIP3    H141753   0.095   3.584   6.010
13956TIP3    H241754  -0.018   3.645   6.090
13957TIP3   OH241755   9.269   3.430   4.688
13957TIP3    H141756   9.308   3.507   4.647
13957TIP3    H241757   9.175   3.437   4.667
13958TIP3   OH241758   9.279   4.096   5.003
13958TIP3    H141759   9.224   4.039   4.949
13958TIP3    H241760   9.316   4.038   5.069
13959TIP3   OH241761   9.383   3.922   5.186
13959TIP3    H141762   9.327   3.874   5.247
13959TIP3    H241763   9.432   3.983   5.241
13960TIP3   OH241764   9.606   3.358   5.486
13960TIP3    H141765   9.636   3.289   5.426
13960TIP3    H241766   9.565   3.423   5.429
13961TIP3   OH241767  -0.008   3.035   6.170
13961TIP3    H141768   0.086   3.051   6.181
13961TIP3    H241769  -0.021   2.945   6.199
13962TIP3   OH241770   9.574   3.006   5.675
13962TIP3    H141771   9.643   2.941   5.685
13962TIP3    H241772   9.593   3.072   5.742
13963TIP3   OH241773   9.498   2.591   5.132
13963TIP3    H141774   9.415   2.546   5.149
13963TIP3    H241775   9.561   2.520   5.119
13964TIP3   OH241776   0.049   3.932   5.972
13964TIP3    H141777   0.009   4.011   6.009
13964TIP3    H241778   0.079   3.883   6.048
13965TIP3   OH241779   9.663   4.241   5.530
13965TIP3    H141780   9.593   4.306   5.525
13965TIP3    H241781   9.679   4.230   5.624
13966TIP3   OH241782   0.122   4.276   5.421
13966TIP3    H141783   0.035   4.276   5.459
13966TIP3    H241784   0.108   4.298   5.329
13967TIP3   OH241785   9.556   4.097   5.315
13967TIP3    H141786   9.613   4.129   5.385
13967TIP3    H241787   9.615   4.075   5.243
13968TIP3   OH241788   0.071   3.820   5.165
13968TIP3    H141789   0.005   3.801   5.231
13968TIP3    H241790   0.118   3.897   5.199
13969TIP3   OH241791   9.343   3.884   4.644
13969TIP3    H141792   9.257   3.862   4.607
13969TIP3    H241793   9.322   3.933   4.724
13970TIP3   OH241794   9.482   3.942   4.413
13970TIP3    H141795   9.427   3.920   4.488
13970TIP3    H241796   9.549   3.874   4.411
13971TIP3   OH241797   1.241   3.986   7.031
13971TIP3    H141798   1.204   4.072   7.009
13971TIP3    H241799   1.168   3.925   7.020
13972TIP3   OH241800   1.261   3.967   7.451
13972TIP3    H141801   1.306   3.948   7.534
13972TIP3    H241802   1.212   3.888   7.431
13973TIP3   OH241803   0.565   3.867   7.819
13973TIP3    H141804   0.590   3.795   7.877
13973TIP3    H241805   0.640   3.878   7.761
13974TIP3   OH241806   1.494   4.294   7.147
13974TIP3    H141807   1.491   4.221   7.210
13974TIP3    H241808   1.516   4.370   7.200
13975TIP3   OH241809   0.600   4.255   7.489
13975TIP3    H141810   0.578   4.162   7.494
13975TIP3    H241811   0.691   4.258   7.460
13976TIP3   OH241812   0.041   3.490   7.258
13976TIP3    H141813  -0.003   3.562   7.302
13976TIP3    H241814   0.027   3.414   7.315
13977TIP3   OH241815   0.325   3.786   7.542
13977TIP3    H141816   0.371   3.704   7.560
13977TIP3    H241817   0.330   3.795   7.447
13978TIP3   OH241818   1.102   4.659   7.222
13978TIP3    H141819   1.145   4.624   7.144
13978TIP3    H241820   1.157   4.629   7.295
13979TIP3   OH241821   1.074   4.184   7.462
13979TIP3    H141822   1.110   4.103   7.426
13979TIP3    H241823   1.151   4.235   7.488
13980TIP3   OH241824   2.087   3.521   7.481
13980TIP3    H141825   2.101   3.606   7.522
13980TIP3    H241826   2.110   3.535   7.389
13981TIP3   OH241827   1.459   3.690   7.506
13981TIP3    H141828   1.490   3.603   7.530
13981TIP3    H241829   1.419   3.678   7.420
13982TIP3   OH241830   0.833   3.329   7.459
13982TIP3    H141831   0.810   3.407   7.407
13982TIP3    H241832   0.779   3.260   7.422
13983TIP3   OH241833   1.508   3.447   7.100
13983TIP3    H141834   1.572   3.440   7.171
13983TIP3    H241835   1.557   3.482   7.026
13984TIP3   OH241836   0.436   3.544   7.633
13984TIP3    H141837   0.526   3.513   7.638
13984TIP3    H241838   0.401   3.504   7.553
13985TIP3   OH241839   0.873   3.760   7.420
13985TIP3    H141840   0.968   3.749   7.417
13985TIP3    H241841   0.838   3.679   7.382
13986TIP3   OH241842   2.137   3.743   7.647
13986TIP3    H141843   2.049   3.779   7.641
13986TIP3    H241844   2.174   3.783   7.726
13987TIP3   OH241845   0.801   3.340   7.906
13987TIP3    H141846   0.744   3.371   7.835
13987TIP3    H241847   0.752   3.361   7.986
13988TIP3   OH241848   1.117   4.200   6.904
13988TIP3    H141849   1.062   4.156   6.839
13988TIP3    H241850   1.064   4.273   6.935
13989TIP3   OH241851   0.900   4.120   7.667
13989TIP3    H141852   0.845   4.190   7.701
13989TIP3    H241853   0.946   4.159   7.592
13990TIP3   OH241854   1.669   3.466   7.320
13990TIP3    H141855   1.623   3.445   7.401
13990TIP3    H241856   1.722   3.542   7.342
13991TIP3   OH241857   0.691   3.440   7.676
13991TIP3    H141858   0.749   3.514   7.695
13991TIP3    H241859   0.732   3.396   7.602
13992TIP3   OH241860   0.744   4.316   7.779
13992TIP3    H141861   0.735   4.408   7.754
13992TIP3    H241862   0.666   4.298   7.831
13993TIP3   OH241863   0.189   3.992   6.967
13993TIP3    H141864   0.111   3.982   6.913
13993TIP3    H241865   0.156   4.007   7.055
13994TIP3   OH241866   1.524   4.539   7.293
13994TIP3    H141867   1.437   4.541   7.332
13994TIP3    H241868   1.530   4.620   7.242
13995TIP3   OH241869   1.886   3.410   7.644
13995TIP3    H141870   1.801   3.435   7.609
13995TIP3    H241871   1.949   3.439   7.577
13996TIP3   OH241872   1.141   3.049   7.628
13996TIP3    H141873   1.125   2.957   7.646
13996TIP3    H241874   1.063   3.094   7.662
13997TIP3   OH241875   1.228   4.597   6.979
13997TIP3    H141876   1.268   4.511   6.969
13997TIP3    H241877   1.285   4.656   6.928
13998TIP3   OH241878   1.347   4.361   6.922
13998TIP3    H141879   1.284   4.290   6.908
13998TIP3    H241880   1.405   4.327   6.990
13999TIP3   OH241881   1.766   4.431   7.621
13999TIP3    H141882   1.752   4.354   7.566
13999TIP3    H241883   1.754   4.506   7.563
14000TIP3   OH241884   1.052   3.823   6.897
14000TIP3    H141885   0.964   3.858   6.893
14000TIP3    H241886   1.087   3.835   6.808
14001TIP3   OH241887   1.037   3.618   6.594
14001TIP3    H141888   1.102   3.669   6.643
14001TIP3    H241889   1.089   3.554   6.545
14002TIP3   OH241890   1.958   4.082   7.488
14002TIP3    H141891   1.874   4.128   7.490
14002TIP3    H241892   1.991   4.096   7.400
14003TIP3   OH241893   1.428   3.919   6.843
14003TIP3    H141894   1.370   3.946   6.915
14003TIP3    H241895   1.509   3.894   6.886
14004TIP3   OH241896   1.657   3.945   7.782
14004TIP3    H141897   1.660   4.025   7.834
14004TIP3    H241898   1.570   3.946   7.742
14005TIP3   OH241899   0.667   3.895   7.299
14005TIP3    H141900   0.634   3.834   7.233
14005TIP3    H241901   0.744   3.852   7.336
14006TIP3   OH241902   0.845   4.309   7.377
14006TIP3    H141903   0.818   4.287   7.287
14006TIP3    H241904   0.925   4.258   7.391
14007TIP3   OH241905   0.782   3.875   7.650
14007TIP3    H141906   0.810   3.842   7.565
14007TIP3    H241907   0.821   3.962   7.657
14008TIP3   OH241908   1.284   4.550   7.432
14008TIP3    H141909   1.302   4.594   7.515
14008TIP3    H241910   1.278   4.457   7.454
14009TIP3   OH241911   0.931   4.410   7.957
14009TIP3    H141912   0.870   4.471   8.000
14009TIP3    H241913   0.876   4.361   7.895
14010TIP3   OH241914   1.260   3.766   6.684
14010TIP3    H141915   1.315   3.829   6.730
14010TIP3    H241916   1.290   3.770   6.593
14011TIP3   OH241917   3.987   8.628   0.047
14011TIP3    H141918   3.975   8.713   0.089
14011TIP3    H241919   3.905   8.612   0.001
14012TIP3   OH241920   0.988   4.444   6.960
14012TIP3    H141921   1.061   4.506   6.960
14012TIP3    H241922   0.935   4.470   6.885
14013TIP3   OH241923   4.008   9.207   0.044
14013TIP3    H141924   3.986   9.223  -0.048
14013TIP3    H241925   3.923   9.205   0.089
14014TIP3   OH241926   1.769   2.999   6.745
14014TIP3    H141927   1.693   3.020   6.799
14014TIP3    H241928   1.779   3.074   6.687
14015TIP3   OH241929   0.566   3.720   7.118
14015TIP3    H141930   0.523   3.760   7.042
14015TIP3    H241931   0.604   3.639   7.083
14016TIP3   OH241932   1.599   4.378   6.298
14016TIP3    H141933   1.592   4.471   6.274
14016TIP3    H241934   1.687   4.353   6.273
14017TIP3   OH241935   3.597   8.793   0.073
14017TIP3    H141936   3.532   8.794   0.003
14017TIP3    H241937   3.617   8.700   0.086
14018TIP3   OH241938   2.013   4.775   7.693
14018TIP3    H141939   2.014   4.681   7.709
14018TIP3    H241940   1.934   4.806   7.737
14019TIP3   OH241941   1.119   4.564   7.830
14019TIP3    H141942   1.103   4.656   7.851
14019TIP3    H241943   1.047   4.517   7.871
14020TIP3   OH241944   0.907   4.665   6.756
14020TIP3    H141945   0.866   4.633   6.676
14020TIP3    H241946   0.870   4.752   6.770
14021TIP3   OH241947   0.463   4.458   7.155
14021TIP3    H141948   0.437   4.463   7.246
14021TIP3    H241949   0.418   4.379   7.122
14022TIP3   OH241950   1.089   4.606   6.380
14022TIP3    H141951   1.137   4.531   6.346
14022TIP3    H241952   1.126   4.622   6.466
14023TIP3   OH241953   1.158   4.650   6.644
14023TIP3    H141954   1.077   4.647   6.696
14023TIP3    H241955   1.224   4.610   6.701
14024TIP3   OH241956   1.901   3.909   7.957
14024TIP3    H141957   1.817   3.908   7.912
14024TIP3    H241958   1.920   3.817   7.975
14025TIP3   OH241959   3.810   8.932  -0.031
14025TIP3    H141960   3.870   8.924   0.044
14025TIP3    H241961   3.732   8.885  -0.003
14026TIP3   OH241962   0.904   3.145   7.735
14026TIP3    H141963   0.821   3.109   7.704
14026TIP3    H241964   0.880   3.220   7.789
14027TIP3   OH241965   1.448   3.266   7.959
14027TIP3    H141966   1.512   3.233   8.022
14027TIP3    H241967   1.363   3.240   7.995
14028TIP3   OH241968   1.667   3.684   7.860
14028TIP3    H141969   1.619   3.684   7.943
14028TIP3    H241970   1.653   3.771   7.823
14029TIP3   OH241971   1.347   3.737   6.423
14029TIP3    H141972   1.291   3.750   6.346
14029TIP3    H241973   1.427   3.787   6.404
14030TIP3   OH241974   1.045   3.171   6.739
14030TIP3    H141975   1.008   3.180   6.827
14030TIP3    H241976   1.003   3.092   6.704
14031TIP3   OH241977   0.849   3.647   7.782
14031TIP3    H141978   0.794   3.651   7.860
14031TIP3    H241979   0.831   3.728   7.735
14032TIP3   OH241980   0.749   3.544   7.313
14032TIP3    H141981   0.662   3.516   7.343
14032TIP3    H241982   0.753   3.516   7.221
14033TIP3   OH241983   1.197   3.628   7.029
14033TIP3    H141984   1.144   3.697   6.988
14033TIP3    H241985   1.251   3.595   6.958
14034TIP3   OH241986   4.661   8.566   0.067
14034TIP3    H141987   4.620   8.493   0.113
14034TIP3    H241988   4.753   8.562   0.092
14035TIP3   OH241989   1.364   3.635   7.252
14035TIP3    H141990   1.297   3.659   7.188
14035TIP3    H241991   1.409   3.561   7.213
14036TIP3   OH241992   3.938   8.296  -0.015
14036TIP3    H141993   3.987   8.338   0.056
14036TIP3    H241994   3.912   8.211   0.020
14037TIP3   OH241995   0.701   3.162   6.717
14037TIP3    H141996   0.694   3.173   6.812
14037TIP3    H241997   0.635   3.223   6.681
14038TIP3   OH241998   0.266   3.246   7.552
14038TIP3    H141999   0.318   3.244   7.632
14038TIP3    H242000   0.299   3.173   7.500
14039TIP3   OH242001   0.305   3.384   7.130
14039TIP3    H142002   0.360   3.354   7.058
14039TIP3    H242003   0.218   3.392   7.093
14040TIP3   OH242004   1.396   3.887   7.683
14040TIP3    H142005   1.424   3.818   7.622
14040TIP3    H242006   1.355   3.839   7.755
14041TIP3   OH242007   1.091   3.331   7.348
14041TIP3    H142008   1.011   3.329   7.400
14041TIP3    H242009   1.162   3.325   7.412
14042TIP3   OH242010   0.533   3.401   7.388
14042TIP3    H142011   0.441   3.420   7.365
14042TIP3    H242012   0.546   3.311   7.360
14043TIP3   OH242013   0.745   3.440   7.063
14043TIP3    H142014   0.839   3.440   7.047
14043TIP3    H242015   0.706   3.443   6.975
14044TIP3   OH242016   1.523   3.423   7.553
14044TIP3    H142017   1.505   3.443   7.645
14044TIP3    H242018   1.454   3.362   7.528
14045TIP3   OH242019   0.615   3.429   6.830
14045TIP3    H142020   0.527   3.407   6.801
14045TIP3    H242021   0.657   3.468   6.753
14046TIP3   OH242022   1.726   5.132   7.783
14046TIP3    H142023   1.724   5.147   7.689
14046TIP3    H242024   1.806   5.177   7.813
14047TIP3   OH242025   3.963   8.886   0.192
14047TIP3    H142026   4.043   8.898   0.244
14047TIP3    H242027   3.896   8.933   0.242
14048TIP3   OH242028   1.144   3.707   7.446
14048TIP3    H142029   1.204   3.653   7.396
14048TIP3    H242030   1.138   3.665   7.532
14049TIP3   OH242031   0.658   3.154   7.328
14049TIP3    H142032   0.627   3.080   7.380
14049TIP3    H242033   0.671   3.119   7.240
14050TIP3   OH242034   1.110   3.607   7.703
14050TIP3    H142035   1.021   3.632   7.730
14050TIP3    H242036   1.167   3.656   7.762
14051TIP3   OH242037   1.723   4.222   7.444
14051TIP3    H142038   1.761   4.269   7.370
14051TIP3    H242039   1.646   4.178   7.407
14052TIP3   OH242040   1.296   3.276   6.743
14052TIP3    H142041   1.203   3.254   6.739
14052TIP3    H242042   1.297   3.371   6.756
14053TIP3   OH242043   1.277   4.337   7.824
14053TIP3    H142044   1.288   4.305   7.914
14053TIP3    H242045   1.219   4.412   7.832
14054TIP3   OH242046   1.355   3.540   6.814
14054TIP3    H142047   1.451   3.547   6.823
14054TIP3    H242048   1.331   3.617   6.762
14055TIP3   OH242049   0.524   3.996   7.507
14055TIP3    H142050   0.573   3.960   7.433
14055TIP3    H242051   0.524   3.925   7.572
14056TIP3   OH242052   0.931   4.095   6.714
14056TIP3    H142053   0.911   4.188   6.705
14056TIP3    H242054   0.848   4.054   6.737
14057TIP3   OH242055   3.668   8.529   0.100
14057TIP3    H142056   3.722   8.485   0.166
14057TIP3    H242057   3.639   8.459   0.042
14058TIP3   OH242058   4.413   8.672   0.126
14058TIP3    H142059   4.350   8.609   0.091
14058TIP3    H242060   4.497   8.645   0.090
14059TIP3   OH242061   1.350   4.633   7.697
14059TIP3    H142062   1.263   4.605   7.725
14059TIP3    H242063   1.398   4.647   7.778
14060TIP3   OH242064   1.769   3.629   6.627
14060TIP3    H142065   1.714   3.582   6.564
14060TIP3    H242066   1.774   3.718   6.593
14061TIP3   OH242067   2.017   4.492   7.714
14061TIP3    H142068   1.922   4.483   7.705
14061TIP3    H242069   2.052   4.468   7.628
14062TIP3   OH242070   1.506   4.444   6.557
14062TIP3    H142071   1.479   4.370   6.611
14062TIP3    H242072   1.532   4.406   6.474
14063TIP3   OH242073   1.499   4.081   7.337
14063TIP3    H142074   1.410   4.055   7.363
14063TIP3    H242075   1.536   4.002   7.298
14064TIP3   OH242076   0.725   4.297   7.122
14064TIP3    H142077   0.756   4.371   7.070
14064TIP3    H242078   0.637   4.279   7.088
14065TIP3   OH242079   0.190   3.611   6.772
14065TIP3    H142080   0.216   3.699   6.745
14065TIP3    H242081   0.132   3.625   6.847
14066TIP3   OH242082   0.863   4.068   7.190
14066TIP3    H142083   0.820   4.140   7.144
14066TIP3    H242084   0.791   4.012   7.219
14067TIP3   OH242085   0.668   4.548   6.992
14067TIP3    H142086   0.596   4.526   7.051
14067TIP3    H242087   0.703   4.630   7.025
14068TIP3   OH242088   1.308   4.298   7.553
14068TIP3    H142089   1.296   4.306   7.648
14068TIP3    H242090   1.381   4.237   7.543
14069TIP3   OH242091   1.276   4.181   6.445
14069TIP3    H142092   1.328   4.156   6.521
14069TIP3    H242093   1.191   4.138   6.459
14070TIP3   OH242094   1.539   4.817   7.620
14070TIP3    H142095   1.464   4.759   7.629
14070TIP3    H242096   1.515   4.875   7.548
14071TIP3   OH242097   1.591   4.651   6.253
14071TIP3    H142098   1.617   4.713   6.185
14071TIP3    H242099   1.520   4.694   6.300
14072TIP3   OH242100   3.912   8.052   0.115
14072TIP3    H142101   3.819   8.033   0.107
14072TIP3    H242102   3.932   8.040   0.208
14073TIP3   OH242103   1.455   4.110   6.640
14073TIP3    H142104   1.435   4.053   6.714
14073TIP3    H242105   1.551   4.110   6.635
14074TIP3   OH242106   0.453   4.513   7.809
14074TIP3    H142107   0.419   4.447   7.749
14074TIP3    H242108   0.476   4.465   7.888
14075TIP3   OH242109   0.653   4.122   6.481
14075TIP3    H142110   0.680   4.044   6.433
14075TIP3    H242111   0.650   4.095   6.572
14076TIP3   OH242112   0.416   3.833   6.922
14076TIP3    H142113   0.343   3.895   6.924
14076TIP3    H242114   0.483   3.877   6.868
14077TIP3   OH242115   1.471   3.492   7.811
14077TIP3    H142116   1.550   3.538   7.839
14077TIP3    H242117   1.465   3.416   7.868
14078TIP3   OH242118   1.361   3.228   7.010
14078TIP3    H142119   1.337   3.247   6.919
14078TIP3    H242120   1.402   3.309   7.041
14079TIP3   OH242121   0.866   4.358   6.689
14079TIP3    H142122   0.774   4.374   6.712
14079TIP3    H242123   0.884   4.420   6.618
14080TIP3   OH242124   1.024   3.425   7.096
14080TIP3    H142125   1.081   3.498   7.072
14080TIP3    H242126   1.045   3.406   7.187
14081TIP3   OH242127   1.305   3.707   7.874
14081TIP3    H142128   1.328   3.731   7.963
14081TIP3    H242129   1.357   3.628   7.857
14082TIP3   OH242130   1.174   3.122   7.183
14082TIP3    H142131   1.151   3.199   7.235
14082TIP3    H242132   1.243   3.152   7.124
14083TIP3   OH242133   0.616   4.460   6.741
14083TIP3    H142134   0.585   4.528   6.681
14083TIP3    H242135   0.636   4.506   6.822
14084TIP3   OH242136   0.687   3.154   7.004
14084TIP3    H142137   0.670   3.245   7.028
14084TIP3    H242138   0.782   3.146   7.004
14085TIP3   OH242139   1.929   3.621   7.862
14085TIP3    H142140   1.835   3.635   7.874
14085TIP3    H242141   1.936   3.577   7.777
14086TIP3   OH242142   1.589   3.822   7.249
14086TIP3    H142143   1.510   3.768   7.259
14086TIP3    H242144   1.654   3.782   7.306
14087TIP3   OH242145   0.358   4.102   6.671
14087TIP3    H142146   0.381   4.185   6.628
14087TIP3    H242147   0.440   4.072   6.709
14088TIP3   OH242148   0.351   3.295   6.872
14088TIP3    H142149   0.261   3.325   6.883
14088TIP3    H242150   0.343   3.216   6.819
14089TIP3   OH242151   1.561   4.796   7.194
14089TIP3    H142152   1.523   4.849   7.124
14089TIP3    H242153   1.656   4.807   7.184
14090TIP3   OH242154   0.647   3.046   7.708
14090TIP3    H142155   0.623   3.018   7.620
14090TIP3    H242156   0.627   2.972   7.764
14091TIP3   OH242157   0.300   4.251   7.073
14091TIP3    H142158   0.218   4.222   7.033
14091TIP3    H242159   0.368   4.219   7.013
14092TIP3   OH242160   7.383   0.151   0.223
14092TIP3    H142161   7.474   0.124   0.230
14092TIP3    H242162   7.345   0.089   0.160
14093TIP3   OH242163   0.789   4.335   6.370
14093TIP3    H142164   0.741   4.266   6.417
14093TIP3    H242165   0.865   4.290   6.332
14094TIP3   OH242166   1.460   4.681   7.944
14094TIP3    H142167   1.462   4.613   8.011
14094TIP3    H242168   1.526   4.745   7.972
14095TIP3   OH242169   1.221   4.390   6.277
14095TIP3    H142170   1.255   4.326   6.339
14095TIP3    H242171   1.281   4.384   6.202
14096TIP3   OH242172   3.691   8.903   0.315
14096TIP3    H142173   3.741   8.826   0.342
14096TIP3    H242174   3.651   8.878   0.231
14097TIP3   OH242175   4.355   8.940   0.154
14097TIP3    H142176   4.306   8.961   0.074
14097TIP3    H242177   4.384   8.850   0.141
14098TIP3   OH242178   1.022   4.069   6.448
14098TIP3    H142179   0.984   4.071   6.536
14098TIP3    H242180   1.016   3.977   6.422
14099TIP3   OH242181   1.560   4.332   7.784
14099TIP3    H142182   1.618   4.388   7.732
14099TIP3    H242183   1.474   4.374   7.778
14100TIP3   OH242184   3.837   8.420   0.291
14100TIP3    H142185   3.920   8.415   0.244
14100TIP3    H242186   3.861   8.408   0.383
14101TIP3   OH242187   0.963   3.873   8.005
14101TIP3    H142188   0.880   3.921   8.014
14101TIP3    H242189   1.000   3.907   7.923
14102TIP3   OH242190   0.770   3.533   6.629
14102TIP3    H142191   0.735   3.570   6.548
14102TIP3    H242192   0.860   3.563   6.632
14103TIP3   OH242193   4.706   8.867   0.125
14103TIP3    H142194   4.743   8.808   0.059
14103TIP3    H242195   4.702   8.814   0.205
14104TIP3   OH242196   1.556   3.885   6.311
14104TIP3    H142197   1.543   3.846   6.224
14104TIP3    H242198   1.533   3.978   6.299
14105TIP3   OH242199   4.313   8.242   0.082
14105TIP3    H142200   4.323   8.167   0.024
14105TIP3    H242201   4.287   8.314   0.024
14106TIP3   OH242202   1.064   3.411   7.903
14106TIP3    H142203   1.082   3.456   7.820
14106TIP3    H242204   0.971   3.392   7.900
14107TIP3   OH242205   1.095   3.971   7.790
14107TIP3    H142206   1.180   3.996   7.755
14107TIP3    H242207   1.032   4.027   7.744
14108TIP3   OH242208   4.910   8.552   0.175
14108TIP3    H142209   4.936   8.461   0.187
14108TIP3    H242210   4.992   8.601   0.174
14109TIP3   OH242211   1.701   4.170   7.942
14109TIP3    H142212   1.644   4.230   7.895
14109TIP3    H242213   1.789   4.189   7.908
14110TIP3   OH242214   4.083   8.350   0.209
14110TIP3    H142215   4.085   8.267   0.256
14110TIP3    H242216   4.170   8.358   0.171
14111TIP3   OH242217   1.183   3.182   7.992
14111TIP3    H142218   1.145   3.263   7.959
14111TIP3    H242219   1.113   3.117   7.985
14112TIP3   OH242220   4.532   8.363   0.186
14112TIP3    H142221   4.534   8.322   0.272
14112TIP3    H242222   4.455   8.324   0.143
14113TIP3   OH242223   4.808   8.258   0.088
14113TIP3    H142224   4.738   8.210   0.133
14113TIP3    H242225   4.888   8.218   0.121
14114TIP3   OH242226   5.051   8.169   0.180
14114TIP3    H142227   5.067   8.081   0.214
14114TIP3    H242228   5.049   8.226   0.257
14115TIP3   OH242229   4.026   8.159   0.399
14115TIP3    H142230   4.015   8.066   0.420
14115TIP3    H242231   3.982   8.204   0.471
14116TIP3   OH242232   4.483   7.838   0.255
14116TIP3    H142233   4.516   7.753   0.285
14116TIP3    H242234   4.475   7.829   0.161
14117TIP3   OH242235   4.659   8.091   0.247
14117TIP3    H142236   4.682   8.000   0.266
14117TIP3    H242237   4.573   8.103   0.285
14118TIP3   OH242238   0.591   4.666   6.558
14118TIP3    H142239   0.680   4.637   6.539
14118TIP3    H242240   0.558   4.700   6.475
14119TIP3   OH242241   9.774   4.018   6.781
14119TIP3    H142242   9.829   4.094   6.763
14119TIP3    H242243   9.687   4.045   6.750
14120TIP3   OH242244   1.834   4.846   7.189
14120TIP3    H142245   1.856   4.871   7.279
14120TIP3    H242246   1.881   4.908   7.134
14121TIP3   OH242247   1.868   4.877   7.467
14121TIP3    H142248   1.816   4.797   7.463
14121TIP3    H242249   1.936   4.858   7.532
14122TIP3   OH242250   5.176   9.202   0.027
14122TIP3    H142251   5.096   9.213   0.079
14122TIP3    H242252   5.222   9.285   0.038
14123TIP3   OH242253   1.734   4.095   6.643
14123TIP3    H142254   1.792   4.166   6.615
14123TIP3    H242255   1.779   4.056   6.718
14124TIP3   OH242256   1.863   3.953   6.846
14124TIP3    H142257   1.794   3.917   6.902
14124TIP3    H242258   1.927   3.990   6.907
14125TIP3   OH242259   1.904   4.357   7.280
14125TIP3    H142260   1.957   4.289   7.238
14125TIP3    H242261   1.908   4.431   7.220
14126TIP3   OH242262   1.708   4.652   7.470
14126TIP3    H142263   1.645   4.701   7.522
14126TIP3    H242264   1.656   4.610   7.401
14127TIP3   OH242265   1.764   3.868   6.490
14127TIP3    H142266   1.693   3.868   6.427
14127TIP3    H242267   1.749   3.947   6.543
14128TIP3   OH242268   1.623   3.513   6.427
14128TIP3    H142269   1.570   3.551   6.357
14128TIP3    H242270   1.615   3.418   6.415
14129TIP3   OH242271   1.654   3.818   6.979
14129TIP3    H142272   1.657   3.723   6.963
14129TIP3    H242273   1.635   3.826   7.072
14130TIP3   OH242274   0.294   3.893   7.792
14130TIP3    H142275   0.290   3.867   7.700
14130TIP3    H242276   0.388   3.896   7.812
14131TIP3   OH242277   1.949   4.235   7.841
14131TIP3    H142278   2.014   4.167   7.821
14131TIP3    H242279   1.972   4.307   7.782
14132TIP3   OH242280   2.117   4.017   7.828
14132TIP3    H142281   2.041   3.980   7.872
14132TIP3    H242282   2.190   3.963   7.855
14133TIP3   OH242283   1.582   3.240   6.398
14133TIP3    H142284   1.644   3.217   6.468
14133TIP3    H242285   1.498   3.208   6.429
14134TIP3   OH242286   1.649   3.539   6.870
14134TIP3    H142287   1.694   3.456   6.883
14134TIP3    H242288   1.689   3.577   6.791
14135TIP3   OH242289   1.802   3.700   7.394
14135TIP3    H142290   1.883   3.717   7.346
14135TIP3    H242291   1.815   3.742   7.479
14136TIP3   OH242292   1.877   3.853   7.619
14136TIP3    H142293   1.803   3.881   7.673
14136TIP3    H242294   1.908   3.932   7.577
14137TIP3   OH242295   3.706   8.189   0.409
14137TIP3    H142296   3.755   8.238   0.344
14137TIP3    H242297   3.771   8.163   0.474
14138TIP3   OH242298   5.608   8.083   0.122
14138TIP3    H142299   5.671   8.017   0.090
14138TIP3    H242300   5.574   8.123   0.042
14139TIP3   OH242301   1.766   3.289   6.921
14139TIP3    H142302   1.810   3.274   7.005
14139TIP3    H242303   1.702   3.218   6.914
14140TIP3   OH242304   0.457   3.237   7.765
14140TIP3    H142305   0.529   3.178   7.742
14140TIP3    H242306   0.492   3.325   7.751
14141TIP3   OH242307   0.309   3.620   7.880
14141TIP3    H142308   0.345   3.577   7.803
14141TIP3    H242309   0.282   3.707   7.849
14142TIP3   OH242310   2.188   3.567   7.927
14142TIP3    H142311   2.102   3.608   7.936
14142TIP3    H242312   2.171   3.486   7.877
14143TIP3   OH242313   1.808   3.197   6.559
14143TIP3    H142314   1.857   3.138   6.503
14143TIP3    H242315   1.861   3.277   6.563
14144TIP3   OH242316   0.318   3.028   7.383
14144TIP3    H142317   0.276   2.953   7.424
14144TIP3    H242318   0.255   3.058   7.317
14145TIP3   OH242319   1.377   4.768   6.824
14145TIP3    H142320   1.433   4.751   6.749
14145TIP3    H242321   1.427   4.829   6.878
14146TIP3   OH242322   3.697   7.740   0.031
14146TIP3    H142323   3.687   7.826   0.073
14146TIP3    H242324   3.680   7.757  -0.061
14147TIP3   OH242325   7.042  -0.014   0.190
14147TIP3    H142326   6.947  -0.016   0.185
14147TIP3    H242327   7.061   0.057   0.252
14148TIP3   OH242328   0.706   4.590   7.764
14148TIP3    H142329   0.612   4.571   7.771
14148TIP3    H242330   0.711   4.666   7.707
14149TIP3   OH242331   1.116   4.834   7.895
14149TIP3    H142332   1.157   4.822   7.981
14149TIP3    H242333   1.182   4.882   7.845
14150TIP3   OH242334   1.320   4.975   7.773
14150TIP3    H142335   1.394   4.925   7.738
14150TIP3    H242336   1.360   5.044   7.826
14151TIP3   OH242337   2.094   3.325   7.832
14151TIP3    H142338   2.010   3.333   7.787
14151TIP3    H242339   2.117   3.232   7.824
14152TIP3   OH242340   0.655   4.812   7.615
14152TIP3    H142341   0.615   4.862   7.686
14152TIP3    H242342   0.609   4.841   7.536
14153TIP3   OH242343   1.513   4.980   7.400
14153TIP3    H142344   1.491   5.062   7.357
14153TIP3    H242345   1.520   4.916   7.329
14154TIP3   OH242346   0.326   4.593   7.536
14154TIP3    H142347   0.310   4.570   7.628
14154TIP3    H242348   0.416   4.567   7.520
14155TIP3   OH242349   0.562   4.517   7.431
14155TIP3    H142350   0.581   4.425   7.448
14155TIP3    H242351   0.615   4.538   7.354
14156TIP3   OH242352   0.848   4.580   7.370
14156TIP3    H142353   0.857   4.485   7.376
14156TIP3    H242354   0.801   4.605   7.449
14157TIP3   OH242355   1.311   3.242   7.497
14157TIP3    H142356   1.262   3.172   7.541
14157TIP3    H242357   1.378   3.197   7.446
14158TIP3   OH242358   1.804   3.163   7.384
14158TIP3    H142359   1.839   3.213   7.310
14158TIP3    H242360   1.710   3.180   7.382
14159TIP3   OH242361   1.921   3.232   7.144
14159TIP3    H142362   1.990   3.171   7.117
14159TIP3    H242363   1.959   3.319   7.132
14160TIP3   OH242364   0.569   2.938   7.472
14160TIP3    H142365   0.475   2.933   7.455
14160TIP3    H242366   0.599   2.847   7.469
14161TIP3   OH242367   0.373   2.848   7.150
14161TIP3    H142368   0.406   2.882   7.066
14161TIP3    H242369   0.379   2.922   7.210
14162TIP3   OH242370   1.026   2.982   7.376
14162TIP3    H142371   1.071   3.028   7.305
14162TIP3    H242372   1.064   3.018   7.456
14163TIP3   OH242373   1.520   3.119   7.366
14163TIP3    H142374   1.526   3.084   7.277
14163TIP3    H242375   1.527   3.042   7.422
14164TIP3   OH242376   1.581   3.078   6.929
14164TIP3    H142377   1.501   3.126   6.953
14164TIP3    H242378   1.568   2.991   6.967
14165TIP3   OH242379   0.498   2.965   6.924
14165TIP3    H142380   0.546   2.909   6.863
14165TIP3    H242381   0.563   3.028   6.954
14166TIP3   OH242382   0.960   3.177   7.002
14166TIP3    H142383   1.018   3.123   7.055
14166TIP3    H242384   0.981   3.267   7.030
14167TIP3   OH242385   0.842   4.570   6.498
14167TIP3    H142386   0.920   4.598   6.451
14167TIP3    H242387   0.809   4.495   6.448
14168TIP3   OH242388   1.535   4.714   6.600
14168TIP3    H142389   1.529   4.619   6.590
14168TIP3    H242390   1.498   4.749   6.519
14169TIP3   OH242391   4.000   7.892   0.431
14169TIP3    H142392   3.943   7.830   0.386
14169TIP3    H242393   4.089   7.867   0.406
14170TIP3   OH242394   4.253   7.813   0.395
14170TIP3    H142395   4.320   7.833   0.330
14170TIP3    H242396   4.292   7.840   0.478
14171TIP3   OH242397   0.221   4.480   6.533
14171TIP3    H142398   0.255   4.566   6.561
14171TIP3    H242399   0.298   4.423   6.534
14172TIP3   OH242400   5.124   7.920   0.265
14172TIP3    H142401   5.144   7.920   0.358
14172TIP3    H242402   5.209   7.924   0.222
14173TIP3   OH242403   1.765   4.860   7.780
14173TIP3    H142404   1.689   4.832   7.729
14173TIP3    H242405   1.754   4.954   7.791
14174TIP3   OH242406   3.035   4.238   6.527
14174TIP3    H142407   2.999   4.325   6.509
14174TIP3    H242408   2.967   4.177   6.499
14175TIP3   OH242409   3.034   4.233   6.952
14175TIP3    H142410   3.089   4.216   7.028
14175TIP3    H242411   2.990   4.150   6.934
14176TIP3   OH242412   2.332   4.092   7.294
14176TIP3    H142413   2.372   4.041   7.365
14176TIP3    H242414   2.406   4.117   7.238
14177TIP3   OH242415   3.302   4.543   6.621
14177TIP3    H142416   3.291   4.476   6.688
14177TIP3    H242417   3.324   4.622   6.670
14178TIP3   OH242418   2.329   4.518   6.972
14178TIP3    H142419   2.310   4.424   6.982
14178TIP3    H242420   2.424   4.522   6.967
14179TIP3   OH242421   2.008   3.724   6.764
14179TIP3    H142422   1.970   3.809   6.789
14179TIP3    H242423   1.936   3.677   6.724
14180TIP3   OH242424   2.091   4.040   6.990
14180TIP3    H142425   2.141   3.962   7.015
14180TIP3    H242426   2.158   4.104   6.966
14181TIP3   OH242427   2.968   4.969   6.632
14181TIP3    H142428   2.999   4.904   6.569
14181TIP3    H242429   2.970   4.923   6.716
14182TIP3   OH242430   2.845   4.455   6.956
14182TIP3    H142431   2.891   4.375   6.929
14182TIP3    H242432   2.915   4.513   6.987
14183TIP3   OH242433   3.883   3.771   6.972
14183TIP3    H142434   3.896   3.856   7.013
14183TIP3    H242435   3.913   3.783   6.882
14184TIP3   OH242436   3.246   3.941   6.989
14184TIP3    H142437   3.279   3.855   7.017
14184TIP3    H242438   3.210   3.925   6.902
14185TIP3   OH242439   2.606   3.599   6.947
14185TIP3    H142440   2.584   3.672   6.890
14185TIP3    H242441   2.550   3.527   6.917
14186TIP3   OH242442   3.302   3.703   6.587
14186TIP3    H142443   3.366   3.697   6.659
14186TIP3    H242444   3.352   3.737   6.513
14187TIP3   OH242445   2.229   3.816   7.080
14187TIP3    H142446   2.312   3.798   7.123
14187TIP3    H242447   2.231   3.765   6.999
14188TIP3   OH242448   2.647   4.016   6.895
14188TIP3    H142449   2.741   4.001   6.902
14188TIP3    H242450   2.612   3.934   6.862
14189TIP3   OH242451   3.931   3.990   7.140
14189TIP3    H142452   3.846   4.034   7.130
14189TIP3    H242453   3.970   4.030   7.218
14190TIP3   OH242454   2.585   3.606   7.400
14190TIP3    H142455   2.536   3.641   7.326
14190TIP3    H242456   2.530   3.623   7.476
14191TIP3   OH242457   2.891   4.445   6.412
14191TIP3    H142458   2.881   4.436   6.318
14191TIP3    H242459   2.858   4.533   6.432
14192TIP3   OH242460   2.675   4.381   7.162
14192TIP3    H142461   2.624   4.454   7.197
14192TIP3    H242462   2.727   4.419   7.091
14193TIP3   OH242463   3.459   3.726   6.811
14193TIP3    H142464   3.416   3.705   6.894
14193TIP3    H242465   3.515   3.800   6.831
14194TIP3   OH242466   2.478   3.712   7.168
14194TIP3    H142467   2.533   3.787   7.191
14194TIP3    H242468   2.525   3.669   7.096
14195TIP3   OH242469   2.524   4.586   7.271
14195TIP3    H142470   2.511   4.677   7.242
14195TIP3    H242471   2.447   4.567   7.323
14196TIP3   OH242472   1.903   4.289   6.528
14196TIP3    H142473   1.867   4.309   6.441
14196TIP3    H242474   1.926   4.374   6.565
14197TIP3   OH242475   3.337   4.789   6.764
14197TIP3    H142476   3.249   4.783   6.800
14197TIP3    H242477   3.338   4.872   6.716
14198TIP3   OH242478   3.684   3.651   7.136
14198TIP3    H142479   3.599   3.677   7.101
14198TIP3    H242480   3.747   3.682   7.071
14199TIP3   OH242481   2.928   3.295   7.136
14199TIP3    H142482   2.920   3.202   7.160
14199TIP3    H242483   2.851   3.337   7.174
14200TIP3   OH242484   3.062   4.829   6.410
14200TIP3    H142485   3.108   4.745   6.401
14200TIP3    H242486   3.128   4.895   6.391
14201TIP3   OH242487   3.199   4.599   6.371
14201TIP3    H142488   3.213   4.524   6.313
14201TIP3    H242489   3.237   4.573   6.454
14202TIP3   OH242490   3.574   4.678   7.110
14202TIP3    H142491   3.558   4.604   7.052
14202TIP3    H242492   3.561   4.755   7.054
14203TIP3   OH242493   2.867   4.076   6.371
14203TIP3    H142494   2.788   4.126   6.352
14203TIP3    H242495   2.917   4.076   6.289
14204TIP3   OH242496   2.841   3.899   6.047
14204TIP3    H142497   2.907   3.947   6.098
14204TIP3    H242498   2.889   3.829   6.005
14205TIP3   OH242499   3.750   4.333   6.971
14205TIP3    H142500   3.667   4.381   6.971
14205TIP3    H242501   3.786   4.347   6.884
14206TIP3   OH242502   3.225   4.168   6.342
14206TIP3    H142503   3.170   4.195   6.416
14206TIP3    H242504   3.308   4.143   6.382
14207TIP3   OH242505   3.450   4.196   7.285
14207TIP3    H142506   3.447   4.280   7.331
14207TIP3    H242507   3.369   4.192   7.235
14208TIP3   OH242508   2.454   4.150   6.737
14208TIP3    H142509   2.418   4.088   6.674
14208TIP3    H242510   2.526   4.103   6.779
14209TIP3   OH242511   2.593   4.570   6.882
14209TIP3    H142512   2.572   4.556   6.790
14209TIP3    H242513   2.681   4.532   6.893
14210TIP3   OH242514   2.545   4.144   7.118
14210TIP3    H142515   2.584   4.108   7.039
14210TIP3    H242516   2.592   4.226   7.133
14211TIP3   OH242517   3.095   4.785   6.891
14211TIP3    H142518   3.087   4.865   6.943
14211TIP3    H242519   3.082   4.714   6.954
14212TIP3   OH242520   2.723   4.680   7.442
14212TIP3    H142521   2.662   4.736   7.489
14212TIP3    H242522   2.668   4.629   7.382
14213TIP3   OH242523   3.060   4.040   6.164
14213TIP3    H142524   3.119   4.087   6.222
14213TIP3    H242525   3.077   4.076   6.077
14214TIP3   OH242526   2.475   4.224   7.591
14214TIP3    H142527   2.480   4.318   7.606
14214TIP3    H242528   2.382   4.206   7.580
14215TIP3   OH242529   2.806   4.711   6.419
14215TIP3    H142530   2.891   4.754   6.424
14215TIP3    H242531   2.751   4.773   6.371
14216TIP3   OH242532   2.512   4.836   7.528
14216TIP3    H142533   2.488   4.850   7.437
14216TIP3    H242534   2.429   4.824   7.574
14217TIP3   OH242535   3.566   3.258   6.229
14217TIP3    H142536   3.490   3.279   6.284
14217TIP3    H242537   3.574   3.333   6.170
14218TIP3   OH242538   2.329   3.990   6.537
14218TIP3    H142539   2.249   4.036   6.512
14218TIP3    H242540   2.301   3.900   6.552
14219TIP3   OH242541   2.106   4.398   7.475
14219TIP3    H142542   2.036   4.379   7.412
14219TIP3    H242543   2.141   4.312   7.498
14220TIP3   OH242544   1.949   4.594   7.132
14220TIP3    H142545   2.040   4.619   7.150
14220TIP3    H242546   1.898   4.670   7.159
14221TIP3   OH242547   3.804   5.027   7.181
14221TIP3    H142548   3.810   4.935   7.207
14221TIP3    H242549   3.726   5.059   7.226
14222TIP3   OH242550   2.911   4.828   7.305
14222TIP3    H142551   2.903   4.919   7.333
14222TIP3    H242552   2.844   4.782   7.355
14223TIP3   OH242553   2.687   4.921   6.246
14223TIP3    H142554   2.640   4.903   6.164
14223TIP3    H242555   2.650   5.004   6.277
14224TIP3   OH242556   2.128   4.778   6.635
14224TIP3    H142557   2.172   4.771   6.719
14224TIP3    H242558   2.079   4.696   6.627
14225TIP3   OH242559   2.888   4.849   5.902
14225TIP3    H142560   2.944   4.782   5.861
14225TIP3    H242561   2.933   4.871   5.984
14226TIP3   OH242562   2.950   4.919   6.167
14226TIP3    H142563   2.860   4.913   6.197
14226TIP3    H242564   3.001   4.877   6.236
14227TIP3   OH242565   3.693   4.163   7.440
14227TIP3    H142566   3.609   4.168   7.393
14227TIP3    H242567   3.713   4.069   7.443
14228TIP3   OH242568   2.308   4.584   7.442
14228TIP3    H142569   2.358   4.571   7.523
14228TIP3    H242570   2.234   4.523   7.450
14229TIP3   OH242571   2.690   3.388   7.259
14229TIP3    H142572   2.607   3.354   7.226
14229TIP3    H242573   2.668   3.469   7.304
14230TIP3   OH242574   3.230   3.512   7.459
14230TIP3    H142575   3.300   3.488   7.520
14230TIP3    H242576   3.149   3.497   7.507
14231TIP3   OH242577   3.458   3.929   7.374
14231TIP3    H142578   3.416   3.925   7.460
14231TIP3    H242579   3.440   4.018   7.344
14232TIP3   OH242580   3.103   4.148   5.918
14232TIP3    H142581   3.092   4.098   5.838
14232TIP3    H242582   3.101   4.240   5.890
14233TIP3   OH242583   2.840   3.430   6.227
14233TIP3    H142584   2.803   3.437   6.315
14233TIP3    H242585   2.805   3.348   6.193
14234TIP3   OH242586   2.628   3.924   7.266
14234TIP3    H142587   2.584   3.931   7.350
14234TIP3    H242588   2.607   4.005   7.220
14235TIP3   OH242589   2.507   3.800   6.789
14235TIP3    H142590   2.418   3.776   6.814
14235TIP3    H242591   2.517   3.768   6.699
14236TIP3   OH242592   2.988   3.872   6.511
14236TIP3    H142593   2.940   3.945   6.471
14236TIP3    H242594   3.047   3.841   6.443
14237TIP3   OH242595   3.175   4.140   7.584
14237TIP3    H142596   3.149   4.073   7.647
14237TIP3    H242597   3.267   4.157   7.603
14238TIP3   OH242598   3.154   3.888   6.737
14238TIP3    H142599   3.086   3.909   6.673
14238TIP3    H242600   3.202   3.815   6.698
14239TIP3   OH242601   2.468   3.940   7.489
14239TIP3    H142602   2.479   4.005   7.558
14239TIP3    H242603   2.450   3.858   7.535
14240TIP3   OH242604   2.508   3.410   6.205
14240TIP3    H142605   2.499   3.415   6.300
14240TIP3    H242606   2.430   3.453   6.170
14241TIP3   OH242607   2.056   3.453   7.072
14241TIP3    H142608   2.128   3.491   7.122
14241TIP3    H242609   2.092   3.439   6.984
14242TIP3   OH242610   1.958   3.432   6.570
14242TIP3    H142611   2.003   3.467   6.494
14242TIP3    H242612   1.895   3.499   6.594
14243TIP3   OH242613   3.201   4.143   7.163
14243TIP3    H142614   3.224   4.076   7.099
14243TIP3    H242615   3.155   4.095   7.232
14244TIP3   OH242616   2.874   3.587   6.838
14244TIP3    H142617   2.796   3.587   6.893
14244TIP3    H242618   2.947   3.579   6.899
14245TIP3   OH242619   2.268   3.676   6.847
14245TIP3    H142620   2.180   3.680   6.809
14245TIP3    H242621   2.296   3.586   6.831
14246TIP3   OH242622   2.521   3.679   6.543
14246TIP3    H142623   2.616   3.688   6.533
14246TIP3    H242624   2.486   3.696   6.455
14247TIP3   OH242625   3.316   3.679   7.048
14247TIP3    H142626   3.297   3.696   7.140
14247TIP3    H242627   3.248   3.617   7.021
14248TIP3   OH242628   2.412   3.702   6.293
14248TIP3    H142629   2.349   3.653   6.239
14248TIP3    H242630   2.468   3.747   6.230
14249TIP3   OH242631   3.512   5.381   7.270
14249TIP3    H142632   3.513   5.393   7.175
14249TIP3    H242633   3.591   5.427   7.301
14250TIP3   OH242634   2.458   4.492   7.677
14250TIP3    H142635   2.539   4.513   7.724
14250TIP3    H242636   2.389   4.504   7.742
14251TIP3   OH242637   2.920   3.963   6.944
14251TIP3    H142638   2.987   3.915   6.896
14251TIP3    H242639   2.919   3.921   7.031
14252TIP3   OH242640   2.410   3.427   6.832
14252TIP3    H142641   2.383   3.351   6.884
14252TIP3    H242642   2.430   3.391   6.745
14253TIP3   OH242643   2.894   3.864   7.209
14253TIP3    H142644   2.807   3.897   7.232
14253TIP3    H242645   2.955   3.916   7.261
14254TIP3   OH242646   2.638   4.223   6.309
14254TIP3    H142647   2.564   4.166   6.288
14254TIP3    H242648   2.614   4.265   6.391
14255TIP3   OH242649   3.519   4.477   6.928
14255TIP3    H142650   3.556   4.526   6.855
14255TIP3    H242651   3.440   4.436   6.892
14256TIP3   OH242652   3.093   3.533   6.236
14256TIP3    H142653   3.000   3.512   6.230
14256TIP3    H242654   3.096   3.628   6.244
14257TIP3   OH242655   3.036   4.558   7.343
14257TIP3    H142656   3.090   4.548   7.421
14257TIP3    H242657   2.997   4.645   7.352
14258TIP3   OH242658   3.152   3.802   6.294
14258TIP3    H142659   3.247   3.804   6.306
14258TIP3    H242660   3.133   3.878   6.238
14259TIP3   OH242661   2.315   4.226   6.967
14259TIP3    H142662   2.355   4.210   6.881
14259TIP3    H242663   2.382   4.198   7.029
14260TIP3   OH242664   2.791   4.379   6.141
14260TIP3    H142665   2.744   4.462   6.145
14260TIP3    H242666   2.743   4.321   6.200
14261TIP3   OH242667   2.200   4.163   7.603
14261TIP3    H142668   2.203   4.133   7.694
14261TIP3    H242669   2.124   4.118   7.566
14262TIP3   OH242670   2.945   4.298   7.626
14262TIP3    H142671   2.875   4.238   7.600
14262TIP3    H242672   3.025   4.256   7.596
14263TIP3   OH242673   3.181   4.848   7.227
14263TIP3    H142674   3.086   4.835   7.232
14263TIP3    H242675   3.205   4.885   7.312
14264TIP3   OH242676   3.566   3.891   6.122
14264TIP3    H142677   3.510   3.850   6.056
14264TIP3    H242678   3.577   3.981   6.091
14265TIP3   OH242679   3.821   4.737   7.213
14265TIP3    H142680   3.726   4.734   7.197
14265TIP3    H242681   3.860   4.721   7.127
14266TIP3   OH242682   3.271   4.690   6.024
14266TIP3    H142683   3.270   4.618   6.088
14266TIP3    H242684   3.211   4.661   5.955
14267TIP3   OH242685   3.291   4.340   6.823
14267TIP3    H142686   3.201   4.319   6.848
14267TIP3    H242687   3.325   4.258   6.787
14268TIP3   OH242688   2.448   4.574   6.638
14268TIP3    H142689   2.441   4.649   6.579
14268TIP3    H242690   2.362   4.568   6.679
14269TIP3   OH242691   2.005   3.857   6.357
14269TIP3    H142692   2.047   3.940   6.380
14269TIP3    H242693   1.923   3.857   6.406
14270TIP3   OH242694   2.522   4.330   6.531
14270TIP3    H142695   2.510   4.418   6.565
14270TIP3    H242696   2.501   4.273   6.604
14271TIP3   OH242697   2.729   4.897   7.096
14271TIP3    H142698   2.766   4.970   7.046
14271TIP3    H242699   2.802   4.865   7.149
14272TIP3   OH242700   2.358   4.796   6.483
14272TIP3    H142701   2.273   4.801   6.527
14272TIP3    H242702   2.396   4.883   6.495
14273TIP3   OH242703   3.076   4.565   7.069
14273TIP3    H142704   3.062   4.560   7.163
14273TIP3    H242705   3.158   4.517   7.054
14274TIP3   OH242706   3.034   4.431   6.004
14274TIP3    H142707   3.106   4.414   6.065
14274TIP3    H242708   2.955   4.408   6.053
14275TIP3   OH242709   3.337   5.055   7.105
14275TIP3    H142710   3.266   4.994   7.125
14275TIP3    H242711   3.302   5.111   7.036
14276TIP3   OH242712   2.413   3.686   7.605
14276TIP3    H142713   2.318   3.695   7.610
14276TIP3    H242714   2.437   3.637   7.684
14277TIP3   OH242715   3.250   4.392   6.180
14277TIP3    H142716   3.235   4.315   6.234
14277TIP3    H242717   3.342   4.386   6.155
14278TIP3   OH242718   2.154   4.796   7.254
14278TIP3    H142719   2.208   4.739   7.310
14278TIP3    H242720   2.167   4.884   7.291
14279TIP3   OH242721   2.387   4.396   5.953
14279TIP3    H142722   2.471   4.359   5.926
14279TIP3    H242723   2.386   4.387   6.048
14280TIP3   OH242724   2.372   4.412   6.231
14280TIP3    H142725   2.434   4.381   6.296
14280TIP3    H242726   2.377   4.507   6.237
14281TIP3   OH242727   2.098   4.109   6.439
14281TIP3    H142728   2.033   4.157   6.490
14281TIP3    H242729   2.118   4.166   6.365
14282TIP3   OH242730   3.261   3.742   7.310
14282TIP3    H142731   3.340   3.786   7.342
14282TIP3    H242732   3.252   3.666   7.366
14283TIP3   OH242733   3.155   3.482   6.502
14283TIP3    H142734   3.134   3.501   6.411
14283TIP3    H242735   3.199   3.562   6.533
14284TIP3   OH242736   2.639   4.601   6.145
14284TIP3    H142737   2.558   4.624   6.190
14284TIP3    H242738   2.657   4.676   6.089
14285TIP3   OH242739   2.801   3.684   6.587
14285TIP3    H142740   2.863   3.751   6.560
14285TIP3    H242741   2.826   3.663   6.677
14286TIP3   OH242742   3.100   3.977   7.359
14286TIP3    H142743   3.125   4.021   7.441
14286TIP3    H242744   3.151   3.896   7.359
14287TIP3   OH242745   2.966   3.377   6.674
14287TIP3    H142746   2.942   3.454   6.725
14287TIP3    H242747   3.036   3.407   6.617
14288TIP3   OH242748   2.391   4.685   6.236
14288TIP3    H142749   2.360   4.750   6.173
14288TIP3    H242750   2.378   4.726   6.321
14289TIP3   OH242751   2.478   3.405   6.484
14289TIP3    H142752   2.466   3.496   6.512
14289TIP3    H242753   2.572   3.390   6.490
14290TIP3   OH242754   3.726   3.888   7.365
14290TIP3    H142755   3.631   3.887   7.374
14290TIP3    H242756   3.741   3.859   7.275
14291TIP3   OH242757   3.381   4.079   6.739
14291TIP3    H142758   3.305   4.023   6.751
14291TIP3    H242759   3.449   4.040   6.795
14292TIP3   OH242760   2.127   4.283   6.223
14292TIP3    H142761   2.201   4.342   6.235
14292TIP3    H242762   2.156   4.221   6.156
14293TIP3   OH242763   2.025   3.579   6.349
14293TIP3    H142764   2.039   3.673   6.359
14293TIP3    H242765   1.961   3.572   6.278
14294TIP3   OH242766   3.359   5.054   6.674
14294TIP3    H142767   3.320   5.113   6.609
14294TIP3    H242768   3.453   5.067   6.665
14295TIP3   OH242769   2.429   3.302   7.217
14295TIP3    H142770   2.400   3.270   7.131
14295TIP3    H242771   2.421   3.226   7.275
14296TIP3   OH242772   1.950   4.558   6.610
14296TIP3    H142773   1.908   4.594   6.688
14296TIP3    H242774   1.906   4.601   6.537
14297TIP3   OH242775   2.158   5.094   7.677
14297TIP3    H142776   2.239   5.103   7.727
14297TIP3    H242777   2.149   5.000   7.663
14298TIP3   OH242778   2.618   5.001   7.723
14298TIP3    H142779   2.711   4.978   7.730
14298TIP3    H242780   2.585   4.946   7.652
14299TIP3   OH242781   2.613   4.591   5.801
14299TIP3    H142782   2.626   4.505   5.840
14299TIP3    H242783   2.652   4.585   5.714
14300TIP3   OH242784   3.236   4.945   7.477
14300TIP3    H142785   3.251   4.875   7.541
14300TIP3    H242786   3.310   5.005   7.490
14301TIP3   OH242787   3.044   4.628   5.815
14301TIP3    H142788   3.037   4.555   5.875
14301TIP3    H242789   3.036   4.589   5.728
14302TIP3   OH242790   2.251   4.495   7.866
14302TIP3    H142791   2.271   4.403   7.879
14302TIP3    H242792   2.163   4.496   7.828
14303TIP3   OH242793   2.246   4.097   6.062
14303TIP3    H142794   2.303   4.077   6.136
14303TIP3    H242795   2.304   4.097   5.986
14304TIP3   OH242796   2.878   4.575   7.645
14304TIP3    H142797   2.834   4.597   7.563
14304TIP3    H242798   2.914   4.487   7.630
14305TIP3   OH242799   2.656   4.306   5.901
14305TIP3    H142800   2.704   4.335   5.978
14305TIP3    H242801   2.705   4.231   5.869
14306TIP3   OH242802   3.348   4.621   7.259
14306TIP3    H142803   3.426   4.648   7.211
14306TIP3    H242804   3.285   4.692   7.244
14307TIP3   OH242805   2.367   4.240   7.873
14307TIP3    H142806   2.439   4.225   7.812
14307TIP3    H242807   2.411   4.262   7.956
14308TIP3   OH242808   2.427   4.044   6.272
14308TIP3    H142809   2.404   4.016   6.361
14308TIP3    H242810   2.475   3.969   6.236
14309TIP3   OH242811   2.737   4.122   7.535
14309TIP3    H142812   2.651   4.162   7.547
14309TIP3    H242813   2.766   4.152   7.449
14310TIP3   OH242814   2.571   3.854   6.126
14310TIP3    H142815   2.539   3.840   6.037
14310TIP3    H242816   2.666   3.867   6.116
14311TIP3   OH242817   3.231   4.495   7.609
14311TIP3    H142818   3.301   4.459   7.554
14311TIP3    H242819   3.230   4.438   7.686
14312TIP3   OH242820   2.838   3.888   7.637
14312TIP3    H142821   2.841   3.818   7.571
14312TIP3    H242822   2.805   3.964   7.590
14313TIP3   OH242823   2.845   3.690   7.434
14313TIP3    H142824   2.872   3.728   7.351
14313TIP3    H242825   2.754   3.664   7.421
14314TIP3   OH242826   2.846   4.222   7.308
14314TIP3    H142827   2.934   4.260   7.298
14314TIP3    H242828   2.790   4.280   7.257
14315TIP3   OH242829   3.444   4.178   7.678
14315TIP3    H142830   3.489   4.093   7.684
14315TIP3    H242831   3.514   4.241   7.663
14316TIP3   OH242832   3.470   4.442   7.424
14316TIP3    H142833   3.418   4.505   7.373
14316TIP3    H242834   3.560   4.457   7.394
14317TIP3   OH242835   2.720   3.969   7.878
14317TIP3    H142836   2.648   3.910   7.900
14317TIP3    H242837   2.746   3.943   7.789
14318TIP3   OH242838   2.966   3.461   7.540
14318TIP3    H142839   2.926   3.542   7.506
14318TIP3    H242840   2.900   3.394   7.526
14319TIP3   OH242841   3.094   3.929   7.739
14319TIP3    H142842   3.083   3.916   7.834
14319TIP3    H242843   3.008   3.908   7.703
14320TIP3   OH242844   3.339   3.885   7.612
14320TIP3    H142845   3.260   3.885   7.666
14320TIP3    H242846   3.410   3.862   7.672
14321TIP3   OH242847   3.573   3.850   7.759
14321TIP3    H142848   3.589   3.756   7.765
14321TIP3    H242849   3.568   3.878   7.851
14322TIP3   OH242850   2.554   3.748   7.945
14322TIP3    H142851   2.561   3.660   7.907
14322TIP3    H242852   2.596   3.740   8.030
14323TIP3   OH242853   3.031   3.430   7.804
14323TIP3    H142854   3.101   3.365   7.796
14323TIP3    H242855   3.001   3.445   7.714
14324TIP3   OH242856   3.127   3.647   7.945
14324TIP3    H142857   3.096   3.574   7.891
14324TIP3    H242858   3.055   3.710   7.943
14325TIP3   OH242859   2.346   4.833   6.000
14325TIP3    H142860   2.441   4.835   5.988
14325TIP3    H242861   2.314   4.904   5.945
14326TIP3   OH242862   1.853   4.287   6.230
14326TIP3    H142863   1.948   4.294   6.232
14326TIP3    H242864   1.835   4.200   6.195
14327TIP3   OH242865   1.751   4.861   6.691
14327TIP3    H142866   1.683   4.808   6.650
14327TIP3    H242867   1.795   4.801   6.752
14328TIP3   OH242868   1.896   4.697   6.862
14328TIP3    H142869   1.888   4.629   6.929
14328TIP3    H242870   1.948   4.766   6.903
14329TIP3   OH242871   3.623   5.122   6.669
14329TIP3    H142872   3.653   5.145   6.757
14329TIP3    H242873   3.685   5.163   6.610
14330TIP3   OH242874   3.662   5.128   6.954
14330TIP3    H142875   3.616   5.045   6.945
14330TIP3    H242876   3.731   5.111   7.018
14331TIP3   OH242877   3.731   4.840   7.547
14331TIP3    H142878   3.652   4.853   7.599
14331TIP3    H242879   3.771   4.926   7.542
14332TIP3   OH242880   3.522   4.352   6.138
14332TIP3    H142881   3.579   4.421   6.103
14332TIP3    H242882   3.572   4.312   6.209
14333TIP3   OH242883   3.660   4.208   6.333
14333TIP3    H142884   3.594   4.173   6.392
14333TIP3    H242885   3.725   4.247   6.391
14334TIP3   OH242886   3.707   4.612   6.769
14334TIP3    H142887   3.758   4.541   6.730
14334TIP3    H242888   3.716   4.685   6.707
14335TIP3   OH242889   3.510   4.895   6.957
14335TIP3    H142890   3.445   4.944   7.007
14335TIP3    H242891   3.460   4.856   6.885
14336TIP3   OH242892   3.561   4.129   5.980
14336TIP3    H142893   3.488   4.127   5.918
14336TIP3    H242894   3.546   4.208   6.032
14337TIP3   OH242895   3.421   3.803   5.909
14337TIP3    H142896   3.437   3.830   5.818
14337TIP3    H242897   3.397   3.711   5.902
14338TIP3   OH242898   3.453   4.072   6.471
14338TIP3    H142899   3.459   3.978   6.457
14338TIP3    H242900   3.435   4.081   6.564
14339TIP3   OH242901   2.069   4.134   7.245
14339TIP3    H142902   2.060   4.102   7.155
14339TIP3    H242903   2.163   4.129   7.263
14340TIP3   OH242904   3.732   4.489   7.338
14340TIP3    H142905   3.797   4.422   7.318
14340TIP3    H242906   3.755   4.563   7.281
14341TIP3   OH242907   3.915   4.279   7.332
14341TIP3    H142908   3.838   4.242   7.374
14341TIP3    H242909   3.986   4.218   7.352
14342TIP3   OH242910   3.363   3.536   5.900
14342TIP3    H142911   3.435   3.501   5.952
14342TIP3    H242912   3.287   3.483   5.925
14343TIP3   OH242913   3.443   3.794   6.358
14343TIP3    H142914   3.489   3.711   6.370
14343TIP3    H242915   3.485   3.833   6.281
14344TIP3   OH242916   3.597   3.958   6.881
14344TIP3    H142917   3.677   3.977   6.832
14344TIP3    H242918   3.612   3.998   6.967
14345TIP3   OH242919   3.673   4.107   7.110
14345TIP3    H142920   3.600   4.136   7.164
14345TIP3    H242921   3.701   4.186   7.063
14346TIP3   OH242922   2.295   3.817   7.883
14346TIP3    H142923   2.388   3.813   7.905
14346TIP3    H242924   2.259   3.734   7.914
14347TIP3   OH242925   4.131   3.702   7.644
14347TIP3    H142926   4.198   3.648   7.603
14347TIP3    H242927   4.093   3.752   7.571
14348TIP3   OH242928   3.561   3.545   6.409
14348TIP3    H142929   3.608   3.529   6.491
14348TIP3    H242930   3.500   3.472   6.402
14349TIP3   OH242931   2.269   3.528   7.236
14349TIP3    H142932   2.322   3.449   7.240
14349TIP3    H242933   2.331   3.598   7.216
14350TIP3   OH242934   2.046   3.789   7.297
14350TIP3    H142935   2.097   3.780   7.216
14350TIP3    H242936   2.070   3.875   7.331
14351TIP3   OH242937   3.978   3.815   7.444
14351TIP3    H142938   3.892   3.856   7.446
14351TIP3    H242939   3.965   3.734   7.394
14352TIP3   OH242940   3.596   3.458   6.040
14352TIP3    H142941   3.643   3.398   5.983
14352TIP3    H242942   3.652   3.536   6.045
14353TIP3   OH242943   2.034   3.304   6.800
14353TIP3    H142944   1.949   3.291   6.841
14353TIP3    H242945   2.015   3.356   6.722
14354TIP3   OH242946   3.223   5.031   6.314
14354TIP3    H142947   3.257   4.990   6.234
14354TIP3    H242948   3.269   5.115   6.319
14355TIP3   OH242949   2.265   3.351   7.609
14355TIP3    H142950   2.212   3.344   7.689
14355TIP3    H242951   2.212   3.404   7.550
14356TIP3   OH242952   2.285   4.816   7.692
14356TIP3    H142953   2.193   4.791   7.686
14356TIP3    H242954   2.306   4.811   7.785
14357TIP3   OH242955   2.500   4.863   7.245
14357TIP3    H142956   2.450   4.940   7.215
14357TIP3    H242957   2.585   4.871   7.202
14358TIP3   OH242958   2.898   5.097   7.376
14358TIP3    H142959   2.936   5.092   7.463
14358TIP3    H242960   2.956   5.155   7.327
14359TIP3   OH242961   3.084   5.258   7.245
14359TIP3    H142962   3.149   5.199   7.207
14359TIP3    H242963   3.135   5.316   7.302
14360TIP3   OH242964   3.896   3.572   7.337
14360TIP3    H142965   3.812   3.574   7.290
14360TIP3    H242966   3.925   3.481   7.332
14361TIP3   OH242967   2.158   5.097   7.291
14361TIP3    H142968   2.067   5.112   7.268
14361TIP3    H242969   2.178   5.164   7.355
14362TIP3   OH242970   2.394   5.098   7.144
14362TIP3    H142971   2.311   5.100   7.192
14362TIP3    H242972   2.370   5.121   7.055
14363TIP3   OH242973   2.805   5.107   6.929
14363TIP3    H142974   2.729   5.114   6.871
14363TIP3    H242975   2.814   5.194   6.968
14364TIP3   OH242976   3.071   5.047   6.978
14364TIP3    H142977   2.979   5.066   6.960
14364TIP3    H242978   3.119   5.115   6.931
14365TIP3   OH242979   3.278   5.219   6.878
14365TIP3    H142980   3.259   5.296   6.824
14365TIP3    H242981   3.312   5.154   6.816
14366TIP3   OH242982   2.068   4.877   7.002
14366TIP3    H142983   2.090   4.856   7.092
14366TIP3    H242984   2.142   4.844   6.950
14367TIP3   OH242985   2.275   4.763   6.867
14367TIP3    H142986   2.286   4.678   6.910
14367TIP3    H242987   2.362   4.804   6.874
14368TIP3   OH242988   2.542   4.846   6.895
14368TIP3    H142989   2.563   4.754   6.879
14368TIP3    H242990   2.597   4.870   6.970
14369TIP3   OH242991   3.101   3.497   6.980
14369TIP3    H142992   3.062   3.425   7.030
14369TIP3    H242993   3.169   3.456   6.928
14370TIP3   OH242994   3.603   3.416   6.868
14370TIP3    H142995   3.641   3.464   6.795
14370TIP3    H242996   3.510   3.440   6.868
14371TIP3   OH242997   3.719   3.489   6.630
14371TIP3    H142998   3.787   3.428   6.603
14371TIP3    H242999   3.759   3.576   6.618
14372TIP3   OH243000   2.341   3.199   6.976
14372TIP3    H143001   2.251   3.166   6.986
14372TIP3    H243002   2.394   3.120   6.967
14373TIP3   OH243003   2.171   3.112   6.637
14373TIP3    H143004   2.192   3.160   6.556
14373TIP3    H243005   2.130   3.178   6.693
14374TIP3   OH243006   2.824   3.236   6.875
14374TIP3    H143007   2.870   3.282   6.805
14374TIP3    H243008   2.865   3.266   6.956
14375TIP3   OH243009   3.314   3.381   6.848
14375TIP3    H143010   3.330   3.347   6.760
14375TIP3    H243011   3.321   3.304   6.905
14376TIP3   OH243012   3.376   3.334   6.416
14376TIP3    H143013   3.297   3.381   6.440
14376TIP3    H243014   3.365   3.247   6.453
14377TIP3   OH243015   1.834   4.676   6.390
14377TIP3    H143016   1.749   4.644   6.359
14377TIP3    H243017   1.837   4.767   6.360
14378TIP3   OH243018   2.269   3.236   6.392
14378TIP3    H143019   2.315   3.175   6.335
14378TIP3    H243020   2.338   3.292   6.427
14379TIP3   OH243021   2.753   3.432   6.490
14379TIP3    H143022   2.813   3.379   6.543
14379TIP3    H243023   2.769   3.522   6.519
14380TIP3   OH243024   2.624   4.815   5.962
14380TIP3    H143025   2.712   4.848   5.942
14380TIP3    H243026   2.612   4.739   5.905
14381TIP3   OH243027   3.337   4.951   6.074
14381TIP3    H143028   3.321   4.857   6.060
14381TIP3    H243029   3.296   4.993   5.999
14382TIP3   OH243030   2.574   3.482   7.852
14382TIP3    H143031   2.540   3.413   7.909
14382TIP3    H243032   2.666   3.490   7.876
14383TIP3   OH243033   2.819   3.481   7.980
14383TIP3    H143034   2.896   3.459   7.928
14383TIP3    H243035   2.811   3.409   8.042
14384TIP3   OH243036   1.940   4.679   6.046
14384TIP3    H143037   1.931   4.674   6.141
14384TIP3    H243038   2.008   4.615   6.025
14385TIP3   OH243039   3.638   3.579   7.764
14385TIP3    H143040   3.655   3.551   7.853
14385TIP3    H243041   3.723   3.573   7.720
14386TIP3   OH243042   3.556   5.108   7.275
14386TIP3    H143043   3.483   5.081   7.220
14386TIP3    H243044   3.546   5.203   7.283
14387TIP3   OH243045   4.829   4.493   6.009
14387TIP3    H143046   4.793   4.580   5.992
14387TIP3    H243047   4.761   4.432   5.981
14388TIP3   OH243048   4.824   4.488   6.438
14388TIP3    H143049   4.881   4.475   6.513
14388TIP3    H243050   4.784   4.402   6.423
14389TIP3   OH243051   4.129   4.353   6.788
14389TIP3    H143052   4.167   4.295   6.854
14389TIP3    H243053   4.202   4.377   6.732
14390TIP3   OH243054   5.101   4.800   6.106
14390TIP3    H143055   5.091   4.732   6.173
14390TIP3    H243056   5.120   4.880   6.155
14391TIP3   OH243057   4.110   4.772   6.471
14391TIP3    H143058   4.096   4.678   6.471
14391TIP3    H243059   4.205   4.783   6.462
14392TIP3   OH243060   3.805   3.976   6.259
14392TIP3    H143061   3.770   4.063   6.280
14392TIP3    H243062   3.732   3.930   6.218
14393TIP3   OH243063   3.888   4.296   6.475
14393TIP3    H143064   3.938   4.219   6.499
14393TIP3    H243065   3.953   4.361   6.450
14394TIP3   OH243066   4.760   5.212   6.134
14394TIP3    H143067   4.787   5.149   6.068
14394TIP3    H243068   4.782   5.169   6.217
14395TIP3   OH243069   4.639   4.708   6.451
14395TIP3    H143070   4.686   4.630   6.422
14395TIP3    H243071   4.708   4.768   6.481
14396TIP3   OH243072   5.675   4.035   6.461
14396TIP3    H143073   5.682   4.124   6.495
14396TIP3    H243074   5.702   4.042   6.369
14397TIP3   OH243075   5.038   4.195   6.475
14397TIP3    H143076   5.074   4.111   6.503
14397TIP3    H243077   5.003   4.178   6.387
14398TIP3   OH243078   4.399   3.854   6.436
14398TIP3    H143079   4.381   3.928   6.379
14398TIP3    H243080   4.344   3.783   6.402
14399TIP3   OH243081   5.100   3.962   6.071
14399TIP3    H143082   5.163   3.956   6.142
14399TIP3    H243083   5.150   3.996   5.997
14400TIP3   OH243084   4.024   4.072   6.567
14400TIP3    H143085   4.108   4.055   6.610
14400TIP3    H243086   4.028   4.022   6.486
14401TIP3   OH243087   4.443   4.273   6.385
14401TIP3    H143088   4.538   4.258   6.390
14401TIP3    H243089   4.408   4.191   6.350
14402TIP3   OH243090   5.718   4.266   6.621
14402TIP3    H143091   5.630   4.303   6.617
14402TIP3    H243092   5.754   4.300   6.703
14403TIP3   OH243093   4.382   3.863   6.888
14403TIP3    H143094   4.334   3.899   6.814
14403TIP3    H243095   4.326   3.878   6.964
14404TIP3   OH243096   4.683   4.696   5.888
14404TIP3    H143097   4.691   4.691   5.793
14404TIP3    H243098   4.647   4.784   5.904
14405TIP3   OH243099   4.479   4.632   6.665
14405TIP3    H143100   4.426   4.706   6.694
14405TIP3    H243101   4.531   4.667   6.592
14406TIP3   OH243102   5.254   3.981   6.296
14406TIP3    H143103   5.211   3.961   6.380
14406TIP3    H243104   5.310   4.057   6.316
14407TIP3   OH243105   4.272   3.967   6.657
14407TIP3    H143106   4.326   4.043   6.677
14407TIP3    H243107   4.317   3.923   6.584
14408TIP3   OH243108   4.322   4.841   6.759
14408TIP3    H143109   4.312   4.931   6.728
14408TIP3    H243110   4.243   4.825   6.811
14409TIP3   OH243111   3.692   4.536   6.019
14409TIP3    H143112   3.664   4.540   5.928
14409TIP3    H243113   3.714   4.626   6.042
14410TIP3   OH243114   5.127   5.046   6.251
14410TIP3    H143115   5.039   5.038   6.286
14410TIP3    H243116   5.127   5.129   6.204
14411TIP3   OH243117   5.476   3.911   6.621
14411TIP3    H143118   5.391   3.936   6.585
14411TIP3    H243119   5.540   3.941   6.556
14412TIP3   OH243120   4.726   3.557   6.620
14412TIP3    H143121   4.720   3.465   6.645
14412TIP3    H243122   4.648   3.597   6.658
14413TIP3   OH243123   4.840   5.069   5.909
14413TIP3    H143124   4.891   4.989   5.897
14413TIP3    H243125   4.898   5.138   5.876
14414TIP3   OH243126   4.989   4.850   5.857
14414TIP3    H143127   5.014   4.784   5.793
14414TIP3    H243128   5.033   4.823   5.938
14415TIP3   OH243129   5.367   4.938   6.593
14415TIP3    H143130   5.353   4.865   6.532
14415TIP3    H243131   5.352   5.016   6.540
14416TIP3   OH243132   4.661   4.333   5.853
14416TIP3    H143133   4.586   4.388   5.833
14416TIP3    H243134   4.712   4.332   5.772
14417TIP3   OH243135   4.637   4.138   5.546
14417TIP3    H143136   4.702   4.188   5.596
14417TIP3    H243137   4.689   4.075   5.496
14418TIP3   OH243138   5.550   4.593   6.462
14418TIP3    H143139   5.467   4.642   6.463
14418TIP3    H243140   5.586   4.608   6.375
14419TIP3   OH243141   5.016   4.433   5.818
14419TIP3    H143142   4.961   4.457   5.892
14419TIP3    H243143   5.100   4.407   5.856
14420TIP3   OH243144   5.246   4.450   6.773
14420TIP3    H143145   5.249   4.536   6.815
14420TIP3    H243146   5.163   4.451   6.724
14421TIP3   OH243147   4.249   4.407   6.227
14421TIP3    H143148   4.216   4.347   6.160
14421TIP3    H243149   4.322   4.360   6.267
14422TIP3   OH243150   4.376   4.822   6.375
14422TIP3    H143151   4.357   4.811   6.282
14422TIP3    H243152   4.464   4.787   6.386
14423TIP3   OH243153   4.339   4.404   6.605
14423TIP3    H143154   4.379   4.369   6.526
14423TIP3    H243155   4.389   4.483   6.624
14424TIP3   OH243156   4.883   5.033   6.374
14424TIP3    H143157   4.874   5.116   6.421
14424TIP3    H243158   4.872   4.966   6.440
14425TIP3   OH243159   4.521   4.940   6.929
14425TIP3    H143160   4.459   4.996   6.976
14425TIP3    H243161   4.466   4.889   6.868
14426TIP3   OH243162   4.854   4.291   5.645
14426TIP3    H143163   4.913   4.346   5.696
14426TIP3    H243164   4.873   4.313   5.554
14427TIP3   OH243165   4.259   4.487   7.094
14427TIP3    H143166   4.260   4.583   7.099
14427TIP3    H243167   4.170   4.466   7.067
14428TIP3   OH243168   4.588   4.966   5.873
14428TIP3    H143169   4.676   4.996   5.897
14428TIP3    H243170   4.535   5.045   5.867
14429TIP3   OH243171   4.305   5.088   7.015
14429TIP3    H143172   4.280   5.104   6.924
14429TIP3    H243173   4.221   5.079   7.062
14430TIP3   OH243174   5.362   3.515   5.718
14430TIP3    H143175   5.286   3.538   5.772
14430TIP3    H243176   5.373   3.590   5.660
14431TIP3   OH243177   4.131   4.250   6.021
14431TIP3    H143178   4.052   4.298   5.996
14431TIP3    H243179   4.103   4.159   6.029
14432TIP3   OH243180   3.904   4.657   6.967
14432TIP3    H143181   3.835   4.642   6.902
14432TIP3    H243182   3.935   4.569   6.989
14433TIP3   OH243183   3.789   4.829   6.607
14433TIP3    H143184   3.881   4.822   6.580
14433TIP3    H243185   3.786   4.909   6.659
14434TIP3   OH243186   5.615   5.297   6.668
14434TIP3    H143187   5.615   5.207   6.701
14434TIP3    H243188   5.531   5.332   6.697
14435TIP3   OH243189   4.714   5.087   6.798
14435TIP3    H143190   4.705   5.178   6.827
14435TIP3    H243191   4.646   5.040   6.846
14436TIP3   OH243192   4.471   5.192   5.753
14436TIP3    H143193   4.424   5.176   5.671
14436TIP3    H243194   4.441   5.279   5.781
14437TIP3   OH243195   3.923   5.035   6.121
14437TIP3    H143196   3.968   5.027   6.205
14437TIP3    H243197   3.876   4.952   6.112
14438TIP3   OH243198   4.704   5.185   5.377
14438TIP3    H143199   4.733   5.108   5.329
14438TIP3    H243200   4.721   5.165   5.469
14439TIP3   OH243201   4.724   5.164   5.647
14439TIP3    H143202   4.644   5.159   5.698
14439TIP3    H243203   4.794   5.139   5.707
14440TIP3   OH243204   5.494   4.404   6.934
14440TIP3    H143205   5.411   4.420   6.889
14440TIP3    H243206   5.511   4.311   6.920
14441TIP3   OH243207   4.101   4.846   6.926
14441TIP3    H143208   4.150   4.841   7.008
14441TIP3    H243209   4.029   4.784   6.936
14442TIP3   OH243210   4.485   3.644   6.746
14442TIP3    H143211   4.401   3.612   6.712
14442TIP3    H243212   4.464   3.726   6.790
14443TIP3   OH243213   5.029   3.768   6.948
14443TIP3    H143214   5.099   3.745   7.008
14443TIP3    H243215   4.948   3.752   6.998
14444TIP3   OH243216   5.248   4.183   6.855
14444TIP3    H143217   5.212   4.180   6.944
14444TIP3    H243218   5.237   4.275   6.829
14445TIP3   OH243219   4.899   4.347   5.376
14445TIP3    H143220   4.896   4.304   5.290
14445TIP3    H243221   4.964   4.417   5.366
14446TIP3   OH243222   4.634   3.687   5.714
14446TIP3    H143223   4.598   3.694   5.802
14446TIP3    H243224   4.600   3.603   5.681
14447TIP3   OH243225   4.426   4.179   6.743
14447TIP3    H143226   4.384   4.187   6.829
14447TIP3    H243227   4.403   4.260   6.698
14448TIP3   OH243228   4.305   4.057   6.277
14448TIP3    H143229   4.216   4.033   6.301
14448TIP3    H243230   4.315   4.025   6.187
14449TIP3   OH243231   4.781   4.129   5.995
14449TIP3    H143232   4.734   4.201   5.954
14449TIP3    H243233   4.842   4.099   5.928
14450TIP3   OH243234   4.979   4.395   7.069
14450TIP3    H143235   4.957   4.328   7.133
14450TIP3    H243236   5.070   4.418   7.089
14451TIP3   OH243237   4.946   4.142   6.223
14451TIP3    H143238   4.880   4.164   6.158
14451TIP3    H243239   4.996   4.071   6.183
14452TIP3   OH243240   4.258   4.182   6.967
14452TIP3    H143241   4.321   4.232   7.020
14452TIP3    H243242   4.242   4.103   7.019
14453TIP3   OH243243   4.302   3.663   5.689
14453TIP3    H143244   4.294   3.671   5.784
14453TIP3    H243245   4.224   3.707   5.654
14454TIP3   OH243246   3.854   3.712   6.562
14454TIP3    H143247   3.923   3.750   6.616
14454TIP3    H243248   3.892   3.709   6.474
14455TIP3   OH243249   3.749   3.690   6.055
14455TIP3    H143250   3.794   3.726   5.978
14455TIP3    H243251   3.689   3.759   6.081
14456TIP3   OH243252   4.992   4.398   6.650
14456TIP3    H143253   5.016   4.331   6.585
14456TIP3    H243254   4.950   4.349   6.720
14457TIP3   OH243255   4.669   3.843   6.323
14457TIP3    H143256   4.593   3.843   6.381
14457TIP3    H243257   4.744   3.836   6.383
14458TIP3   OH243258   4.066   3.931   6.337
14458TIP3    H143259   3.979   3.935   6.298
14458TIP3    H243260   4.097   3.842   6.317
14459TIP3   OH243261   4.317   3.935   6.030
14459TIP3    H143262   4.411   3.944   6.021
14459TIP3    H243263   4.282   3.951   5.942
14460TIP3   OH243264   5.112   3.934   6.533
14460TIP3    H143265   5.093   3.952   6.626
14460TIP3    H243266   5.044   3.873   6.506
14461TIP3   OH243267   4.206   3.953   5.780
14461TIP3    H143268   4.145   3.906   5.724
14461TIP3    H243269   4.262   4.001   5.719
14462TIP3   OH243270   5.307   5.668   6.773
14462TIP3    H143271   5.313   5.658   6.677
14462TIP3    H243272   5.391   5.707   6.798
14463TIP3   OH243273   4.246   4.756   7.166
14463TIP3    H143274   4.331   4.779   7.206
14463TIP3    H243275   4.183   4.771   7.236
14464TIP3   OH243276   4.716   4.215   6.431
14464TIP3    H143277   4.784   4.173   6.380
14464TIP3    H243278   4.719   4.170   6.516
14465TIP3   OH243279   4.205   3.684   6.316
14465TIP3    H143280   4.178   3.608   6.367
14465TIP3    H243281   4.227   3.648   6.230
14466TIP3   OH243282   4.692   4.113   6.697
14466TIP3    H143283   4.605   4.147   6.717
14466TIP3    H243284   4.752   4.166   6.750
14467TIP3   OH243285   4.439   4.493   5.788
14467TIP3    H143286   4.365   4.435   5.770
14467TIP3    H243287   4.419   4.531   5.873
14468TIP3   OH243288   5.316   4.732   6.413
14468TIP3    H143289   5.354   4.781   6.341
14468TIP3    H243290   5.237   4.693   6.377
14469TIP3   OH243291   4.888   3.791   5.722
14469TIP3    H143292   4.795   3.771   5.716
14469TIP3    H243293   4.892   3.886   5.729
14470TIP3   OH243294   4.830   4.813   6.841
14470TIP3    H143295   4.895   4.802   6.911
14470TIP3    H243296   4.804   4.905   6.847
14471TIP3   OH243297   4.949   4.059   5.780
14471TIP3    H143298   5.044   4.061   5.790
14471TIP3    H243299   4.929   4.134   5.724
14472TIP3   OH243300   4.108   4.482   6.454
14472TIP3    H143301   4.148   4.466   6.368
14472TIP3    H243302   4.177   4.457   6.517
14473TIP3   OH243303   4.579   4.641   5.597
14473TIP3    H143304   4.536   4.726   5.606
14473TIP3    H243305   4.535   4.584   5.661
14474TIP3   OH243306   3.982   4.417   7.100
14474TIP3    H143307   3.979   4.374   7.185
14474TIP3    H243308   3.910   4.376   7.051
14475TIP3   OH243309   4.757   4.562   7.102
14475TIP3    H143310   4.707   4.547   7.021
14475TIP3    H243311   4.841   4.518   7.087
14476TIP3   OH243312   4.983   5.103   6.716
14476TIP3    H143313   4.889   5.099   6.737
14476TIP3    H243314   5.024   5.133   6.797
14477TIP3   OH243315   5.360   4.169   5.588
14477TIP3    H143316   5.301   4.120   5.531
14477TIP3    H243317   5.361   4.257   5.550
14478TIP3   OH243318   5.614   5.002   6.700
14478TIP3    H143319   5.519   5.002   6.692
14478TIP3    H243320   5.646   4.982   6.612
14479TIP3   OH243321   5.130   4.907   5.468
14479TIP3    H143322   5.087   4.845   5.527
14479TIP3    H243323   5.148   4.857   5.389
14480TIP3   OH243324   5.088   4.597   6.306
14480TIP3    H143325   4.998   4.579   6.333
14480TIP3    H243326   5.120   4.514   6.270
14481TIP3   OH243327   4.245   4.827   6.122
14481TIP3    H143328   4.241   4.904   6.066
14481TIP3    H243329   4.154   4.805   6.139
14482TIP3   OH243330   3.806   4.117   5.849
14482TIP3    H143331   3.848   4.201   5.870
14482TIP3    H243332   3.723   4.119   5.896
14483TIP3   OH243333   4.338   4.584   6.025
14483TIP3    H143334   4.320   4.673   6.055
14483TIP3    H243335   4.310   4.528   6.098
14484TIP3   OH243336   4.527   5.152   6.586
14484TIP3    H143337   4.559   5.227   6.537
14484TIP3    H243338   4.603   5.122   6.637
14485TIP3   OH243339   4.156   5.049   5.971
14485TIP3    H143340   4.069   5.055   6.011
14485TIP3    H243341   4.192   5.138   5.980
14486TIP3   OH243342   4.871   4.821   6.565
14486TIP3    H143343   4.851   4.816   6.658
14486TIP3    H243344   4.964   4.796   6.559
14487TIP3   OH243345   4.819   4.740   5.472
14487TIP3    H143346   4.894   4.709   5.523
14487TIP3    H243347   4.744   4.696   5.512
14488TIP3   OH243348   5.116   5.321   6.596
14488TIP3    H143349   5.052   5.252   6.616
14488TIP3    H243350   5.078   5.366   6.520
14489TIP3   OH243351   5.154   5.251   5.279
14489TIP3    H143352   5.219   5.316   5.255
14489TIP3    H243353   5.114   5.225   5.196
14490TIP3   OH243354   4.211   3.933   7.097
14490TIP3    H143355   4.116   3.942   7.103
14490TIP3    H243356   4.235   3.880   7.173
14491TIP3   OH243357   5.043   4.655   5.649
14491TIP3    H143358   5.024   4.580   5.705
14491TIP3    H243359   5.135   4.645   5.625
14492TIP3   OH243360   3.939   5.058   6.746
14492TIP3    H143361   3.998   5.003   6.798
14492TIP3    H243362   3.953   5.147   6.779
14493TIP3   OH243363   4.142   4.687   5.743
14493TIP3    H143364   4.225   4.656   5.780
14493TIP3    H243365   4.156   4.781   5.728
14494TIP3   OH243366   3.898   4.367   5.928
14494TIP3    H143367   3.833   4.415   5.978
14494TIP3    H243368   3.914   4.422   5.850
14495TIP3   OH243369   5.053   3.997   6.795
14495TIP3    H143370   5.131   4.044   6.824
14495TIP3    H243371   5.048   3.922   6.853
14496TIP3   OH243372   4.951   3.742   5.988
14496TIP3    H143373   4.929   3.760   5.897
14496TIP3    H243374   4.995   3.821   6.018
14497TIP3   OH243375   4.456   4.880   5.647
14497TIP3    H143376   4.365   4.898   5.669
14497TIP3    H243377   4.505   4.905   5.726
14498TIP3   OH243378   4.596   3.940   6.073
14498TIP3    H143379   4.658   4.007   6.044
14498TIP3    H243380   4.622   3.920   6.162
14499TIP3   OH243381   4.892   4.234   6.850
14499TIP3    H143382   4.922   4.281   6.928
14499TIP3    H243383   4.945   4.154   6.848
14500TIP3   OH243384   4.762   3.633   6.159
14500TIP3    H143385   4.738   3.710   6.210
14500TIP3    H243386   4.833   3.664   6.102
14501TIP3   OH243387   4.202   4.956   5.715
14501TIP3    H143388   4.175   5.025   5.654
14501TIP3    H243389   4.183   4.992   5.802
14502TIP3   OH243390   4.272   3.661   5.969
14502TIP3    H143391   4.261   3.752   5.997
14502TIP3    H243392   4.366   3.645   5.976
14503TIP3   OH243393   5.516   4.137   6.833
14503TIP3    H143394   5.421   4.139   6.845
14503TIP3    H243395   5.529   4.096   6.748
14504TIP3   OH243396   5.175   4.335   6.223
14504TIP3    H143397   5.099   4.279   6.238
14504TIP3    H243398   5.243   4.297   6.279
14505TIP3   OH243399   3.921   4.530   5.704
14505TIP3    H143400   3.985   4.598   5.724
14505TIP3    H243401   3.962   4.478   5.635
14506TIP3   OH243402   3.825   3.840   5.838
14506TIP3    H143403   3.836   3.934   5.852
14506TIP3    H243404   3.802   3.832   5.745
14507TIP3   OH243405   5.151   5.309   6.154
14507TIP3    H143406   5.112   5.358   6.082
14507TIP3    H243407   5.245   5.321   6.144
14508TIP3   OH243408   4.221   3.560   6.704
14508TIP3    H143409   4.193   3.530   6.618
14508TIP3    H243410   4.212   3.484   6.761
14509TIP3   OH243411   3.744   4.814   6.099
14509TIP3    H143412   3.707   4.848   6.181
14509TIP3    H243413   3.698   4.863   6.030
14510TIP3   OH243414   3.954   5.362   7.168
14510TIP3    H143415   4.033   5.372   7.221
14510TIP3    H243416   3.944   5.268   7.156
14511TIP3   OH243417   4.413   5.254   7.208
14511TIP3    H143418   4.504   5.228   7.217
14511TIP3    H243419   4.379   5.200   7.136
14512TIP3   OH243420   5.098   5.169   6.953
14512TIP3    H143421   5.067   5.113   7.025
14512TIP3    H243422   5.192   5.175   6.967
14513TIP3   OH243423   4.780   4.947   5.270
14513TIP3    H143424   4.808   4.877   5.331
14513TIP3    H243425   4.762   4.901   5.188
14514TIP3   OH243426   4.055   4.727   7.371
14514TIP3    H143427   4.079   4.635   7.370
14514TIP3    H243428   3.968   4.730   7.332
14515TIP3   OH243429   4.073   4.371   5.537
14515TIP3    H143430   4.132   4.355   5.611
14515TIP3    H243431   4.130   4.373   5.460
14516TIP3   OH243432   4.670   4.835   7.137
14516TIP3    H143433   4.634   4.861   7.053
14516TIP3    H243434   4.720   4.755   7.118
14517TIP3   OH243435   4.454   4.547   5.347
14517TIP3    H143436   4.490   4.596   5.420
14517TIP3    H243437   4.505   4.466   5.344
14518TIP3   OH243438   5.137   4.868   6.729
14518TIP3    H143439   5.220   4.898   6.691
14518TIP3    H243440   5.081   4.945   6.727
14519TIP3   OH243441   4.226   4.490   7.376
14519TIP3    H143442   4.222   4.466   7.283
14519TIP3    H243443   4.315   4.523   7.389
14520TIP3   OH243444   4.236   4.307   5.757
14520TIP3    H143445   4.209   4.282   5.845
14520TIP3    H243446   4.280   4.229   5.722
14521TIP3   OH243447   4.486   4.346   7.007
14521TIP3    H143448   4.422   4.409   7.039
14521TIP3    H243449   4.544   4.396   6.951
14522TIP3   OH243450   4.366   4.105   5.614
14522TIP3    H143451   4.334   4.098   5.524
14522TIP3    H243452   4.461   4.113   5.606
14523TIP3   OH243453   5.019   4.755   7.105
14523TIP3    H143454   5.108   4.751   7.070
14523TIP3    H243455   5.021   4.701   7.184
14524TIP3   OH243456   4.631   4.147   7.133
14524TIP3    H143457   4.641   4.074   7.071
14524TIP3    H243458   4.590   4.216   7.081
14525TIP3   OH243459   4.642   3.947   6.929
14525TIP3    H143460   4.672   3.984   6.846
14525TIP3    H243461   4.551   3.921   6.912
14526TIP3   OH243462   4.647   4.507   6.848
14526TIP3    H143463   4.734   4.520   6.810
14526TIP3    H243464   4.588   4.554   6.789
14527TIP3   OH243465   5.243   4.452   7.168
14527TIP3    H143466   5.307   4.380   7.167
14527TIP3    H243467   5.297   4.531   7.161
14528TIP3   OH243468   5.277   4.699   6.894
14528TIP3    H143469   5.220   4.758   6.844
14528TIP3    H243470   5.366   4.725   6.869
14529TIP3   OH243471   4.514   4.228   7.375
14529TIP3    H143472   4.448   4.161   7.390
14529TIP3    H243473   4.547   4.210   7.287
14530TIP3   OH243474   4.762   3.717   7.030
14530TIP3    H143475   4.724   3.797   6.996
14530TIP3    H243476   4.696   3.649   7.014
14531TIP3   OH243477   4.895   4.186   7.229
14531TIP3    H143478   4.889   4.176   7.324
14531TIP3    H243479   4.807   4.169   7.197
14532TIP3   OH243480   5.141   4.138   7.099
14532TIP3    H143481   5.064   4.141   7.155
14532TIP3    H243482   5.214   4.124   7.160
14533TIP3   OH243483   5.374   4.108   7.253
14533TIP3    H143484   5.387   4.013   7.261
14533TIP3    H243485   5.368   4.138   7.344
14534TIP3   OH243486   4.347   4.010   7.440
14534TIP3    H143487   4.354   3.924   7.399
14534TIP3    H243488   4.389   3.999   7.525
14535TIP3   OH243489   4.826   3.691   7.294
14535TIP3    H143490   4.897   3.627   7.288
14535TIP3    H243491   4.798   3.704   7.204
14536TIP3   OH243492   4.923   3.904   7.442
14536TIP3    H143493   4.893   3.834   7.384
14536TIP3    H243494   4.852   3.968   7.440
14537TIP3   OH243495   4.182   5.155   5.520
14537TIP3    H143496   4.272   5.134   5.497
14537TIP3    H243497   4.146   5.200   5.444
14538TIP3   OH243498   3.648   4.496   5.743
14538TIP3    H143499   3.737   4.520   5.720
14538TIP3    H243500   3.623   4.430   5.679
14539TIP3   OH243501   3.537   5.111   6.185
14539TIP3    H143502   3.483   5.054   6.131
14539TIP3    H243503   3.586   5.051   6.242
14540TIP3   OH243504   3.691   4.951   6.352
14540TIP3    H143505   3.685   4.884   6.421
14540TIP3    H243506   3.741   5.022   6.392
14541TIP3   OH243507   5.424   5.357   6.150
14541TIP3    H143508   5.441   5.379   6.241
14541TIP3    H243509   5.480   5.415   6.100
14542TIP3   OH243510   5.450   5.387   6.423
14542TIP3    H143511   5.400   5.306   6.430
14542TIP3    H243512   5.512   5.383   6.496
14543TIP3   OH243513   5.314   4.600   5.617
14543TIP3    H143514   5.372   4.670   5.586
14543TIP3    H243515   5.365   4.556   5.685
14544TIP3   OH243516   5.455   4.462   5.817
14544TIP3    H143517   5.386   4.431   5.875
14544TIP3    H243518   5.519   4.504   5.875
14545TIP3   OH243519   5.500   4.869   6.255
14545TIP3    H143520   5.553   4.801   6.212
14545TIP3    H243521   5.504   4.943   6.195
14546TIP3   OH243522   5.294   5.159   6.446
14546TIP3    H143523   5.230   5.205   6.500
14546TIP3    H243524   5.242   5.118   6.377
14547TIP3   OH243525   5.324   4.418   5.407
14547TIP3    H143526   5.288   4.456   5.327
14547TIP3    H243527   5.310   4.485   5.474
14548TIP3   OH243528   5.200   4.032   5.416
14548TIP3    H143529   5.158   4.071   5.339
14548TIP3    H243530   5.195   3.937   5.400
14549TIP3   OH243531   5.242   4.334   5.953
14549TIP3    H143532   5.249   4.240   5.938
14549TIP3    H243533   5.223   4.342   6.047
14550TIP3   OH243534   3.866   4.387   6.732
14550TIP3    H143535   3.859   4.358   6.641
14550TIP3    H243536   3.960   4.385   6.750
14551TIP3   OH243537   5.539   4.763   6.834
14551TIP3    H143538   5.605   4.695   6.820
14551TIP3    H243539   5.568   4.836   6.780
14552TIP3   OH243540   5.703   4.537   6.814
14552TIP3    H143541   5.629   4.495   6.859
14552TIP3    H243542   5.778   4.483   6.836
14553TIP3   OH243543   5.174   3.758   5.375
14553TIP3    H143544   5.239   3.735   5.442
14553TIP3    H243545   5.092   3.722   5.409
14554TIP3   OH243546   5.239   4.056   5.837
14554TIP3    H143547   5.287   3.974   5.848
14554TIP3    H243548   5.281   4.098   5.761
14555TIP3   OH243549   5.390   4.215   6.367
14555TIP3    H143550   5.471   4.233   6.319
14555TIP3    H243551   5.402   4.259   6.452
14556TIP3   OH243552   5.457   4.368   6.594
14556TIP3    H143553   5.386   4.398   6.651
14556TIP3    H243554   5.489   4.448   6.552
14557TIP3   OH243555   4.082   4.063   7.372
14557TIP3    H143556   4.175   4.064   7.393
14557TIP3    H243557   4.050   3.981   7.410
14558TIP3   OH243558   5.940   3.944   7.124
14558TIP3    H143559   6.001   3.891   7.072
14558TIP3    H243560   5.899   4.002   7.059
14559TIP3   OH243561   5.357   3.806   5.892
14559TIP3    H143562   5.405   3.791   5.974
14559TIP3    H243563   5.295   3.734   5.886
14560TIP3   OH243564   4.061   3.787   6.734
14560TIP3    H143565   4.115   3.707   6.733
14560TIP3    H243566   4.122   3.857   6.711
14561TIP3   OH243567   3.839   4.051   6.781
14561TIP3    H143568   3.891   4.039   6.702
14561TIP3    H243569   3.865   4.138   6.813
14562TIP3   OH243570   5.780   4.089   6.956
14562TIP3    H143571   5.716   4.133   7.012
14562TIP3    H243572   5.727   4.039   6.894
14563TIP3   OH243573   5.401   3.713   5.531
14563TIP3    H143574   5.454   3.654   5.478
14563TIP3    H243575   5.450   3.795   5.532
14564TIP3   OH243576   3.827   3.553   6.279
14564TIP3    H143577   3.743   3.544   6.323
14564TIP3    H243578   3.809   3.609   6.203
14565TIP3   OH243579   4.974   5.267   5.775
14565TIP3    H143580   5.035   5.247   5.704
14565TIP3    H243581   5.018   5.334   5.827
14566TIP3   OH243582   4.058   3.602   7.106
14566TIP3    H143583   4.007   3.599   7.187
14566TIP3    H243584   4.005   3.654   7.046
14567TIP3   OH243585   4.077   5.066   7.177
14567TIP3    H143586   3.983   5.049   7.170
14567TIP3    H243587   4.095   5.064   7.271
14568TIP3   OH243588   4.296   5.117   6.731
14568TIP3    H143589   4.246   5.193   6.700
14568TIP3    H243590   4.382   5.126   6.690
14569TIP3   OH243591   4.703   5.354   6.876
14569TIP3    H143592   4.745   5.337   6.960
14569TIP3    H243593   4.767   5.405   6.827
14570TIP3   OH243594   4.900   5.499   6.747
14570TIP3    H143595   4.969   5.446   6.706
14570TIP3    H243596   4.947   5.557   6.806
14571TIP3   OH243597   5.685   3.837   6.827
14571TIP3    H143598   5.603   3.838   6.778
14571TIP3    H243599   5.717   3.747   6.817
14572TIP3   OH243600   3.951   5.348   6.783
14572TIP3    H143601   3.860   5.368   6.765
14572TIP3    H243602   3.978   5.415   6.846
14573TIP3   OH243603   4.184   5.348   6.630
14573TIP3    H143604   4.100   5.352   6.677
14573TIP3    H243605   4.162   5.374   6.541
14574TIP3   OH243606   4.591   5.369   6.427
14574TIP3    H143607   4.521   5.386   6.364
14574TIP3    H243608   4.607   5.453   6.469
14575TIP3   OH243609   4.854   5.293   6.453
14575TIP3    H143610   4.763   5.320   6.441
14575TIP3    H243611   4.906   5.363   6.414
14576TIP3   OH243612   5.053   5.464   6.360
14576TIP3    H143613   5.062   5.553   6.326
14576TIP3    H243614   5.088   5.408   6.291
14577TIP3   OH243615   3.860   5.135   6.491
14577TIP3    H143616   3.886   5.116   6.581
14577TIP3    H243617   3.933   5.104   6.438
14578TIP3   OH243618   4.067   5.020   6.357
14578TIP3    H143619   4.079   4.934   6.398
14578TIP3    H243620   4.154   5.061   6.362
14579TIP3   OH243621   4.336   5.103   6.384
14579TIP3    H143622   4.355   5.010   6.371
14579TIP3    H243623   4.394   5.128   6.457
14580TIP3   OH243624   4.896   3.754   6.465
14580TIP3    H143625   4.856   3.683   6.516
14580TIP3    H243626   4.964   3.710   6.414
14581TIP3   OH243627   5.401   3.667   6.349
14581TIP3    H143628   5.440   3.715   6.276
14581TIP3    H243629   5.311   3.699   6.354
14582TIP3   OH243630   5.515   3.747   6.113
14582TIP3    H143631   5.583   3.684   6.087
14582TIP3    H243632   5.556   3.833   6.102
14583TIP3   OH243633   4.134   3.457   6.462
14583TIP3    H143634   4.045   3.423   6.472
14583TIP3    H243635   4.189   3.379   6.452
14584TIP3   OH243636   3.965   3.364   6.117
14584TIP3    H143637   3.987   3.413   6.038
14584TIP3    H243638   3.924   3.429   6.174
14585TIP3   OH243639   4.620   3.494   6.361
14585TIP3    H143640   4.667   3.539   6.290
14585TIP3    H243641   4.662   3.524   6.441
14586TIP3   OH243642   5.107   3.629   6.338
14586TIP3    H143643   5.132   3.596   6.252
14586TIP3    H243644   5.118   3.554   6.396
14587TIP3   OH243645   5.172   3.594   5.902
14587TIP3    H143646   5.093   3.641   5.928
14587TIP3    H243647   5.161   3.506   5.940
14588TIP3   OH243648   3.607   4.955   5.905
14588TIP3    H143649   3.524   4.911   5.887
14588TIP3    H243650   3.606   5.033   5.850
14589TIP3   OH243651   4.061   3.495   5.875
14589TIP3    H143652   4.107   3.435   5.815
14589TIP3    H243653   4.130   3.551   5.910
14590TIP3   OH243654   4.548   3.687   5.978
14590TIP3    H143655   4.609   3.636   6.030
14590TIP3    H243656   4.563   3.778   6.005
14591TIP3   OH243657   4.444   5.096   5.472
14591TIP3    H143658   4.526   5.121   5.429
14591TIP3    H243659   4.463   5.013   5.514
14592TIP3   OH243660   5.138   5.184   5.551
14592TIP3    H143661   5.134   5.088   5.546
14592TIP3    H243662   5.140   5.212   5.460
14593TIP3   OH243663   4.363   3.741   7.341
14593TIP3    H143664   4.331   3.675   7.403
14593TIP3    H243665   4.456   3.750   7.362
14594TIP3   OH243666   4.610   3.745   7.466
14594TIP3    H143667   4.688   3.725   7.414
14594TIP3    H243668   4.608   3.676   7.532
14595TIP3   OH243669   5.437   3.836   7.256
14595TIP3    H143670   5.455   3.806   7.345
14595TIP3    H243671   5.521   3.831   7.211
14596TIP3   OH243672   5.364   5.394   6.706
14596TIP3    H143673   5.278   5.358   6.684
14596TIP3    H243674   5.347   5.454   6.779
14597TIP3   OH243675   6.620   4.760   5.494
14597TIP3    H143676   6.587   4.847   5.469
14597TIP3    H243677   6.549   4.700   5.472
14598TIP3   OH243678   6.628   4.747   5.927
14598TIP3    H143679   6.683   4.730   6.004
14598TIP3    H243680   6.584   4.664   5.910
14599TIP3   OH243681   5.926   4.608   6.265
14599TIP3    H143682   5.965   4.560   6.337
14599TIP3    H243683   6.000   4.636   6.211
14600TIP3   OH243684   6.902   5.052   5.593
14600TIP3    H143685   6.885   4.988   5.663
14600TIP3    H243686   6.920   5.134   5.640
14601TIP3   OH243687   5.919   5.029   5.945
14601TIP3    H143688   5.900   4.936   5.955
14601TIP3    H243689   6.014   5.034   5.942
14602TIP3   OH243690   5.599   4.233   5.739
14602TIP3    H143691   5.565   4.318   5.766
14602TIP3    H243692   5.529   4.196   5.685
14603TIP3   OH243693   5.682   4.552   5.961
14603TIP3    H143694   5.733   4.475   5.986
14603TIP3    H243695   5.748   4.617   5.937
14604TIP3   OH243696   6.553   5.485   5.614
14604TIP3    H143697   6.583   5.416   5.555
14604TIP3    H243698   6.551   5.443   5.700
14605TIP3   OH243699   6.439   4.967   5.929
14605TIP3    H143700   6.485   4.887   5.904
14605TIP3    H243701   6.507   5.025   5.962
14606TIP3   OH243702   7.467   4.282   5.942
14606TIP3    H143703   7.481   4.360   5.996
14606TIP3    H243704   7.506   4.304   5.858
14607TIP3   OH243705   6.840   4.455   5.964
14607TIP3    H143706   6.875   4.370   5.988
14607TIP3    H243707   6.808   4.445   5.875
14608TIP3   OH243708   6.198   4.111   5.923
14608TIP3    H143709   6.177   4.184   5.865
14608TIP3    H243710   6.143   4.039   5.892
14609TIP3   OH243711   6.887   4.210   5.565
14609TIP3    H143712   6.949   4.203   5.638
14609TIP3    H243713   6.940   4.239   5.491
14610TIP3   OH243714   5.819   4.328   6.055
14610TIP3    H143715   5.903   4.312   6.098
14610TIP3    H243716   5.823   4.277   5.974
14611TIP3   OH243717   6.241   4.528   5.867
14611TIP3    H143718   6.335   4.513   5.874
14611TIP3    H243719   6.205   4.446   5.834
14612TIP3   OH243720   7.516   4.485   6.125
14612TIP3    H143721   7.432   4.531   6.119
14612TIP3    H243722   7.523   4.458   6.217
14613TIP3   OH243723   6.176   4.135   6.381
14613TIP3    H143724   6.130   4.170   6.304
14613TIP3    H243725   6.116   4.150   6.454
14614TIP3   OH243726   6.529   4.981   5.352
14614TIP3    H143727   6.490   4.950   5.270
14614TIP3    H243728   6.474   5.054   5.378
14615TIP3   OH243729   6.269   4.895   6.137
14615TIP3    H143730   6.216   4.967   6.171
14615TIP3    H243731   6.319   4.934   6.065
14616TIP3   OH243732   7.064   4.237   5.771
14616TIP3    H143733   7.019   4.213   5.852
14616TIP3    H243734   7.112   4.317   5.792
14617TIP3   OH243735   6.070   4.227   6.143
14617TIP3    H143736   6.124   4.304   6.162
14617TIP3    H243737   6.116   4.183   6.071
14618TIP3   OH243738   6.114   5.098   6.244
14618TIP3    H143739   6.102   5.189   6.215
14618TIP3    H243740   6.037   5.079   6.297
14619TIP3   OH243741   5.485   4.794   5.511
14619TIP3    H143742   5.434   4.818   5.435
14619TIP3    H243743   5.517   4.877   5.547
14620TIP3   OH243744   6.932   5.299   5.732
14620TIP3    H143745   6.847   5.291   5.775
14620TIP3    H243746   6.929   5.385   5.688
14621TIP3   OH243747   7.258   4.175   6.106
14621TIP3    H143748   7.174   4.193   6.064
14621TIP3    H243749   7.324   4.202   6.042
14622TIP3   OH243750   6.514   3.842   6.120
14622TIP3    H143751   6.519   3.756   6.162
14622TIP3    H243752   6.426   3.874   6.140
14623TIP3   OH243753   6.645   5.329   5.402
14623TIP3    H143754   6.698   5.251   5.387
14623TIP3    H243755   6.699   5.402   5.370
14624TIP3   OH243756   6.785   5.098   5.345
14624TIP3    H143757   6.706   5.044   5.348
14624TIP3    H243758   6.832   5.076   5.425
14625TIP3   OH243759   7.169   5.188   6.082
14625TIP3    H143760   7.150   5.113   6.025
14625TIP3    H243761   7.152   5.265   6.026
14626TIP3   OH243762   6.454   4.589   5.348
14626TIP3    H143763   6.372   4.635   5.330
14626TIP3    H243764   6.500   4.589   5.263
14627TIP3   OH243765   6.427   4.396   5.041
14627TIP3    H143766   6.493   4.449   5.086
14627TIP3    H243767   6.477   4.331   4.993
14628TIP3   OH243768   7.350   4.849   5.935
14628TIP3    H143769   7.265   4.893   5.939
14628TIP3    H243770   7.381   4.866   5.846
14629TIP3   OH243771   6.808   4.699   5.308
14629TIP3    H143772   6.744   4.725   5.375
14629TIP3    H243773   6.888   4.680   5.357
14630TIP3   OH243774   7.049   4.712   6.258
14630TIP3    H143775   7.046   4.795   6.307
14630TIP3    H243776   6.967   4.711   6.208
14631TIP3   OH243777   6.042   4.661   5.711
14631TIP3    H143778   6.005   4.602   5.646
14631TIP3    H243779   6.114   4.612   5.750
14632TIP3   OH243780   6.184   5.082   5.858
14632TIP3    H143781   6.161   5.069   5.766
14632TIP3    H243782   6.272   5.044   5.866
14633TIP3   OH243783   6.138   4.659   6.089
14633TIP3    H143784   6.178   4.623   6.010
14633TIP3    H243785   6.186   4.741   6.105
14634TIP3   OH243786   6.700   5.291   5.871
14634TIP3    H143787   6.682   5.373   5.917
14634TIP3    H243788   6.681   5.223   5.935
14635TIP3   OH243789   6.316   5.189   6.414
14635TIP3    H143790   6.256   5.247   6.461
14635TIP3    H243791   6.259   5.139   6.355
14636TIP3   OH243792   6.641   4.552   5.138
14636TIP3    H143793   6.700   4.612   5.184
14636TIP3    H243794   6.668   4.557   5.046
14637TIP3   OH243795   6.068   4.731   6.562
14637TIP3    H143796   6.077   4.825   6.580
14637TIP3    H243797   5.973   4.717   6.556
14638TIP3   OH243798   6.393   5.218   5.392
14638TIP3    H143799   6.475   5.265   5.406
14638TIP3    H243800   6.336   5.282   5.349
14639TIP3   OH243801   6.110   5.350   6.500
14639TIP3    H143802   6.082   5.364   6.410
14639TIP3    H243803   6.029   5.333   6.548
14640TIP3   OH243804   7.163   3.787   5.210
14640TIP3    H143805   7.089   3.815   5.264
14640TIP3    H243806   7.174   3.858   5.146
14641TIP3   OH243807   5.915   4.509   5.506
14641TIP3    H143808   5.836   4.556   5.479
14641TIP3    H243809   5.886   4.418   5.517
14642TIP3   OH243810   5.697   4.911   6.455
14642TIP3    H143811   5.627   4.894   6.392
14642TIP3    H243812   5.731   4.825   6.477
14643TIP3   OH243813   5.545   5.104   6.104
14643TIP3    H143814   5.635   5.129   6.122
14643TIP3    H243815   5.493   5.180   6.131
14644TIP3   OH243816   7.399   5.560   6.149
14644TIP3    H143817   7.404   5.465   6.160
14644TIP3    H243818   7.319   5.586   6.196
14645TIP3   OH243819   6.503   5.338   6.278
14645TIP3    H143820   6.493   5.429   6.307
14645TIP3    H243821   6.435   5.290   6.326
14646TIP3   OH243822   6.287   5.437   5.231
14646TIP3    H143823   6.237   5.419   5.152
14646TIP3    H243824   6.252   5.519   5.265
14647TIP3   OH243825   5.717   5.291   5.609
14647TIP3    H143826   5.764   5.285   5.693
14647TIP3    H243827   5.672   5.207   5.601
14648TIP3   OH243828   6.461   5.378   4.849
14648TIP3    H143829   6.512   5.316   4.796
14648TIP3    H243830   6.511   5.387   4.930
14649TIP3   OH243831   6.539   5.422   5.119
14649TIP3    H143832   6.455   5.419   5.164
14649TIP3    H243833   6.604   5.398   5.185
14650TIP3   OH243834   7.313   4.640   6.422
14650TIP3    H143835   7.227   4.661   6.386
14650TIP3    H243836   7.325   4.547   6.401
14651TIP3   OH243837   5.896   5.098   6.413
14651TIP3    H143838   5.941   5.097   6.498
14651TIP3    H243839   5.823   5.037   6.424
14652TIP3   OH243840   6.276   3.913   6.251
14652TIP3    H143841   6.194   3.876   6.218
14652TIP3    H243842   6.249   3.995   6.293
14653TIP3   OH243843   6.841   4.019   6.419
14653TIP3    H143844   6.912   3.995   6.478
14653TIP3    H243845   6.762   3.992   6.464
14654TIP3   OH243846   7.034   4.448   6.341
14654TIP3    H143847   6.991   4.441   6.426
14654TIP3    H243848   7.027   4.540   6.318
14655TIP3   OH243849   6.722   4.529   4.877
14655TIP3    H143850   6.679   4.529   4.791
14655TIP3    H243851   6.802   4.580   4.863
14656TIP3   OH243852   6.432   3.937   5.203
14656TIP3    H143853   6.395   3.944   5.290
14656TIP3    H243854   6.394   3.857   5.167
14657TIP3   OH243855   6.219   4.440   6.240
14657TIP3    H143856   6.173   4.447   6.324
14657TIP3    H243857   6.197   4.521   6.193
14658TIP3   OH243858   6.100   4.311   5.763
14658TIP3    H143859   6.010   4.289   5.788
14658TIP3    H243860   6.109   4.279   5.674
14659TIP3   OH243861   6.588   4.387   5.478
14659TIP3    H143862   6.537   4.458   5.440
14659TIP3    H243863   6.646   4.358   5.408
14660TIP3   OH243864   6.768   4.658   6.561
14660TIP3    H143865   6.738   4.593   6.624
14660TIP3    H243866   6.861   4.670   6.582
14661TIP3   OH243867   6.749   4.409   5.709
14661TIP3    H143868   6.681   4.431   5.646
14661TIP3    H243869   6.791   4.331   5.672
14662TIP3   OH243870   6.059   4.456   6.463
14662TIP3    H143871   6.065   4.527   6.527
14662TIP3    H243872   6.035   4.379   6.514
14663TIP3   OH243873   6.099   3.923   5.177
14663TIP3    H143874   6.091   3.930   5.272
14663TIP3    H243875   6.021   3.967   5.143
14664TIP3   OH243876   5.652   3.969   6.048
14664TIP3    H143877   5.722   4.006   6.102
14664TIP3    H243878   5.686   3.970   5.959
14665TIP3   OH243879   5.538   3.957   5.534
14665TIP3    H143880   5.585   3.990   5.457
14665TIP3    H243881   5.477   4.027   5.556
14666TIP3   OH243882   6.795   4.658   6.139
14666TIP3    H143883   6.819   4.590   6.075
14666TIP3    H243884   6.751   4.610   6.209
14667TIP3   OH243885   6.466   4.104   5.808
14667TIP3    H143886   6.389   4.103   5.866
14667TIP3    H243887   6.540   4.094   5.868
14668TIP3   OH243888   5.859   4.187   5.823
14668TIP3    H143889   5.772   4.191   5.783
14668TIP3    H243890   5.889   4.098   5.805
14669TIP3   OH243891   6.117   4.191   5.517
14669TIP3    H143892   6.212   4.202   5.505
14669TIP3    H243893   6.080   4.208   5.431
14670TIP3   OH243894   6.920   4.190   6.005
14670TIP3    H143895   6.902   4.206   6.098
14670TIP3    H243896   6.852   4.129   5.977
14671TIP3   OH243897   6.002   4.210   5.270
14671TIP3    H143898   5.938   4.165   5.215
14671TIP3    H243899   6.056   4.260   5.208
14672TIP3   OH243900   7.111   5.897   6.240
14672TIP3    H143901   7.106   5.916   6.146
14672TIP3    H243902   7.189   5.943   6.269
14673TIP3   OH243903   6.060   4.993   6.657
14673TIP3    H143904   6.139   5.019   6.703
14673TIP3    H243905   5.989   5.012   6.718
14674TIP3   OH243906   6.514   4.476   5.921
14674TIP3    H143907   6.584   4.430   5.875
14674TIP3    H243908   6.512   4.437   6.008
14675TIP3   OH243909   6.003   3.939   5.808
14675TIP3    H143910   5.977   3.863   5.861
14675TIP3    H243911   6.023   3.902   5.722
14676TIP3   OH243912   6.486   4.384   6.188
14676TIP3    H143913   6.400   4.420   6.209
14676TIP3    H243914   6.548   4.438   6.239
14677TIP3   OH243915   6.228   4.739   5.288
14677TIP3    H143916   6.153   4.685   5.262
14677TIP3    H243917   6.201   4.778   5.372
14678TIP3   OH243918   7.113   4.986   5.902
14678TIP3    H143919   7.146   5.038   5.828
14678TIP3    H243920   7.031   4.948   5.869
14679TIP3   OH243921   6.680   4.046   5.214
14679TIP3    H143922   6.589   4.018   5.205
14679TIP3    H243923   6.677   4.141   5.215
14680TIP3   OH243924   6.629   5.071   6.322
14680TIP3    H143925   6.680   5.061   6.402
14680TIP3    H243926   6.588   5.157   6.329
14681TIP3   OH243927   6.741   4.319   5.243
14681TIP3    H143928   6.824   4.307   5.197
14681TIP3    H243929   6.704   4.398   5.205
14682TIP3   OH243930   5.905   4.736   5.941
14682TIP3    H143931   5.944   4.722   5.855
14682TIP3    H243932   5.974   4.710   6.003
14683TIP3   OH243933   6.381   4.898   5.124
14683TIP3    H143934   6.331   4.980   5.123
14683TIP3    H243935   6.329   4.838   5.177
14684TIP3   OH243936   5.793   4.672   6.581
14684TIP3    H143937   5.794   4.649   6.674
14684TIP3    H243938   5.715   4.629   6.546
14685TIP3   OH243939   6.538   4.814   6.604
14685TIP3    H143940   6.469   4.753   6.577
14685TIP3    H243941   6.619   4.773   6.573
14686TIP3   OH243942   6.774   5.358   6.206
14686TIP3    H143943   6.679   5.346   6.209
14686TIP3    H243944   6.796   5.394   6.292
14687TIP3   OH243945   7.175   4.412   5.057
14687TIP3    H143946   7.103   4.370   5.011
14687TIP3    H243947   7.183   4.499   5.016
14688TIP3   OH243948   7.412   5.282   6.168
14688TIP3    H143949   7.319   5.262   6.166
14688TIP3    H243950   7.447   5.247   6.086
14689TIP3   OH243951   6.894   5.207   5.045
14689TIP3    H143952   6.876   5.161   5.128
14689TIP3    H243953   6.845   5.156   4.979
14690TIP3   OH243954   6.879   4.859   5.801
14690TIP3    H143955   6.790   4.837   5.830
14690TIP3    H243956   6.913   4.777   5.765
14691TIP3   OH243957   6.038   5.085   5.616
14691TIP3    H143958   6.032   5.162   5.558
14691TIP3    H243959   5.951   5.077   5.654
14692TIP3   OH243960   5.577   4.377   5.305
14692TIP3    H143961   5.623   4.457   5.330
14692TIP3    H243962   5.488   4.388   5.338
14693TIP3   OH243963   6.128   4.844   5.517
14693TIP3    H143964   6.107   4.932   5.547
14693TIP3    H243965   6.099   4.787   5.588
14694TIP3   OH243966   6.321   5.408   6.069
14694TIP3    H143967   6.355   5.482   6.019
14694TIP3    H243968   6.395   5.378   6.121
14695TIP3   OH243969   5.953   5.308   5.466
14695TIP3    H143970   5.866   5.315   5.505
14695TIP3    H243971   5.989   5.397   5.473
14696TIP3   OH243972   6.668   5.074   6.048
14696TIP3    H143973   6.653   5.072   6.143
14696TIP3    H243974   6.751   5.028   6.036
14697TIP3   OH243975   6.695   4.991   4.899
14697TIP3    H143976   6.750   4.945   4.962
14697TIP3    H243977   6.605   4.970   4.926
14698TIP3   OH243978   6.928   5.561   6.083
14698TIP3    H143979   6.857   5.502   6.107
14698TIP3    H243980   6.892   5.616   6.013
14699TIP3   OH243981   6.995   5.464   4.702
14699TIP3    H143982   7.051   5.542   4.706
14699TIP3    H243983   6.916   5.487   4.751
14700TIP3   OH243984   5.977   4.184   6.566
14700TIP3    H143985   5.890   4.224   6.574
14700TIP3    H243986   5.965   4.095   6.599
14701TIP3   OH243987   6.854   4.867   5.086
14701TIP3    H143988   6.828   4.820   5.165
14701TIP3    H243989   6.950   4.871   5.091
14702TIP3   OH243990   5.745   5.308   6.229
14702TIP3    H143991   5.797   5.250   6.286
14702TIP3    H243992   5.754   5.395   6.268
14703TIP3   OH243993   6.019   4.832   4.931
14703TIP3    H143994   6.112   4.842   4.911
14703TIP3    H243995   6.007   4.881   5.013
14704TIP3   OH243996   5.972   4.939   5.188
14704TIP3    H143997   6.030   4.912   5.260
14704TIP3    H243998   5.968   5.034   5.194
14705TIP3   OH243999   5.682   4.622   5.406
14705TIP3    H144000   5.615   4.667   5.458
14705TIP3    H244001   5.701   4.682   5.334
14706TIP3   OH244002   6.860   4.247   6.264
14706TIP3    H144003   6.930   4.304   6.298
14706TIP3    H244004   6.856   4.174   6.326
14707TIP3   OH244005   6.739   3.992   5.478
14707TIP3    H144006   6.715   4.011   5.387
14707TIP3    H244007   6.778   4.074   5.510
14708TIP3   OH244008   6.231   5.122   5.116
14708TIP3    H144009   6.150   5.142   5.163
14708TIP3    H244010   6.249   5.201   5.065
14709TIP3   OH244011   6.399   4.198   5.555
14709TIP3    H144012   6.462   4.265   5.529
14709TIP3    H244013   6.422   4.178   5.646
14710TIP3   OH244014   6.693   4.497   6.339
14710TIP3    H144015   6.717   4.545   6.418
14710TIP3    H244016   6.743   4.415   6.345
14711TIP3   OH244017   6.553   3.887   5.652
14711TIP3    H144018   6.530   3.965   5.701
14711TIP3    H244019   6.624   3.916   5.593
14712TIP3   OH244020   5.987   5.211   5.213
14712TIP3    H144021   5.955   5.281   5.156
14712TIP3    H244022   5.975   5.244   5.302
14713TIP3   OH244023   6.069   3.918   5.457
14713TIP3    H144024   6.058   4.009   5.484
14713TIP3    H244025   6.163   3.902   5.463
14714TIP3   OH244026   7.294   4.383   6.301
14714TIP3    H144027   7.201   4.398   6.318
14714TIP3    H244028   7.297   4.307   6.243
14715TIP3   OH244029   6.968   4.609   5.711
14715TIP3    H144030   6.895   4.547   5.710
14715TIP3    H244031   7.038   4.563   5.757
14716TIP3   OH244032   5.728   4.802   5.204
14716TIP3    H144033   5.801   4.864   5.205
14716TIP3    H244034   5.745   4.746   5.128
14717TIP3   OH244035   5.620   4.101   5.313
14717TIP3    H144036   5.622   4.195   5.329
14717TIP3    H244037   5.597   4.093   5.221
14718TIP3   OH244038   6.949   5.566   5.648
14718TIP3    H144039   6.907   5.618   5.580
14718TIP3    H244040   7.043   5.582   5.636
14719TIP3   OH244041   6.023   3.812   6.201
14719TIP3    H144042   5.996   3.783   6.114
14719TIP3    H244043   6.016   3.734   6.256
14720TIP3   OH244044   5.549   5.063   5.597
14720TIP3    H144045   5.510   5.101   5.676
14720TIP3    H244046   5.503   5.106   5.525
14721TIP3   OH244047   5.735   5.610   6.658
14721TIP3    H144048   5.817   5.611   6.706
14721TIP3    H244049   5.702   5.521   6.667
14722TIP3   OH244050   6.212   5.511   6.699
14722TIP3    H144051   6.305   5.487   6.705
14722TIP3    H244052   6.179   5.459   6.626
14723TIP3   OH244053   6.831   5.455   6.456
14723TIP3    H144054   6.847   5.386   6.520
14723TIP3    H244055   6.904   5.516   6.468
14724TIP3   OH244056   6.594   5.183   4.700
14724TIP3    H144057   6.635   5.114   4.753
14724TIP3    H244058   6.626   5.167   4.612
14725TIP3   OH244059   5.853   5.002   6.842
14725TIP3    H144060   5.863   4.908   6.858
14725TIP3    H244061   5.764   5.011   6.808
14726TIP3   OH244062   5.853   4.634   5.022
14726TIP3    H144063   5.908   4.606   5.095
14726TIP3    H244064   5.906   4.698   4.975
14727TIP3   OH244065   6.475   5.090   6.616
14727TIP3    H144066   6.428   5.110   6.535
14727TIP3    H244067   6.509   5.002   6.602
14728TIP3   OH244068   6.288   4.842   4.862
14728TIP3    H144069   6.330   4.864   4.945
14728TIP3    H244070   6.320   4.754   4.842
14729TIP3   OH244071   6.942   5.131   6.232
14729TIP3    H144072   7.020   5.161   6.185
14729TIP3    H244073   6.878   5.202   6.220
14730TIP3   OH244074   5.965   4.736   6.854
14730TIP3    H144075   6.038   4.742   6.793
14730TIP3    H244076   6.000   4.768   6.937
14731TIP3   OH244077   6.019   4.564   5.241
14731TIP3    H144078   5.990   4.535   5.327
14731TIP3    H244079   6.062   4.488   5.203
14732TIP3   OH244080   6.333   4.635   6.512
14732TIP3    H144081   6.246   4.674   6.522
14732TIP3    H244082   6.362   4.664   6.425
14733TIP3   OH244083   6.155   4.366   5.103
14733TIP3    H144084   6.122   4.362   5.014
14733TIP3    H244085   6.250   4.374   5.093
14734TIP3   OH244086   6.825   5.008   6.584
14734TIP3    H144087   6.895   4.973   6.530
14734TIP3    H244088   6.824   4.950   6.661
14735TIP3   OH244089   6.938   4.673   4.779
14735TIP3    H144090   6.934   4.623   4.698
14735TIP3    H244091   6.913   4.762   4.754
14736TIP3   OH244092   6.422   4.399   6.622
14736TIP3    H144093   6.433   4.332   6.555
14736TIP3    H244094   6.394   4.477   6.573
14737TIP3   OH244095   6.442   4.209   6.406
14737TIP3    H144096   6.463   4.256   6.326
14737TIP3    H244097   6.349   4.188   6.398
14738TIP3   OH244098   6.439   4.733   6.281
14738TIP3    H144099   6.526   4.771   6.272
14738TIP3    H244100   6.381   4.791   6.231
14739TIP3   OH244101   7.036   4.666   6.668
14739TIP3    H144102   7.069   4.577   6.683
14739TIP3    H244103   7.115   4.719   6.656
14740TIP3   OH244104   7.062   4.956   6.402
14740TIP3    H144105   7.009   5.017   6.350
14740TIP3    H244106   7.152   4.971   6.372
14741TIP3   OH244107   6.314   4.503   6.861
14741TIP3    H144108   6.239   4.449   6.884
14741TIP3    H244109   6.336   4.477   6.772
14742TIP3   OH244110   6.550   3.954   6.387
14742TIP3    H144111   6.524   4.044   6.404
14742TIP3    H244112   6.535   3.941   6.294
14743TIP3   OH244113   6.681   4.453   6.720
14743TIP3    H144114   6.690   4.443   6.815
14743TIP3    H244115   6.590   4.428   6.702
14744TIP3   OH244116   6.903   4.385   6.569
14744TIP3    H144117   6.826   4.397   6.625
14744TIP3    H244118   6.975   4.367   6.629
14745TIP3   OH244119   7.116   4.363   6.738
14745TIP3    H144120   7.158   4.278   6.730
14745TIP3    H244121   7.140   4.394   6.826
14746TIP3   OH244122   6.150   4.282   6.926
14746TIP3    H144123   6.190   4.209   6.879
14746TIP3    H244124   6.181   4.272   7.016
14747TIP3   OH244125   6.604   3.836   6.647
14747TIP3    H144126   6.690   3.802   6.674
14747TIP3    H244127   6.589   3.912   6.703
14748TIP3   OH244128   6.697   4.152   6.938
14748TIP3    H144129   6.644   4.077   6.911
14748TIP3    H244130   6.636   4.226   6.939
14749TIP3   OH244131   5.955   5.420   5.031
14749TIP3    H144132   6.049   5.406   5.017
14749TIP3    H244133   5.925   5.462   4.950
14750TIP3   OH244134   5.333   5.360   5.663
14750TIP3    H144135   5.277   5.297   5.616
14750TIP3    H244136   5.382   5.306   5.725
14751TIP3   OH244137   5.487   5.210   5.838
14751TIP3    H144138   5.481   5.143   5.907
14751TIP3    H244139   5.540   5.280   5.877
14752TIP3   OH244140   7.220   5.624   5.649
14752TIP3    H144141   7.233   5.644   5.742
14752TIP3    H244142   7.263   5.695   5.603
14753TIP3   OH244143   7.235   5.649   5.927
14753TIP3    H144144   7.188   5.566   5.926
14753TIP3    H244145   7.304   5.637   5.991
14754TIP3   OH244146   7.300   5.351   6.491
14754TIP3    H144147   7.227   5.359   6.553
14754TIP3    H244148   7.346   5.435   6.498
14755TIP3   OH244149   7.136   4.860   5.117
14755TIP3    H144150   7.195   4.932   5.095
14755TIP3    H244151   7.173   4.823   5.198
14756TIP3   OH244152   7.242   4.735   5.350
14756TIP3    H144153   7.193   4.757   5.429
14756TIP3    H244154   7.332   4.762   5.370
14757TIP3   OH244155   7.296   5.130   5.744
14757TIP3    H144156   7.349   5.065   5.698
14757TIP3    H244157   7.297   5.207   5.687
14758TIP3   OH244158   7.099   5.407   5.930
14758TIP3    H144159   7.032   5.451   5.982
14758TIP3    H244160   7.050   5.367   5.858
14759TIP3   OH244161   7.163   4.658   4.933
14759TIP3    H144162   7.084   4.659   4.880
14759TIP3    H244163   7.150   4.728   4.997
14760TIP3   OH244164   6.974   4.302   4.909
14760TIP3    H144165   6.934   4.333   4.828
14760TIP3    H244166   6.975   4.207   4.899
14761TIP3   OH244167   5.661   4.641   6.218
14761TIP3    H144168   5.652   4.613   6.127
14761TIP3    H244169   5.755   4.640   6.235
14762TIP3   OH244170   7.320   4.997   6.308
14762TIP3    H144171   7.390   4.933   6.296
14762TIP3    H244172   7.334   5.061   6.238
14763TIP3   OH244173   7.508   4.794   6.301
14763TIP3    H144174   7.439   4.743   6.345
14763TIP3    H244175   7.589   4.754   6.331
14764TIP3   OH244176   6.961   4.033   4.876
14764TIP3    H144177   7.034   3.998   4.927
14764TIP3    H244178   6.886   3.980   4.903
14765TIP3   OH244179   7.188   4.476   5.839
14765TIP3    H144180   7.270   4.496   5.793
14765TIP3    H244181   7.201   4.513   5.927
14766TIP3   OH244182   7.264   4.620   6.071
14766TIP3    H144183   7.195   4.648   6.132
14766TIP3    H244184   7.295   4.702   6.032
14767TIP3   OH244185   5.881   4.327   6.854
14767TIP3    H144186   5.975   4.326   6.872
14767TIP3    H244187   5.848   4.246   6.894
14768TIP3   OH244188   7.151   4.105   5.435
14768TIP3    H144189   7.181   4.067   5.518
14768TIP3    H244190   7.090   4.040   5.400
14769TIP3   OH244191   5.862   4.040   6.216
14769TIP3    H144192   5.916   3.961   6.220
14769TIP3    H244193   5.924   4.110   6.195
14770TIP3   OH244194   5.634   4.306   6.270
14770TIP3    H144195   5.688   4.297   6.191
14770TIP3    H244196   5.652   4.394   6.301
14771TIP3   OH244197   7.597   4.385   6.381
14771TIP3    H144198   7.593   4.390   6.476
14771TIP3    H244199   7.565   4.298   6.359
14772TIP3   OH244200   7.201   3.979   5.014
14772TIP3    H144201   7.241   3.912   4.959
14772TIP3    H244202   7.261   4.053   5.010
14773TIP3   OH244203   5.621   3.820   5.758
14773TIP3    H144204   5.538   3.810   5.803
14773TIP3    H244205   5.601   3.877   5.683
14774TIP3   OH244206   6.774   5.534   5.284
14774TIP3    H144207   6.835   5.525   5.210
14774TIP3    H244208   6.813   5.603   5.338
14775TIP3   OH244209   5.868   3.927   6.632
14775TIP3    H144210   5.812   3.905   6.706
14775TIP3    H244211   5.808   3.951   6.562
14776TIP3   OH244212   5.892   5.308   6.665
14776TIP3    H144213   5.797   5.302   6.655
14776TIP3    H244214   5.905   5.318   6.759
14777TIP3   OH244215   6.092   5.375   6.217
14777TIP3    H144216   6.041   5.451   6.188
14777TIP3    H244217   6.176   5.385   6.173
14778TIP3   OH244218   6.483   5.604   6.356
14778TIP3    H144219   6.519   5.599   6.444
14778TIP3    H244220   6.544   5.660   6.308
14779TIP3   OH244221   6.673   5.764   6.236
14779TIP3    H144222   6.735   5.719   6.179
14779TIP3    H244223   6.727   5.822   6.290
14780TIP3   OH244224   7.499   4.088   6.315
14780TIP3    H144225   7.408   4.073   6.291
14780TIP3    H244226   7.539   4.001   6.314
14781TIP3   OH244227   5.750   5.606   6.268
14781TIP3    H144228   5.659   5.623   6.245
14781TIP3    H244229   5.771   5.672   6.334
14782TIP3   OH244230   5.980   5.607   6.116
14782TIP3    H144231   5.898   5.610   6.165
14782TIP3    H244232   5.957   5.633   6.027
14783TIP3   OH244233   6.393   5.619   5.905
14783TIP3    H144234   6.319   5.633   5.846
14783TIP3    H244235   6.404   5.703   5.949
14784TIP3   OH244236   6.654   5.550   5.955
14784TIP3    H144237   6.564   5.575   5.937
14784TIP3    H244238   6.707   5.618   5.913
14785TIP3   OH244239   6.857   5.717   5.861
14785TIP3    H144240   6.857   5.807   5.829
14785TIP3    H244241   6.886   5.665   5.786
14786TIP3   OH244242   5.663   5.389   5.976
14786TIP3    H144243   5.686   5.369   6.067
14786TIP3    H244244   5.736   5.357   5.924
14787TIP3   OH244245   5.867   5.275   5.839
14787TIP3    H144246   5.878   5.190   5.882
14787TIP3    H244247   5.953   5.316   5.846
14788TIP3   OH244248   6.134   5.358   5.868
14788TIP3    H144249   6.154   5.266   5.854
14788TIP3    H244250   6.188   5.384   5.942
14789TIP3   OH244251   6.696   4.016   5.942
14789TIP3    H144252   6.668   3.950   6.005
14789TIP3    H244253   6.763   3.973   5.890
14790TIP3   OH244254   7.192   3.914   5.847
14790TIP3    H144255   7.231   3.970   5.779
14790TIP3    H244256   7.099   3.935   5.844
14791TIP3   OH244257   7.323   4.013   5.628
14791TIP3    H144258   7.381   3.945   5.594
14791TIP3    H244259   7.376   4.092   5.626
14792TIP3   OH244260   5.936   3.712   5.958
14792TIP3    H144261   5.847   3.678   5.965
14792TIP3    H244262   5.991   3.634   5.951
14793TIP3   OH244263   5.758   3.624   5.605
14793TIP3    H144264   5.784   3.671   5.525
14793TIP3    H244265   5.718   3.691   5.660
14794TIP3   OH244266   6.417   3.755   5.861
14794TIP3    H144267   6.465   3.797   5.789
14794TIP3    H244268   6.462   3.785   5.940
14795TIP3   OH244269   6.911   3.910   5.800
14795TIP3    H144270   6.916   3.875   5.711
14795TIP3    H244271   6.907   3.832   5.856
14796TIP3   OH244272   6.978   3.872   5.399
14796TIP3    H144273   6.892   3.910   5.418
14796TIP3    H244274   6.972   3.782   5.431
14797TIP3   OH244275   5.421   5.191   5.391
14797TIP3    H144276   5.337   5.156   5.362
14797TIP3    H244277   5.429   5.274   5.345
14798TIP3   OH244278   5.860   3.749   5.364
14798TIP3    H144279   5.907   3.690   5.305
14798TIP3    H244280   5.929   3.806   5.400
14799TIP3   OH244281   6.345   3.944   5.466
14799TIP3    H144282   6.402   3.892   5.521
14799TIP3    H244283   6.362   4.035   5.492
14800TIP3   OH244284   6.213   5.353   4.958
14800TIP3    H144285   6.300   5.375   4.923
14800TIP3    H244286   6.168   5.310   4.886
14801TIP3   OH244287   6.934   5.482   5.061
14801TIP3    H144288   6.930   5.387   5.052
14801TIP3    H244289   6.891   5.516   4.983
14802TIP3   OH244290   7.223   4.097   6.738
14802TIP3    H144291   7.244   4.072   6.829
14802TIP3    H244292   7.308   4.099   6.694
14803TIP3   OH244293   7.148   5.624   6.245
14803TIP3    H144294   7.074   5.592   6.194
14803TIP3    H244295   7.133   5.719   6.253
14804TIP3   OH244296   8.426   5.009   4.992
14804TIP3    H144297   8.398   5.096   4.963
14804TIP3    H244298   8.356   4.950   4.962
14805TIP3   OH244299   8.424   5.003   5.412
14805TIP3    H144300   8.478   4.983   5.489
14805TIP3    H244301   8.380   4.921   5.392
14806TIP3   OH244302   7.718   4.856   5.751
14806TIP3    H144303   7.755   4.807   5.824
14806TIP3    H244304   7.793   4.884   5.699
14807TIP3   OH244305   8.694   5.314   5.086
14807TIP3    H144306   8.682   5.247   5.153
14807TIP3    H244307   8.715   5.393   5.135
14808TIP3   OH244308   7.719   5.285   5.433
14808TIP3    H144309   7.700   5.191   5.443
14808TIP3    H244310   7.814   5.289   5.425
14809TIP3   OH244311   7.266   4.395   5.314
14809TIP3    H144312   7.268   4.485   5.347
14809TIP3    H244313   7.233   4.403   5.225
14810TIP3   OH244314   7.495   4.809   5.436
14810TIP3    H144315   7.545   4.732   5.462
14810TIP3    H244316   7.561   4.877   5.421
14811TIP3   OH244317   8.356   5.734   5.101
14811TIP3    H144318   8.377   5.674   5.029
14811TIP3    H244319   8.364   5.681   5.180
14812TIP3   OH244320   8.232   5.221   5.417
14812TIP3    H144321   8.280   5.142   5.390
14812TIP3    H244322   8.301   5.281   5.447
14813TIP3   OH244323   9.238   4.560   5.445
14813TIP3    H144324   9.254   4.643   5.491
14813TIP3    H244325   9.255   4.580   5.353
14814TIP3   OH244326   8.637   4.708   5.453
14814TIP3    H144327   8.673   4.623   5.478
14814TIP3    H244328   8.600   4.694   5.366
14815TIP3   OH244329   7.999   4.370   5.417
14815TIP3    H144330   7.975   4.441   5.357
14815TIP3    H244331   7.952   4.294   5.384
14816TIP3   OH244332   8.684   4.476   5.047
14816TIP3    H144333   8.748   4.468   5.118
14816TIP3    H244334   8.734   4.511   4.974
14817TIP3   OH244335   7.621   4.577   5.524
14817TIP3    H144336   7.704   4.560   5.569
14817TIP3    H244337   7.624   4.520   5.447
14818TIP3   OH244338   8.035   4.782   5.357
14818TIP3    H144339   8.130   4.770   5.361
14818TIP3    H244340   8.001   4.699   5.324
14819TIP3   OH244341   9.281   4.778   5.616
14819TIP3    H144342   9.191   4.809   5.603
14819TIP3    H244343   9.312   4.826   5.693
14820TIP3   OH244344   7.973   4.378   5.871
14820TIP3    H144345   7.920   4.413   5.799
14820TIP3    H244346   7.920   4.391   5.949
14821TIP3   OH244347   8.330   5.226   4.849
14821TIP3    H144348   8.288   5.197   4.767
14821TIP3    H244349   8.277   5.300   4.878
14822TIP3   OH244350   8.068   5.146   5.628
14822TIP3    H144351   8.015   5.219   5.661
14822TIP3    H244352   8.118   5.184   5.556
14823TIP3   OH244353   8.842   4.493   5.267
14823TIP3    H144354   8.807   4.466   5.352
14823TIP3    H244355   8.899   4.567   5.287
14824TIP3   OH244356   7.862   4.480   5.635
14824TIP3    H144357   7.916   4.555   5.659
14824TIP3    H244358   7.913   4.435   5.567
14825TIP3   OH244359   7.915   5.352   5.732
14825TIP3    H144360   7.900   5.442   5.701
14825TIP3    H244361   7.837   5.332   5.784
14826TIP3   OH244362   7.301   5.067   4.995
14826TIP3    H144363   7.230   5.107   4.944
14826TIP3    H244364   7.341   5.140   5.042
14827TIP3   OH244365   8.727   5.562   5.228
14827TIP3    H144366   8.638   5.555   5.264
14827TIP3    H244367   8.727   5.644   5.181
14828TIP3   OH244368   9.047   4.437   5.607
14828TIP3    H144369   8.961   4.441   5.564
14828TIP3    H244370   9.108   4.469   5.541
14829TIP3   OH244371   8.312   4.067   5.596
14829TIP3    H144372   8.307   3.974   5.620
14829TIP3    H244373   8.234   4.106   5.635
14830TIP3   OH244374   8.435   5.594   4.873
14830TIP3    H144375   8.488   5.515   4.864
14830TIP3    H244376   8.494   5.666   4.849
14831TIP3   OH244377   8.576   5.364   4.841
14831TIP3    H144378   8.506   5.300   4.837
14831TIP3    H244379   8.626   5.340   4.918
14832TIP3   OH244380   8.960   5.444   5.571
14832TIP3    H144381   8.943   5.371   5.512
14832TIP3    H244382   8.952   5.522   5.516
14833TIP3   OH244383   8.255   4.849   4.841
14833TIP3    H144384   8.172   4.893   4.822
14833TIP3    H244385   8.300   4.846   4.756
14834TIP3   OH244386   8.219   4.659   4.525
14834TIP3    H144387   8.285   4.708   4.574
14834TIP3    H244388   8.268   4.588   4.483
14835TIP3   OH244389   9.122   5.095   5.447
14835TIP3    H144390   9.043   5.148   5.433
14835TIP3    H244391   9.176   5.114   5.371
14836TIP3   OH244392   8.608   4.938   4.800
14836TIP3    H144393   8.554   4.966   4.874
14836TIP3    H244394   8.691   4.913   4.839
14837TIP3   OH244395   8.826   4.967   5.760
14837TIP3    H144396   8.824   5.055   5.798
14837TIP3    H244397   8.746   4.963   5.707
14838TIP3   OH244398   7.837   4.913   5.202
14838TIP3    H144399   7.801   4.852   5.138
14838TIP3    H244400   7.911   4.866   5.240
14839TIP3   OH244401   7.981   5.338   5.343
14839TIP3    H144402   7.959   5.327   5.250
14839TIP3    H244403   8.068   5.299   5.351
14840TIP3   OH244404   7.935   4.911   5.581
14840TIP3    H144405   7.974   4.874   5.502
14840TIP3    H244406   7.983   4.993   5.596
14841TIP3   OH244407   8.484   5.558   5.354
14841TIP3    H144408   8.475   5.637   5.407
14841TIP3    H244409   8.471   5.486   5.416
14842TIP3   OH244410   8.110   5.449   5.904
14842TIP3    H144411   8.049   5.505   5.951
14842TIP3    H244412   8.055   5.398   5.845
14843TIP3   OH244413   8.439   4.801   4.630
14843TIP3    H144414   8.499   4.859   4.676
14843TIP3    H244415   8.468   4.804   4.539
14844TIP3   OH244416   7.864   4.976   6.063
14844TIP3    H144417   7.874   5.069   6.082
14844TIP3    H244418   7.769   4.963   6.053
14845TIP3   OH244419   8.192   5.460   4.897
14845TIP3    H144420   8.268   5.518   4.893
14845TIP3    H244421   8.129   5.499   4.836
14846TIP3   OH244422   7.900   5.607   5.990
14846TIP3    H144423   7.874   5.618   5.899
14846TIP3    H244424   7.818   5.592   6.037
14847TIP3   OH244425   8.962   4.058   4.714
14847TIP3    H144426   8.878   4.066   4.759
14847TIP3    H244427   8.961   4.126   4.647
14848TIP3   OH244428   7.709   4.751   5.006
14848TIP3    H144429   7.634   4.799   4.973
14848TIP3    H244430   7.686   4.658   4.995
14849TIP3   OH244431   8.728   5.412   4.239
14849TIP3    H144432   8.739   5.505   4.221
14849TIP3    H244433   8.817   5.377   4.239
14850TIP3   OH244434   7.499   5.161   5.940
14850TIP3    H144435   7.427   5.145   5.878
14850TIP3    H244436   7.530   5.073   5.963
14851TIP3   OH244437   7.334   5.372   5.601
14851TIP3    H144438   7.422   5.400   5.625
14851TIP3    H244439   7.277   5.446   5.623
14852TIP3   OH244440   9.199   5.845   5.638
14852TIP3    H144441   9.204   5.749   5.638
14852TIP3    H244442   9.117   5.864   5.683
14853TIP3   OH244443   8.298   5.594   5.767
14853TIP3    H144444   8.288   5.685   5.794
14853TIP3    H244445   8.231   5.547   5.815
14854TIP3   OH244446   8.080   5.699   4.711
14854TIP3    H144447   8.031   5.673   4.634
14854TIP3    H244448   8.038   5.780   4.740
14855TIP3   OH244449   7.519   5.554   5.097
14855TIP3    H144450   7.565   5.547   5.181
14855TIP3    H244451   7.471   5.471   5.089
14856TIP3   OH244452   8.279   5.632   4.346
14856TIP3    H144453   8.329   5.558   4.311
14856TIP3    H244454   8.313   5.644   4.435
14857TIP3   OH244455   8.334   5.672   4.614
14857TIP3    H144456   8.246   5.678   4.652
14857TIP3    H244457   8.386   5.631   4.683
14858TIP3   OH244458   9.060   4.916   5.918
14858TIP3    H144459   8.983   4.928   5.863
14858TIP3    H244460   9.081   4.823   5.912
14859TIP3   OH244461   7.699   5.347   5.904
14859TIP3    H144462   7.750   5.335   5.984
14859TIP3    H244463   7.626   5.286   5.912
14860TIP3   OH244464   8.073   4.159   5.724
14860TIP3    H144465   7.989   4.126   5.692
14860TIP3    H244466   8.051   4.238   5.772
14861TIP3   OH244467   8.617   4.283   5.918
14861TIP3    H144468   8.687   4.259   5.978
14861TIP3    H244469   8.536   4.264   5.966
14862TIP3   OH244470   8.820   4.702   5.857
14862TIP3    H144471   8.785   4.698   5.946
14862TIP3    H244472   8.807   4.792   5.829
14863TIP3   OH244473   8.520   4.778   4.369
14863TIP3    H144474   8.474   4.777   4.285
14863TIP3    H244475   8.601   4.826   4.352
14864TIP3   OH244476   8.229   4.214   4.686
14864TIP3    H144477   8.188   4.208   4.772
14864TIP3    H244478   8.199   4.136   4.640
14865TIP3   OH244479   8.013   4.691   5.732
14865TIP3    H144480   7.967   4.697   5.816
14865TIP3    H244481   7.992   4.773   5.687
14866TIP3   OH244482   7.896   4.564   5.252
14866TIP3    H144483   7.805   4.542   5.273
14866TIP3    H244484   7.907   4.535   5.161
14867TIP3   OH244485   8.372   4.643   4.979
14867TIP3    H144486   8.326   4.716   4.938
14867TIP3    H244487   8.431   4.611   4.911
14868TIP3   OH244488   8.582   4.875   6.046
14868TIP3    H144489   8.608   4.792   6.086
14868TIP3    H244490   8.657   4.933   6.059
14869TIP3   OH244491   8.540   4.660   5.201
14869TIP3    H144492   8.472   4.681   5.137
14869TIP3    H244493   8.588   4.587   5.162
14870TIP3   OH244494   7.848   4.704   5.951
14870TIP3    H144495   7.847   4.773   6.018
14870TIP3    H244496   7.828   4.624   6.000
14871TIP3   OH244497   7.897   4.171   4.666
14871TIP3    H144498   7.884   4.169   4.761
14871TIP3    H244499   7.819   4.215   4.633
14872TIP3   OH244500   7.455   4.232   5.509
14872TIP3    H144501   7.494   4.281   5.582
14872TIP3    H244502   7.530   4.191   5.465
14873TIP3   OH244503   7.362   4.216   5.006
14873TIP3    H144504   7.407   4.243   4.926
14873TIP3    H244505   7.296   4.284   5.021
14874TIP3   OH244506   8.585   4.910   5.626
14874TIP3    H144507   8.612   4.845   5.561
14874TIP3    H244508   8.538   4.859   5.692
14875TIP3   OH244509   8.265   4.363   5.303
14875TIP3    H144510   8.188   4.362   5.360
14875TIP3    H244511   8.339   4.352   5.363
14876TIP3   OH244512   7.659   4.416   5.301
14876TIP3    H144513   7.592   4.399   5.235
14876TIP3    H244514   7.715   4.338   5.300
14877TIP3   OH244515   7.906   4.449   5.002
14877TIP3    H144516   8.001   4.457   4.994
14877TIP3    H244517   7.873   4.465   4.914
14878TIP3   OH244518   8.710   4.446   5.514
14878TIP3    H144519   8.687   4.466   5.604
14878TIP3    H244520   8.643   4.384   5.485
14879TIP3   OH244521   7.794   4.475   4.754
14879TIP3    H144522   7.735   4.420   4.702
14879TIP3    H244523   7.847   4.521   4.690
14880TIP3   OH244524   8.903   6.159   5.726
14880TIP3    H144525   8.898   6.168   5.631
14880TIP3    H244526   8.981   6.207   5.751
14881TIP3   OH244527   7.856   5.254   6.137
14881TIP3    H144528   7.935   5.275   6.187
14881TIP3    H244529   7.784   5.267   6.199
14882TIP3   OH244530   8.310   4.735   5.401
14882TIP3    H144531   8.375   4.686   5.352
14882TIP3    H244532   8.306   4.690   5.486
14883TIP3   OH244533   7.816   4.189   5.294
14883TIP3    H144534   7.788   4.113   5.345
14883TIP3    H244535   7.845   4.153   5.210
14884TIP3   OH244536   8.275   4.632   5.661
14884TIP3    H144537   8.187   4.660   5.689
14884TIP3    H244538   8.335   4.682   5.716
14885TIP3   OH244539   8.020   4.985   4.788
14885TIP3    H144540   7.943   4.936   4.759
14885TIP3    H244541   7.992   5.027   4.870
14886TIP3   OH244542   8.901   5.248   5.388
14886TIP3    H144543   8.939   5.294   5.313
14886TIP3    H244544   8.823   5.205   5.352
14887TIP3   OH244545   8.482   4.312   4.691
14887TIP3    H144546   8.389   4.290   4.688
14887TIP3    H244547   8.485   4.406   4.704
14888TIP3   OH244548   8.427   5.330   5.802
14888TIP3    H144549   8.479   5.322   5.882
14888TIP3    H244550   8.385   5.416   5.809
14889TIP3   OH244551   8.537   4.575   4.764
14889TIP3    H144552   8.632   4.581   4.773
14889TIP3    H244553   8.513   4.651   4.711
14890TIP3   OH244554   7.708   4.995   5.430
14890TIP3    H144555   7.746   4.978   5.344
14890TIP3    H244556   7.775   4.968   5.492
14891TIP3   OH244557   8.168   5.151   4.630
14891TIP3    H144558   8.122   5.235   4.630
14891TIP3    H244559   8.112   5.093   4.681
14892TIP3   OH244560   7.587   4.916   6.063
14892TIP3    H144561   7.578   4.888   6.154
14892TIP3    H244562   7.513   4.876   6.018
14893TIP3   OH244563   8.347   5.059   6.086
14893TIP3    H144564   8.272   5.005   6.059
14893TIP3    H244565   8.423   5.009   6.057
14894TIP3   OH244566   8.568   5.622   5.688
14894TIP3    H144567   8.474   5.605   5.693
14894TIP3    H244568   8.591   5.655   5.775
14895TIP3   OH244569   8.955   4.660   4.573
14895TIP3    H144570   8.899   4.613   4.511
14895TIP3    H244571   8.956   4.750   4.542
14896TIP3   OH244572   9.197   5.572   5.657
14896TIP3    H144573   9.109   5.539   5.674
14896TIP3    H244574   9.222   5.533   5.573
14897TIP3   OH244575   8.687   5.474   4.515
14897TIP3    H144576   8.662   5.404   4.576
14897TIP3    H244577   8.687   5.431   4.429
14898TIP3   OH244578   8.676   5.109   5.285
14898TIP3    H144579   8.586   5.087   5.308
14898TIP3    H244580   8.711   5.028   5.247
14899TIP3   OH244581   7.834   5.347   5.101
14899TIP3    H144582   7.832   5.420   5.040
14899TIP3    H244583   7.746   5.343   5.137
14900TIP3   OH244584   7.389   4.642   4.778
14900TIP3    H144585   7.436   4.722   4.802
14900TIP3    H244586   7.310   4.644   4.831
14901TIP3   OH244587   7.915   5.100   5.009
14901TIP3    H144588   7.898   5.189   5.039
14901TIP3    H244589   7.889   5.045   5.082
14902TIP3   OH244590   8.117   5.667   5.557
14902TIP3    H144591   8.152   5.742   5.508
14902TIP3    H244592   8.192   5.633   5.607
14903TIP3   OH244593   7.750   5.567   4.946
14903TIP3    H144594   7.663   5.574   4.987
14903TIP3    H244595   7.786   5.656   4.952
14904TIP3   OH244596   8.464   5.335   5.527
14904TIP3    H144597   8.452   5.330   5.622
14904TIP3    H244598   8.540   5.280   5.509
14905TIP3   OH244599   8.461   5.210   4.398
14905TIP3    H144600   8.509   5.183   4.475
14905TIP3    H244601   8.377   5.164   4.404
14906TIP3   OH244602   8.724   5.828   5.570
14906TIP3    H144603   8.654   5.765   5.589
14906TIP3    H244604   8.690   5.881   5.499
14907TIP3   OH244605   8.764   5.682   4.204
14907TIP3    H144606   8.777   5.737   4.127
14907TIP3    H244607   8.693   5.725   4.253
14908TIP3   OH244608   7.797   4.456   6.082
14908TIP3    H144609   7.703   4.466   6.094
14908TIP3    H244610   7.825   4.401   6.155
14909TIP3   OH244611   8.626   5.127   4.597
14909TIP3    H144612   8.610   5.071   4.674
14909TIP3    H244613   8.721   5.132   4.591
14910TIP3   OH244614   7.543   5.555   5.716
14910TIP3    H144615   7.598   5.497   5.769
14910TIP3    H244616   7.554   5.641   5.755
14911TIP3   OH244617   7.812   5.178   4.414
14911TIP3    H144618   7.805   5.087   4.385
14911TIP3    H244619   7.799   5.174   4.509
14912TIP3   OH244620   7.778   5.183   4.688
14912TIP3    H144621   7.833   5.168   4.764
14912TIP3    H244622   7.760   5.277   4.689
14913TIP3   OH244623   7.495   4.886   4.880
14913TIP3    H144624   7.433   4.945   4.924
14913TIP3    H244625   7.541   4.942   4.818
14914TIP3   OH244626   8.638   4.514   5.772
14914TIP3    H144627   8.716   4.558   5.805
14914TIP3    H244628   8.631   4.434   5.824
14915TIP3   OH244629   8.533   4.260   4.960
14915TIP3    H144630   8.515   4.277   4.867
14915TIP3    H244631   8.578   4.339   4.990
14916TIP3   OH244632   8.034   5.387   4.635
14916TIP3    H144633   7.943   5.402   4.661
14916TIP3    H244634   8.049   5.454   4.568
14917TIP3   OH244635   8.185   4.453   5.051
14917TIP3    H144636   8.247   4.521   5.023
14917TIP3    H244637   8.212   4.433   5.141
14918TIP3   OH244638   8.477   4.743   5.817
14918TIP3    H144639   8.505   4.780   5.900
14918TIP3    H244640   8.527   4.662   5.809
14919TIP3   OH244641   8.350   4.153   5.135
14919TIP3    H144642   8.328   4.230   5.188
14919TIP3    H244643   8.418   4.184   5.076
14920TIP3   OH244644   7.775   5.460   4.693
14920TIP3    H144645   7.745   5.526   4.630
14920TIP3    H244646   7.761   5.501   4.779
14921TIP3   OH244647   7.866   4.171   4.947
14921TIP3    H144648   7.852   4.263   4.970
14921TIP3    H244649   7.961   4.159   4.949
14922TIP3   OH244650   9.083   4.645   5.819
14922TIP3    H144651   8.989   4.653   5.835
14922TIP3    H244652   9.089   4.591   5.740
14923TIP3   OH244653   8.761   4.850   5.198
14923TIP3    H144654   8.684   4.794   5.207
14923TIP3    H244655   8.827   4.809   5.254
14924TIP3   OH244656   7.427   4.363   4.785
14924TIP3    H144657   7.432   4.459   4.793
14924TIP3    H244658   7.393   4.348   4.697
14925TIP3   OH244659   8.747   5.828   5.143
14925TIP3    H144660   8.703   5.882   5.077
14925TIP3    H244661   8.840   5.842   5.128
14926TIP3   OH244662   7.808   4.075   5.683
14926TIP3    H144663   7.784   4.038   5.598
14926TIP3    H244664   7.807   4.000   5.743
14927TIP3   OH244665   7.351   5.328   5.093
14927TIP3    H144666   7.312   5.367   5.171
14927TIP3    H244667   7.301   5.364   5.020
14928TIP3   OH244668   7.543   5.860   6.137
14928TIP3    H144669   7.626   5.862   6.185
14928TIP3    H244670   7.522   5.767   6.129
14929TIP3   OH244671   8.011   5.769   6.184
14929TIP3    H144672   8.101   5.738   6.191
14929TIP3    H244673   7.973   5.716   6.114
14930TIP3   OH244674   7.977   5.370   4.307
14930TIP3    H144675   7.920   5.304   4.346
14930TIP3    H244676   8.048   5.319   4.267
14931TIP3   OH244677   8.627   5.711   5.941
14931TIP3    H144678   8.642   5.641   6.005
14931TIP3    H244679   8.700   5.772   5.954
14932TIP3   OH244680   8.413   5.422   4.234
14932TIP3    H144681   8.444   5.357   4.296
14932TIP3    H244682   8.474   5.417   4.161
14933TIP3   OH244683   7.644   5.279   6.320
14933TIP3    H144684   7.662   5.186   6.335
14933TIP3    H244685   7.556   5.279   6.281
14934TIP3   OH244686   7.612   4.878   4.557
14934TIP3    H144687   7.674   4.862   4.628
14934TIP3    H244688   7.666   4.903   4.482
14935TIP3   OH244689   8.270   5.343   6.104
14935TIP3    H144690   8.222   5.365   6.024
14935TIP3    H244691   8.308   5.257   6.087
14936TIP3   OH244692   8.213   5.088   4.366
14936TIP3    H144693   8.186   5.101   4.457
14936TIP3    H244694   8.188   4.998   4.346
14937TIP3   OH244695   8.735   5.396   5.724
14937TIP3    H144696   8.813   5.419   5.673
14937TIP3    H244697   8.672   5.465   5.704
14938TIP3   OH244698   7.740   5.024   6.345
14938TIP3    H144699   7.793   4.955   6.307
14938TIP3    H244700   7.773   5.034   6.434
14939TIP3   OH244701   7.808   4.812   4.743
14939TIP3    H144702   7.795   4.775   4.831
14939TIP3    H244703   7.855   4.744   4.695
14940TIP3   OH244704   8.133   4.878   6.018
14940TIP3    H144705   8.043   4.911   6.028
14940TIP3    H244706   8.157   4.905   5.929
14941TIP3   OH244707   7.945   4.631   4.584
14941TIP3    H144708   7.912   4.638   4.494
14941TIP3    H244709   8.040   4.636   4.575
14942TIP3   OH244710   8.624   5.266   6.072
14942TIP3    H144711   8.698   5.236   6.018
14942TIP3    H244712   8.624   5.208   6.148
14943TIP3   OH244713   8.738   4.913   4.266
14943TIP3    H144714   8.726   4.871   4.181
14943TIP3    H244715   8.713   5.004   4.252
14944TIP3   OH244716   8.273   4.643   6.089
14944TIP3    H144717   8.272   4.579   6.017
14944TIP3    H244718   8.229   4.720   6.052
14945TIP3   OH244719   8.240   4.453   5.888
14945TIP3    H144720   8.261   4.485   5.801
14945TIP3    H244721   8.147   4.429   5.883
14946TIP3   OH244722   8.226   4.981   5.784
14946TIP3    H144723   8.315   5.005   5.759
14946TIP3    H244724   8.170   5.041   5.733
14947TIP3   OH244725   8.846   4.949   6.138
14947TIP3    H144726   8.890   4.868   6.163
14947TIP3    H244727   8.915   5.004   6.102
14948TIP3   OH244728   8.853   5.218   5.889
14948TIP3    H144729   8.800   5.279   5.839
14948TIP3    H244730   8.942   5.231   5.856
14949TIP3   OH244731   8.144   4.720   6.343
14949TIP3    H144732   8.075   4.669   6.384
14949TIP3    H244733   8.098   4.791   6.298
14950TIP3   OH244734   8.358   4.224   6.004
14950TIP3    H144735   8.318   4.303   5.966
14950TIP3    H244736   8.291   4.156   5.994
14951TIP3   OH244737   8.730   4.647   6.111
14951TIP3    H144738   8.685   4.572   6.151
14951TIP3    H244739   8.817   4.647   6.150
14952TIP3   OH244740   8.956   4.611   6.269
14952TIP3    H144741   8.905   4.532   6.286
14952TIP3    H244742   8.951   4.661   6.351
14953TIP3   OH244743   7.968   4.523   6.414
14953TIP3    H144744   7.952   4.436   6.377
14953TIP3    H244745   7.995   4.505   6.505
14954TIP3   OH244746   8.414   4.184   6.272
14954TIP3    H144747   8.492   4.129   6.277
14954TIP3    H244748   8.399   4.195   6.179
14955TIP3   OH244749   8.408   4.473   6.331
14955TIP3    H144750   8.504   4.469   6.335
14955TIP3    H244751   8.380   4.382   6.343
14956TIP3   OH244752   7.764   5.675   4.503
14956TIP3    H144753   7.855   5.652   4.482
14956TIP3    H244754   7.724   5.697   4.419
14957TIP3   OH244755   7.142   5.636   5.156
14957TIP3    H144756   7.077   5.582   5.111
14957TIP3    H244757   7.185   5.576   5.217
14958TIP3   OH244758   7.285   5.470   5.330
14958TIP3    H144759   7.275   5.405   5.400
14958TIP3    H244760   7.337   5.540   5.368
14959TIP3   OH244761   9.013   5.891   5.131
14959TIP3    H144762   9.038   5.912   5.221
14959TIP3    H244763   9.082   5.930   5.077
14960TIP3   OH244764   9.038   5.908   5.411
14960TIP3    H144765   8.993   5.825   5.405
14960TIP3    H244766   9.110   5.892   5.472
14961TIP3   OH244767   9.087   5.607   5.988
14961TIP3    H144768   9.015   5.613   6.051
14961TIP3    H244769   9.124   5.695   5.986
14962TIP3   OH244770   8.902   5.117   4.600
14962TIP3    H144771   8.959   5.189   4.574
14962TIP3    H244772   8.947   5.076   4.674
14963TIP3   OH244773   9.032   4.971   4.793
14963TIP3    H144774   8.963   4.934   4.847
14963TIP3    H244775   9.090   5.015   4.855
14964TIP3   OH244776   9.079   5.375   5.217
14964TIP3    H144777   9.131   5.303   5.181
14964TIP3    H244778   9.092   5.447   5.154
14965TIP3   OH244779   8.899   5.668   5.421
14965TIP3    H144780   8.831   5.713   5.471
14965TIP3    H244781   8.852   5.627   5.348
14966TIP3   OH244782   8.947   4.899   4.440
14966TIP3    H144783   8.874   4.897   4.378
14966TIP3    H244784   8.929   4.976   4.495
14967TIP3   OH244785   8.810   4.548   4.374
14967TIP3    H144786   8.750   4.581   4.307
14967TIP3    H244787   8.800   4.453   4.372
14968TIP3   OH244788   8.833   4.840   4.931
14968TIP3    H144789   8.834   4.746   4.916
14968TIP3    H244790   8.814   4.849   5.025
14969TIP3   OH244791   7.458   4.909   5.690
14969TIP3    H144792   7.454   4.878   5.600
14969TIP3    H244793   7.551   4.902   5.714
14970TIP3   OH244794   9.104   5.264   5.783
14970TIP3    H144795   9.169   5.195   5.776
14970TIP3    H244796   9.106   5.307   5.697
14971TIP3   OH244797   9.267   5.050   5.803
14971TIP3    H144798   9.196   5.004   5.846
14971TIP3    H244799   9.345   4.998   5.822
14972TIP3   OH244800   8.751   4.284   4.359
14972TIP3    H144801   8.816   4.251   4.421
14972TIP3    H244802   8.670   4.238   4.383
14973TIP3   OH244803   8.822   4.574   4.814
14973TIP3    H144804   8.863   4.489   4.830
14973TIP3    H244805   8.867   4.608   4.737
14974TIP3   OH244806   8.970   4.727   5.342
14974TIP3    H144807   9.049   4.756   5.295
14974TIP3    H244808   8.979   4.765   5.430
14975TIP3   OH244809   9.026   4.874   5.574
14975TIP3    H144810   8.956   4.908   5.629
14975TIP3    H244811   9.060   4.951   5.528
14976TIP3   OH244812   7.721   4.641   6.386
14976TIP3    H144813   7.811   4.609   6.395
14976TIP3    H244814   7.667   4.562   6.393
14977TIP3   OH244815   9.488   4.533   6.104
14977TIP3    H144816   9.555   4.475   6.068
14977TIP3    H244817   9.442   4.568   6.027
14978TIP3   OH244818   8.920   4.325   4.880
14978TIP3    H144819   8.962   4.306   4.964
14978TIP3    H244820   8.861   4.251   4.867
14979TIP3   OH244821   7.644   4.299   5.705
14979TIP3    H144822   7.698   4.220   5.711
14979TIP3    H244823   7.707   4.370   5.690
14980TIP3   OH244824   7.431   4.561   5.734
14980TIP3    H144825   7.491   4.563   5.659
14980TIP3    H244826   7.458   4.635   5.789
14981TIP3   OH244827   9.345   4.598   5.883
14981TIP3    H144828   9.254   4.629   5.884
14981TIP3    H244829   9.342   4.517   5.833
14982TIP3   OH244830   8.979   4.249   4.517
14982TIP3    H144831   9.020   4.178   4.468
14982TIP3    H244832   9.044   4.320   4.514
14983TIP3   OH244833   7.399   4.106   5.250
14983TIP3    H144834   7.430   4.016   5.236
14983TIP3    H244835   7.397   4.144   5.162
14984TIP3   OH244836   8.581   5.800   4.781
14984TIP3    H144837   8.630   5.782   4.700
14984TIP3    H244838   8.630   5.871   4.823
14985TIP3   OH244839   7.650   4.122   6.080
14985TIP3    H144840   7.606   4.119   6.165
14985TIP3    H244841   7.590   4.170   6.023
14986TIP3   OH244842   7.676   5.578   6.155
14986TIP3    H144843   7.583   5.561   6.145
14986TIP3    H244844   7.693   5.565   6.249
14987TIP3   OH244845   7.889   5.630   5.706
14987TIP3    H144846   7.837   5.705   5.676
14987TIP3    H244847   7.973   5.639   5.662
14988TIP3   OH244848   8.284   5.862   5.842
14988TIP3    H144849   8.321   5.853   5.930
14988TIP3    H244850   8.348   5.915   5.794
14989TIP3   OH244851   8.476   6.017   5.717
14989TIP3    H144852   8.537   5.963   5.666
14989TIP3    H244853   8.533   6.074   5.769
14990TIP3   OH244854   9.271   4.356   5.774
14990TIP3    H144855   9.185   4.362   5.734
14990TIP3    H244856   9.292   4.263   5.775
14991TIP3   OH244857   7.548   5.867   5.752
14991TIP3    H144858   7.456   5.882   5.727
14991TIP3    H244859   7.566   5.935   5.817
14992TIP3   OH244860   7.781   5.864   5.607
14992TIP3    H144861   7.698   5.867   5.653
14992TIP3    H244862   7.759   5.887   5.516
14993TIP3   OH244863   8.192   5.883   5.398
14993TIP3    H144864   8.121   5.888   5.334
14993TIP3    H244865   8.198   5.971   5.435
14994TIP3   OH244866   8.457   5.821   5.445
14994TIP3    H144867   8.365   5.838   5.424
14994TIP3    H244868   8.506   5.885   5.393
14995TIP3   OH244869   8.662   5.994   5.346
14995TIP3    H144870   8.653   6.079   5.302
14995TIP3    H244871   8.691   5.934   5.277
14996TIP3   OH244872   7.461   5.647   5.463
14996TIP3    H144873   7.479   5.622   5.553
14996TIP3    H244874   7.535   5.612   5.413
14997TIP3   OH244875   7.667   5.531   5.328
14997TIP3    H144876   7.677   5.445   5.370
14997TIP3    H244877   7.753   5.571   5.334
14998TIP3   OH244878   7.933   5.616   5.353
14998TIP3    H144879   7.953   5.524   5.337
14998TIP3    H244880   7.987   5.639   5.429
14999TIP3   OH244881   8.485   4.269   5.448
14999TIP3    H144882   8.444   4.197   5.497
14999TIP3    H244883   8.550   4.226   5.393
15000TIP3   OH244884   8.957   4.208   5.358
15000TIP3    H144885   8.997   4.241   5.277
15000TIP3    H244886   8.863   4.208   5.340
15001TIP3   OH244887   9.074   4.250   5.106
15001TIP3    H144888   9.152   4.206   5.072
15001TIP3    H244889   9.096   4.343   5.101
15002TIP3   OH244890   7.725   3.970   5.439
15002TIP3    H144891   7.639   3.929   5.452
15002TIP3    H244892   7.786   3.896   5.430
15003TIP3   OH244893   7.514   3.896   5.091
15003TIP3    H144894   7.555   3.925   5.009
15003TIP3    H244895   7.562   3.817   5.114
15004TIP3   OH244896   8.203   4.016   5.333
15004TIP3    H144897   8.256   4.056   5.264
15004TIP3    H244898   8.247   4.039   5.414
15005TIP3   OH244899   8.686   4.151   5.302
15005TIP3    H144900   8.682   4.116   5.213
15005TIP3    H244901   8.697   4.074   5.358
15006TIP3   OH244902   8.750   4.104   4.883
15006TIP3    H144903   8.667   4.146   4.906
15006TIP3    H244904   8.741   4.014   4.912
15007TIP3   OH244905   7.216   5.430   4.878
15007TIP3    H144906   7.142   5.397   4.828
15007TIP3    H244907   7.230   5.519   4.845
15008TIP3   OH244908   7.659   3.991   4.859
15008TIP3    H144909   7.704   3.921   4.811
15008TIP3    H244910   7.729   4.047   4.892
15009TIP3   OH244911   8.140   4.201   4.952
15009TIP3    H144912   8.203   4.151   5.004
15009TIP3    H244913   8.154   4.292   4.977
15010TIP3   OH244914   8.023   5.598   4.446
15010TIP3    H144915   8.106   5.627   4.408
15010TIP3    H244916   7.996   5.524   4.391
15011TIP3   OH244917   8.718   5.743   4.547
15011TIP3    H144918   8.714   5.647   4.541
15011TIP3    H244919   8.674   5.774   4.468
15012TIP3   OH244920   7.960   4.265   6.311
15012TIP3    H144921   7.919   4.199   6.367
15012TIP3    H244922   8.052   4.265   6.337
15013TIP3   OH244923   8.211   4.258   6.439
15013TIP3    H144924   8.280   4.217   6.388
15013TIP3    H244925   8.186   4.193   6.504
15014TIP3   OH244926   8.944   5.887   5.735
15014TIP3    H144927   8.872   5.852   5.682
15014TIP3    H244928   8.926   5.980   5.742
15015TIP3   OH244929   9.470   5.561   4.996
15015TIP3    H144930   9.453   5.505   5.072
15015TIP3    H244931   9.559   5.537   4.970
15016TIP3   OH244932   9.190   4.762   4.699
15016TIP3    H144933   9.149   4.840   4.734
15016TIP3    H244934   9.118   4.710   4.663
15017TIP3   OH244935   9.235   5.064   4.951
15017TIP3    H144936   9.278   4.979   4.963
15017TIP3    H244937   9.305   5.123   4.925
15018TIP3   OH244938   0.271   5.805   4.610
15018TIP3    H144939   0.359   5.834   4.637
15018TIP3    H244940   0.217   5.884   4.618
15019TIP3   OH244941   0.174   5.509   4.991
15019TIP3    H144942   0.213   5.459   4.919
15019TIP3    H244943   0.249   5.539   5.043
15020TIP3   OH244944   9.801   4.632   5.017
15020TIP3    H144945   9.773   4.689   4.945
15020TIP3    H244946   9.815   4.547   4.976
15021TIP3   OH244947   9.363   4.832   5.005
15021TIP3    H144948   9.437   4.820   5.065
15021TIP3    H244949   9.375   4.765   4.938
15022TIP3   OH244950   0.101   5.118   4.810
15022TIP3    H144951   0.130   5.054   4.875
15022TIP3    H244952   0.011   5.092   4.790
15023TIP3   OH244953   9.724   4.534   5.493
15023TIP3    H144954   9.705   4.520   5.400
15023TIP3    H244955   9.653   4.590   5.523
15024TIP3   OH244956   9.577   4.776   5.168
15024TIP3    H144957   9.579   4.844   5.235
15024TIP3    H244958   9.644   4.803   5.105
15025TIP3   OH244959   9.680   5.601   5.233
15025TIP3    H144960   9.622   5.675   5.214
15025TIP3    H244961   9.621   5.526   5.239
15026TIP3   OH244962   9.068   5.307   4.491
15026TIP3    H144963   9.015   5.318   4.411
15026TIP3    H244964   9.104   5.394   4.508
15027TIP3   OH244965   9.528   5.296   4.673
15027TIP3    H144966   9.488   5.261   4.594
15027TIP3    H244967   9.573   5.222   4.712
15028TIP3   OH244968  -0.003   5.665   4.840
15028TIP3    H144969   0.002   5.615   4.759
15028TIP3    H244970   0.046   5.613   4.904
15029TIP3   OH244971   9.830   5.716   5.422
15029TIP3    H144972   9.780   5.794   5.450
15029TIP3    H244973   9.773   5.672   5.359
15030TIP3   OH244974   0.265   5.685   4.364
15030TIP3    H144975   0.272   5.723   4.452
15030TIP3    H244976   0.180   5.715   4.333
15031TIP3   OH244977   9.675   5.938   5.503
15031TIP3    H144978   9.652   5.935   5.410
15031TIP3    H244979   9.598   5.903   5.547
15032TIP3   OH244980   9.460   5.122   4.466
15032TIP3    H144981   9.375   5.134   4.425
15032TIP3    H244982   9.452   5.041   4.516
15033TIP3   OH244983   9.254   5.449   5.423
15033TIP3    H144984   9.195   5.419   5.354
15033TIP3    H244985   9.294   5.369   5.458
15034TIP3   OH244986   9.168   5.599   5.066
15034TIP3    H144987   9.262   5.603   5.045
15034TIP3    H244988   9.154   5.675   5.123
15035TIP3   OH244989   0.248   5.790   5.266
15035TIP3    H144990   0.229   5.874   5.308
15035TIP3    H244991   0.175   5.733   5.292
15036TIP3   OH244992   9.819   6.093   4.096
15036TIP3    H144993   9.789   6.004   4.075
15036TIP3    H244994   9.781   6.111   4.183
15037TIP3   OH244995   9.300   5.792   4.588
15037TIP3    H144996   9.321   5.782   4.681
15037TIP3    H244997   9.247   5.714   4.567
15038TIP3   OH244998   9.438   5.653   5.400
15038TIP3    H144999   9.509   5.620   5.455
15038TIP3    H245000   9.376   5.580   5.395
15039TIP3   OH245001   0.077   4.343   5.157
15039TIP3    H145002   0.058   4.335   5.064
15039TIP3    H245003   0.018   4.412   5.188
15040TIP3   OH245004   0.088   4.989   5.181
15040TIP3    H145005   0.098   4.903   5.222
15040TIP3    H245006   0.030   4.974   5.106
15041TIP3   OH245007   9.677   4.721   4.766
15041TIP3    H145008   9.585   4.698   4.780
15041TIP3    H245009   9.685   4.728   4.671
15042TIP3   OH245010   9.668   4.892   5.431
15042TIP3    H145011   9.640   4.980   5.455
15042TIP3    H245012   9.617   4.834   5.487
15043TIP3   OH245013   9.732   4.477   4.066
15043TIP3    H145014   9.742   4.404   4.127
15043TIP3    H245015   9.642   4.507   4.079
15044TIP3   OH245016   9.159   4.498   5.038
15044TIP3    H145017   9.229   4.545   5.084
15044TIP3    H245018   9.193   4.483   4.950
15045TIP3   OH245019   9.152   4.472   4.522
15045TIP3    H145020   9.212   4.512   4.459
15045TIP3    H245021   9.083   4.537   4.533
15046TIP3   OH245022   9.413   4.644   4.807
15046TIP3    H145023   9.329   4.667   4.768
15046TIP3    H245024   9.430   4.555   4.777
15047TIP3   OH245025   9.707   4.732   4.486
15047TIP3    H145026   9.742   4.821   4.494
15047TIP3    H245027   9.634   4.741   4.424
15048TIP3   OH245028   9.474   4.805   4.333
15048TIP3    H145029   9.396   4.749   4.328
15048TIP3    H245030   9.488   4.833   4.242
15049TIP3   OH245031   9.613   5.542   5.595
15049TIP3    H145032   9.694   5.567   5.639
15049TIP3    H245033   9.552   5.521   5.667
15050TIP3   OH245034   9.516   4.402   4.725
15050TIP3    H145035   9.532   4.361   4.811
15050TIP3    H245036   9.599   4.393   4.678
15051TIP3   OH245037   9.772   5.234   4.259
15051TIP3    H145038   9.794   5.141   4.269
15051TIP3    H245039   9.753   5.263   4.348
15052TIP3   OH245040   0.397   5.591   5.134
15052TIP3    H145041   0.454   5.564   5.206
15052TIP3    H245042   0.351   5.668   5.167
15053TIP3   OH245043   9.446   5.228   4.929
15053TIP3    H145044   9.468   5.285   4.855
15053TIP3    H245045   9.468   5.280   5.006
15054TIP3   OH245046   9.341   5.243   5.584
15054TIP3    H145047   9.394   5.243   5.664
15054TIP3    H245048   9.301   5.156   5.581
15055TIP3   OH245049   0.364   5.223   5.524
15055TIP3    H145050   0.283   5.189   5.485
15055TIP3    H245051   0.430   5.213   5.455
15056TIP3   OH245052   9.534   5.567   4.589
15056TIP3    H145053   9.459   5.624   4.606
15056TIP3    H245054   9.513   5.485   4.633
15057TIP3   OH245055   9.171   4.898   4.283
15057TIP3    H145056   9.204   4.988   4.286
15057TIP3    H245057   9.094   4.899   4.340
15058TIP3   OH245058   9.734   5.349   4.493
15058TIP3    H145059   9.753   5.443   4.494
15058TIP3    H245060   9.683   5.335   4.573
15059TIP3   OH245061   0.067   5.938   5.057
15059TIP3    H145062   0.104   6.020   5.024
15059TIP3    H245063   0.124   5.870   5.022
15060TIP3   OH245064   9.529   5.849   4.444
15060TIP3    H145065   9.449   5.833   4.495
15060TIP3    H245066   9.539   5.944   4.445
15061TIP3   OH245067   9.545   4.712   5.592
15061TIP3    H145068   9.451   4.728   5.601
15061TIP3    H245069   9.570   4.671   5.675
15062TIP3   OH245070   9.323   5.834   5.221
15062TIP3    H145071   9.365   5.772   5.280
15062TIP3    H245072   9.343   5.920   5.258
15063TIP3   OH245073   9.237   5.168   4.321
15063TIP3    H145074   9.176   5.204   4.385
15063TIP3    H245075   9.247   5.237   4.255
15064TIP3   OH245076   9.790   5.535   4.087
15064TIP3    H145077   9.697   5.555   4.093
15064TIP3    H245078   9.832   5.620   4.073
15065TIP3   OH245079   9.475   5.804   4.179
15065TIP3    H145080   9.393   5.756   4.194
15065TIP3    H245081   9.514   5.812   4.266
15066TIP3   OH245082   9.747   4.332   4.293
15066TIP3    H145083   9.678   4.393   4.319
15066TIP3    H245084   9.828   4.374   4.321
15067TIP3   OH245085   9.251   4.635   4.308
15067TIP3    H145086   9.209   4.721   4.299
15067TIP3    H245087   9.205   4.579   4.245
15068TIP3   OH245088   9.481   4.341   5.210
15068TIP3    H145089   9.485   4.312   5.119
15068TIP3    H245090   9.489   4.261   5.262
15069TIP3   OH245091   9.188   5.561   4.463
15069TIP3    H145092   9.114   5.617   4.440
15069TIP3    H245093   9.220   5.528   4.380
15070TIP3   OH245094   9.318   6.105   5.624
15070TIP3    H145095   9.399   6.094   5.673
15070TIP3    H245096   9.281   6.017   5.619
15071TIP3   OH245097   0.062   6.042   5.681
15071TIP3    H145098   0.126   5.974   5.660
15071TIP3    H245099  -0.011   6.025   5.621
15072TIP3   OH245100   0.024   5.646   3.813
15072TIP3    H145101  -0.048   5.602   3.858
15072TIP3    H245102   0.095   5.582   3.813
15073TIP3   OH245103   9.424   5.541   5.806
15073TIP3    H145104   9.439   5.447   5.815
15073TIP3    H245105   9.339   5.548   5.763
15074TIP3   OH245106   9.375   5.134   3.970
15074TIP3    H145107   9.417   5.140   4.055
15074TIP3    H245108   9.445   5.150   3.907
15075TIP3   OH245109   0.243   5.635   5.559
15075TIP3    H145110   0.166   5.657   5.507
15075TIP3    H245111   0.307   5.606   5.494
15076TIP3   OH245112   9.511   5.278   5.805
15076TIP3    H145113   9.571   5.216   5.765
15076TIP3    H245114   9.548   5.294   5.892
15077TIP3   OH245115   9.525   5.102   4.196
15077TIP3    H145116   9.506   5.106   4.290
15077TIP3    H245117   9.618   5.083   4.191
15078TIP3   OH245118   0.133   5.103   5.445
15078TIP3    H145119   0.058   5.162   5.450
15078TIP3    H245120   0.130   5.067   5.357
15079TIP3   OH245121   9.696   4.758   4.115
15079TIP3    H145122   9.617   4.788   4.070
15079TIP3    H245123   9.766   4.769   4.051
15080TIP3   OH245124   0.083   4.835   5.615
15080TIP3    H145125   0.138   4.790   5.552
15080TIP3    H245126   0.009   4.869   5.564
15081TIP3   OH245127   0.257   4.667   5.469
15081TIP3    H145128   0.344   4.682   5.433
15081TIP3    H245129   0.197   4.684   5.396
15082TIP3   OH245130   0.290   5.259   5.157
15082TIP3    H145131   0.310   5.233   5.067
15082TIP3    H245132   0.195   5.248   5.165
15083TIP3   OH245133   0.102   4.979   5.845
15083TIP3    H145134   0.022   4.935   5.873
15083TIP3    H245135   0.118   4.947   5.756
15084TIP3   OH245136   9.701   4.812   5.927
15084TIP3    H145137   9.703   4.730   5.879
15084TIP3    H245138   9.719   4.788   6.018
15085TIP3   OH245139   9.498   6.044   4.048
15085TIP3    H145140   9.490   5.960   4.094
15085TIP3    H245141   9.463   6.027   3.961
15086TIP3   OH245142   8.972   5.298   4.230
15086TIP3    H145143   9.049   5.346   4.202
15086TIP3    H245144   8.973   5.219   4.176
15087TIP3   OH245145   8.924   5.895   4.647
15087TIP3    H145146   8.864   5.837   4.601
15087TIP3    H245147   8.973   5.837   4.705
15088TIP3   OH245148   9.074   5.748   4.824
15088TIP3    H145149   9.065   5.667   4.875
15088TIP3    H245150   9.118   5.809   4.884
15089TIP3   OH245151   9.255   5.148   5.212
15089TIP3    H145152   9.249   5.123   5.120
15089TIP3    H245153   9.335   5.201   5.217
15090TIP3   OH245154   9.442   4.852   5.850
15090TIP3    H145155   9.537   4.851   5.863
15090TIP3    H245156   9.414   4.764   5.875
15091TIP3   OH245157   9.368   4.587   5.196
15091TIP3    H145158   9.405   4.500   5.209
15091TIP3    H245159   9.444   4.646   5.196
15092TIP3   OH245160   9.197   4.844   5.240
15092TIP3    H145161   9.244   4.822   5.160
15092TIP3    H245162   9.216   4.936   5.255
15093TIP3   OH245163   9.177   4.376   4.780
15093TIP3    H145164   9.086   4.356   4.801
15093TIP3    H245165   9.175   4.407   4.690
15094TIP3   OH245166   9.431   4.386   5.545
15094TIP3    H145167   9.389   4.379   5.631
15094TIP3    H245168   9.371   4.440   5.493
15095TIP3   OH245169   9.478   5.839   5.672
15095TIP3    H145170   9.385   5.837   5.653
15095TIP3    H245171   9.500   5.750   5.698
15096TIP3   OH245172   9.652   5.905   5.229
15096TIP3    H145173   9.605   5.972   5.180
15096TIP3    H245174   9.736   5.897   5.184
15097TIP3   OH245175   0.198   6.050   5.389
15097TIP3    H145176   0.263   6.084   5.450
15097TIP3    H245177   0.233   6.074   5.302
15098TIP3   OH245178   9.335   6.131   5.248
15098TIP3    H145179   9.244   6.149   5.226
15098TIP3    H245180   9.358   6.198   5.313
15099TIP3   OH245181   9.555   6.120   5.087
15099TIP3    H145182   9.473   6.124   5.137
15099TIP3    H245183   9.531   6.150   4.999
15100TIP3   OH245184   0.172   6.141   4.900
15100TIP3    H145185   0.174   6.103   4.812
15100TIP3    H245186   0.112   6.215   4.893
15101TIP3   OH245187   0.516   6.080   4.953
15101TIP3    H145188   0.516   6.012   4.885
15101TIP3    H245189   0.572   6.149   4.917
15102TIP3   OH245190   9.249   5.916   4.972
15102TIP3    H145191   9.277   5.892   5.060
15102TIP3    H245192   9.313   5.874   4.914
15103TIP3   OH245193   9.434   5.776   4.830
15103TIP3    H145194   9.448   5.699   4.885
15103TIP3    H245195   9.518   5.822   4.831
15104TIP3   OH245196   9.681   5.905   4.850
15104TIP3    H145197   9.719   5.819   4.833
15104TIP3    H245198   9.721   5.933   4.933
15105TIP3   OH245199   9.505   4.251   4.959
15105TIP3    H145200   9.419   4.207   4.956
15105TIP3    H245201   9.568   4.181   4.943
15106TIP3   OH245202   9.238   4.122   4.472
15106TIP3    H145203   9.290   4.197   4.445
15106TIP3    H245204   9.263   4.107   4.563
15107TIP3   OH245205   8.994   5.719   4.360
15107TIP3    H145206   8.911   5.683   4.328
15107TIP3    H245207   8.995   5.809   4.330
15108TIP3   OH245208   9.418   4.314   4.404
15108TIP3    H145209   9.450   4.262   4.330
15108TIP3    H245210   9.476   4.293   4.476
15109TIP3   OH245211   0.045   5.812   4.034
15109TIP3    H145212   0.131   5.853   4.025
15109TIP3    H245213   0.027   5.775   3.947
15110TIP3   OH245214   9.677   4.573   5.798
15110TIP3    H145215   9.669   4.504   5.863
15110TIP3    H245216   9.762   4.557   5.755
15111TIP3   OH245217   0.129   4.574   5.968
15111TIP3    H145218   0.225   4.582   5.964
15111TIP3    H245219   0.114   4.488   6.006
15112TIP3   OH245220   9.088   5.711   4.049
15112TIP3    H145221   9.059   5.752   4.131
15112TIP3    H245222   9.133   5.631   4.076
15113TIP3   OH245223   0.917   5.817   6.676
15113TIP3    H145224   0.891   5.901   6.639
15113TIP3    H245225   0.845   5.758   6.654
15114TIP3   OH245226   0.915   5.806   7.089
15114TIP3    H145227   0.960   5.792   7.173
15114TIP3    H245228   0.874   5.722   7.070
15115TIP3   OH245229   1.153   6.101   6.769
15115TIP3    H145230   1.146   6.032   6.835
15115TIP3    H245231   1.172   6.181   6.820
15116TIP3   OH245232   0.803   6.551   6.782
15116TIP3    H145233   0.843   6.474   6.741
15116TIP3    H245234   0.802   6.530   6.875
15117TIP3   OH245235   0.703   5.984   7.051
15117TIP3    H145236   0.766   5.912   7.053
15117TIP3    H245237   0.745   6.054   7.103
15118TIP3   OH245238   1.722   5.334   7.120
15118TIP3    H145239   1.738   5.416   7.166
15118TIP3    H245240   1.753   5.349   7.031
15119TIP3   OH245241   1.109   5.505   7.156
15119TIP3    H145242   1.151   5.424   7.187
15119TIP3    H245243   1.069   5.480   7.073
15120TIP3   OH245244   0.478   5.251   7.098
15120TIP3    H145245   0.413   5.320   7.112
15120TIP3    H245246   0.432   5.170   7.117
15121TIP3   OH245247   1.168   5.255   6.745
15121TIP3    H145248   1.232   5.249   6.816
15121TIP3    H245249   1.215   5.294   6.672
15122TIP3   OH245250   0.541   5.635   7.018
15122TIP3    H145251   0.625   5.594   6.996
15122TIP3    H245252   0.478   5.564   7.009
15123TIP3   OH245253   1.776   5.553   7.285
15123TIP3    H145254   1.687   5.587   7.282
15123TIP3    H245255   1.813   5.587   7.367
15124TIP3   OH245256   0.790   6.012   6.523
15124TIP3    H145257   0.765   5.985   6.435
15124TIP3    H245258   0.777   6.107   6.524
15125TIP3   OH245259   1.323   5.278   6.967
15125TIP3    H145260   1.281   5.264   7.052
15125TIP3    H245261   1.377   5.356   6.979
15126TIP3   OH245262   1.183   6.344   6.915
15126TIP3    H145263   1.094   6.335   6.952
15126TIP3    H245264   1.181   6.428   6.869
15127TIP3   OH245265   1.508   5.234   7.281
15127TIP3    H145266   1.422   5.254   7.245
15127TIP3    H245267   1.570   5.262   7.214
15128TIP3   OH245268   0.833   4.865   7.337
15128TIP3    H145269   0.741   4.843   7.321
15128TIP3    H245270   0.831   4.958   7.361
15129TIP3   OH245271   0.927   6.370   6.615
15129TIP3    H145272   0.975   6.290   6.592
15129TIP3    H245273   0.972   6.439   6.566
15130TIP3   OH245274   1.063   6.158   6.517
15130TIP3    H145275   1.070   6.083   6.458
15130TIP3    H245276   1.102   6.128   6.599
15131TIP3   OH245277   1.411   6.235   7.259
15131TIP3    H145278   1.399   6.161   7.199
15131TIP3    H245279   1.398   6.312   7.204
15132TIP3   OH245280   0.763   5.632   6.524
15132TIP3    H145281   0.688   5.690   6.511
15132TIP3    H245282   0.804   5.627   6.437
15133TIP3   OH245283   0.754   5.378   6.251
15133TIP3    H145284   0.819   5.446   6.270
15133TIP3    H245285   0.806   5.300   6.234
15134TIP3   OH245286   1.599   5.892   7.128
15134TIP3    H145287   1.516   5.939   7.127
15134TIP3    H245288   1.636   5.906   7.040
15135TIP3   OH245289   1.091   5.726   6.489
15135TIP3    H145290   1.040   5.758   6.564
15135TIP3    H245291   1.175   5.699   6.527
15136TIP3   OH245292   1.294   5.760   7.435
15136TIP3    H145293   1.296   5.843   7.482
15136TIP3    H245294   1.213   5.761   7.386
15137TIP3   OH245295   0.426   5.691   7.354
15137TIP3    H145296   0.357   5.725   7.298
15137TIP3    H245297   0.490   5.762   7.358
15138TIP3   OH245298   0.942   6.329   7.042
15138TIP3    H145299   0.924   6.415   7.081
15138TIP3    H245300   0.917   6.266   7.109
15139TIP3   OH245301   0.946   5.573   6.316
15139TIP3    H145302   1.002   5.629   6.369
15139TIP3    H245303   0.955   5.606   6.227
15140TIP3   OH245304   0.677   6.268   6.581
15140TIP3    H145305   0.764   6.298   6.608
15140TIP3    H245306   0.634   6.346   6.546
15141TIP3   OH245307   1.411   4.824   6.372
15141TIP3    H145308   1.333   4.846   6.423
15141TIP3    H245309   1.424   4.900   6.314
15142TIP3   OH245310   1.232   6.186   5.931
15142TIP3    H145311   1.232   6.278   5.905
15142TIP3    H245312   1.320   6.155   5.911
15143TIP3   OH245313   1.647   6.582   7.332
15143TIP3    H145314   1.648   6.488   7.352
15143TIP3    H245315   1.568   6.614   7.375
15144TIP3   OH245316   0.761   6.344   7.448
15144TIP3    H145317   0.765   6.434   7.481
15144TIP3    H245318   0.676   6.338   7.404
15145TIP3   OH245319   0.584   6.504   6.465
15145TIP3    H145320   0.537   6.477   6.386
15145TIP3    H245321   0.558   6.595   6.478
15146TIP3   OH245322   0.794   6.442   6.020
15146TIP3    H145323   0.842   6.362   5.997
15146TIP3    H245324   0.802   6.448   6.115
15147TIP3   OH245325   0.813   6.468   6.302
15147TIP3    H145326   0.739   6.471   6.362
15147TIP3    H245327   0.890   6.478   6.359
15148TIP3   OH245328   1.541   5.711   7.601
15148TIP3    H145329   1.457   5.719   7.556
15148TIP3    H245330   1.561   5.618   7.599
15149TIP3   OH245331   0.517   4.960   7.431
15149TIP3    H145332   0.472   4.918   7.358
15149TIP3    H245333   0.541   5.046   7.399
15150TIP3   OH245334   1.117   5.080   7.608
15150TIP3    H145335   1.180   5.038   7.667
15150TIP3    H245336   1.033   5.040   7.631
15151TIP3   OH245337   1.308   5.500   7.526
15151TIP3    H145338   1.266   5.494   7.612
15151TIP3    H245339   1.287   5.588   7.495
15152TIP3   OH245340   0.974   5.663   6.064
15152TIP3    H145341   0.928   5.626   5.988
15152TIP3    H245342   1.065   5.671   6.034
15153TIP3   OH245343   0.726   4.958   6.311
15153TIP3    H145344   0.705   4.966   6.404
15153TIP3    H245345   0.697   4.870   6.287
15154TIP3   OH245346   0.461   5.504   7.563
15154TIP3    H145347   0.409   5.424   7.570
15154TIP3    H245348   0.418   5.555   7.494
15155TIP3   OH245349   0.338   5.456   6.966
15155TIP3    H145350   0.254   5.499   6.981
15155TIP3    H245351   0.330   5.414   6.881
15156TIP3   OH245352   0.898   5.442   6.660
15156TIP3    H145353   0.860   5.518   6.617
15156TIP3    H245354   0.950   5.400   6.591
15157TIP3   OH245355   1.042   5.711   7.753
15157TIP3    H145356   1.011   5.644   7.813
15157TIP3    H245357   1.135   5.721   7.774
15158TIP3   OH245358   1.013   5.427   6.906
15158TIP3    H145359   0.961   5.452   6.830
15158TIP3    H245360   1.070   5.357   6.875
15159TIP3   OH245361   0.400   4.944   6.346
15159TIP3    H145362   0.446   5.003   6.406
15159TIP3    H245363   0.343   5.001   6.294
15160TIP3   OH245364   1.032   5.708   7.321
15160TIP3    H145365   1.063   5.641   7.260
15160TIP3    H245366   1.007   5.659   7.399
15161TIP3   OH245367   0.816   5.169   6.941
15161TIP3    H145368   0.769   5.252   6.929
15161TIP3    H245369   0.896   5.193   6.988
15162TIP3   OH245370   0.362   5.319   6.737
15162TIP3    H145371   0.428   5.379   6.702
15162TIP3    H245372   0.338   5.264   6.662
15163TIP3   OH245373   1.201   5.244   7.210
15163TIP3    H145374   1.177   5.261   7.301
15163TIP3    H245375   1.137   5.180   7.180
15164TIP3   OH245376   0.128   5.328   6.408
15164TIP3    H145377   0.060   5.273   6.447
15164TIP3    H245378   0.166   5.273   6.339
15165TIP3   OH245379   1.376   6.942   7.419
15165TIP3    H145380   1.375   6.960   7.325
15165TIP3    H245381   1.452   6.989   7.452
15166TIP3   OH245382   0.817   5.553   7.075
15166TIP3    H145383   0.860   5.498   7.009
15166TIP3    H245384   0.812   5.497   7.152
15167TIP3   OH245385   0.311   4.987   6.895
15167TIP3    H145386   0.260   4.918   6.937
15167TIP3    H245387   0.313   4.961   6.802
15168TIP3   OH245388   0.771   5.388   7.452
15168TIP3    H145389   0.717   5.444   7.397
15168TIP3    H245390   0.845   5.444   7.478
15169TIP3   OH245391   0.536   5.776   6.532
15169TIP3    H145392   0.446   5.743   6.526
15169TIP3    H245393   0.536   5.832   6.610
15170TIP3   OH245394   1.370   6.035   7.076
15170TIP3    H145395   1.407   6.085   7.003
15170TIP3    H245396   1.292   5.993   7.038
15171TIP3   OH245397   0.922   5.147   6.255
15171TIP3    H145398   0.858   5.087   6.294
15171TIP3    H245399   0.961   5.192   6.330
15172TIP3   OH245400   0.847   6.083   7.497
15172TIP3    H145401   0.896   6.077   7.579
15172TIP3    H245402   0.816   6.173   7.495
15173TIP3   OH245403   1.032   5.336   6.439
15173TIP3    H145404   1.126   5.340   6.458
15173TIP3    H245405   1.016   5.414   6.385
15174TIP3   OH245406   0.628   5.910   6.317
15174TIP3    H145407   0.569   5.985   6.315
15174TIP3    H245408   0.593   5.854   6.386
15175TIP3   OH245409   0.806   5.853   7.783
15175TIP3    H145410   0.746   5.791   7.742
15175TIP3    H245411   0.893   5.821   7.760
15176TIP3   OH245412   1.028   6.398   7.380
15176TIP3    H145413   0.935   6.375   7.388
15176TIP3    H245414   1.050   6.435   7.465
15177TIP3   OH245415   1.419   5.455   6.283
15177TIP3    H145416   1.356   5.410   6.228
15177TIP3    H245417   1.429   5.541   6.244
15178TIP3   OH245418   1.657   6.299   7.357
15178TIP3    H145419   1.563   6.290   7.344
15178TIP3    H245420   1.695   6.278   7.271
15179TIP3   OH245421   1.137   6.257   6.186
15179TIP3    H145422   1.113   6.182   6.240
15179TIP3    H245423   1.161   6.219   6.101
15180TIP3   OH245424   1.151   5.898   6.964
15180TIP3    H145425   1.063   5.879   6.996
15180TIP3    H245426   1.182   5.815   6.928
15181TIP3   OH245427   0.333   5.939   6.729
15181TIP3    H145428   0.376   5.963   6.811
15181TIP3    H245429   0.340   5.843   6.726
15182TIP3   OH245430   0.900   6.117   7.223
15182TIP3    H145431   0.882   6.105   7.316
15182TIP3    H245432   0.989   6.083   7.211
15183TIP3   OH245433   0.954   5.994   6.085
15183TIP3    H145434   0.995   5.973   6.170
15183TIP3    H245435   0.875   5.941   6.084
15184TIP3   OH245436   1.172   6.609   7.264
15184TIP3    H145437   1.107   6.540   7.281
15184TIP3    H245438   1.137   6.656   7.188
15185TIP3   OH245439   1.239   6.459   5.887
15185TIP3    H145440   1.281   6.526   5.832
15185TIP3    H245441   1.165   6.504   5.927
15186TIP3   OH245442   1.099   5.950   6.324
15186TIP3    H145443   1.084   5.872   6.378
15186TIP3    H245444   1.191   5.943   6.298
15187TIP3   OH245445   0.372   5.949   6.090
15187TIP3    H145446   0.419   5.868   6.069
15187TIP3    H245447   0.360   5.946   6.185
15188TIP3   OH245448   1.122   5.306   7.462
15188TIP3    H145449   1.200   5.352   7.494
15188TIP3    H245450   1.117   5.227   7.516
15189TIP3   OH245451   1.000   5.066   6.632
15189TIP3    H145452   0.921   5.116   6.615
15189TIP3    H245453   1.059   5.129   6.674
15190TIP3   OH245454   0.460   6.129   6.323
15190TIP3    H145455   0.439   6.141   6.415
15190TIP3    H245456   0.546   6.170   6.312
15191TIP3   OH245457   0.756   5.207   6.648
15191TIP3    H145458   0.792   5.294   6.662
15191TIP3    H245459   0.695   5.193   6.720
15192TIP3   OH245460   0.979   5.549   7.535
15192TIP3    H145461   0.997   5.599   7.614
15192TIP3    H245462   1.033   5.470   7.544
15193TIP3   OH245463   0.833   4.926   6.803
15193TIP3    H145464   0.804   5.001   6.854
15193TIP3    H245465   0.903   4.961   6.747
15194TIP3   OH245466   0.387   4.947   6.642
15194TIP3    H145467   0.370   5.031   6.599
15194TIP3    H245468   0.476   4.924   6.617
15195TIP3   OH245469   1.568   5.435   7.502
15195TIP3    H145470   1.474   5.448   7.514
15195TIP3    H245471   1.574   5.376   7.426
15196TIP3   OH245472   1.231   5.633   6.890
15196TIP3    H145473   1.155   5.579   6.910
15196TIP3    H245474   1.301   5.599   6.946
15197TIP3   OH245475   1.207   6.608   6.824
15197TIP3    H145476   1.170   6.651   6.747
15197TIP3    H245477   1.301   6.628   6.820
15198TIP3   OH245478   0.533   6.197   6.053
15198TIP3    H145479   0.481   6.132   6.099
15198TIP3    H245480   0.568   6.150   5.977
15199TIP3   OH245481   1.090   6.496   7.628
15199TIP3    H145482   1.105   6.426   7.692
15199TIP3    H245483   1.163   6.557   7.641
15200TIP3   OH245484   0.882   6.201   5.916
15200TIP3    H145485   0.919   6.135   5.975
15200TIP3    H245486   0.932   6.191   5.835
15201TIP3   OH245487   0.736   6.121   7.784
15201TIP3    H145488   0.655   6.109   7.734
15201TIP3    H245489   0.772   6.033   7.793
15202TIP3   OH245490   0.687   5.899   6.053
15202TIP3    H145491   0.682   5.923   6.145
15202TIP3    H245492   0.637   5.817   6.047
15203TIP3   OH245493   1.184   6.166   7.399
15203TIP3    H145494   1.264   6.194   7.354
15203TIP3    H245495   1.126   6.242   7.393
15204TIP3   OH245496   0.351   5.542   6.491
15204TIP3    H145497   0.260   5.513   6.492
15204TIP3    H245498   0.391   5.491   6.420
15205TIP3   OH245499   0.663   5.667   7.641
15205TIP3    H145500   0.587   5.616   7.613
15205TIP3    H245501   0.690   5.715   7.563
15206TIP3   OH245502   0.490   5.381   6.321
15206TIP3    H145503   0.453   5.389   6.234
15206TIP3    H245504   0.585   5.378   6.307
15207TIP3   OH245505   1.081   6.043   7.768
15207TIP3    H145506   1.147   6.004   7.711
15207TIP3    H245507   1.081   5.988   7.846
15208TIP3   OH245508   0.699   5.443   7.811
15208TIP3    H145509   0.678   5.368   7.756
15208TIP3    H245510   0.683   5.519   7.756
15209TIP3   OH245511   0.665   5.213   7.633
15209TIP3    H145512   0.721   5.271   7.582
15209TIP3    H245513   0.586   5.202   7.580
15210TIP3   OH245514   0.750   5.824   7.430
15210TIP3    H145515   0.825   5.794   7.378
15210TIP3    H245516   0.773   5.914   7.453
15211TIP3   OH245517   1.305   5.738   7.848
15211TIP3    H145518   1.360   5.660   7.851
15211TIP3    H245519   1.367   5.810   7.840
15212TIP3   OH245520   1.316   6.002   7.573
15212TIP3    H145521   1.260   6.061   7.522
15212TIP3    H245522   1.404   6.020   7.542
15213TIP3   OH245523   0.854   5.002   7.655
15213TIP3    H145524   0.792   5.073   7.641
15213TIP3    H245525   0.805   4.923   7.632
15214TIP3   OH245526   0.955   5.499   7.901
15214TIP3    H145527   0.958   5.483   7.995
15214TIP3    H245528   0.866   5.473   7.875
15215TIP3   OH245529   1.186   5.447   7.759
15215TIP3    H145530   1.109   5.449   7.815
15215TIP3    H245531   1.258   5.425   7.817
15216TIP3   OH245532   1.418   5.414   7.911
15216TIP3    H145533   1.432   5.319   7.917
15216TIP3    H245534   1.410   5.443   8.002
15217TIP3   OH245535   0.893   4.992   7.929
15217TIP3    H145536   0.964   4.928   7.934
15217TIP3    H245537   0.875   5.002   7.836
15218TIP3   OH245538   7.507   0.583   0.088
15218TIP3    H145539   7.482   0.513   0.029
15218TIP3    H245540   7.432   0.643   0.087
15219TIP3   OH245541   1.463   6.699   6.820
15219TIP3    H145542   1.500   6.702   6.909
15219TIP3    H245543   1.538   6.716   6.763
15220TIP3   OH245544   1.513   6.677   7.099
15220TIP3    H145545   1.462   6.597   7.093
15220TIP3    H245546   1.577   6.660   7.168
15221TIP3   OH245547   1.554   6.389   7.667
15221TIP3    H145548   1.483   6.399   7.730
15221TIP3    H245549   1.601   6.472   7.669
15222TIP3   OH245550   1.367   5.906   6.276
15222TIP3    H145551   1.425   5.976   6.243
15222TIP3    H245552   1.417   5.865   6.347
15223TIP3   OH245553   1.505   5.773   6.480
15223TIP3    H145554   1.441   5.734   6.540
15223TIP3    H245555   1.570   5.813   6.538
15224TIP3   OH245556   1.550   6.172   6.913
15224TIP3    H145557   1.601   6.100   6.877
15224TIP3    H245558   1.563   6.244   6.852
15225TIP3   OH245559   1.350   6.455   7.108
15225TIP3    H145560   1.284   6.501   7.160
15225TIP3    H245561   1.300   6.414   7.037
15226TIP3   OH245562   1.412   5.677   6.123
15226TIP3    H145563   1.351   5.659   6.052
15226TIP3    H245564   1.381   5.759   6.161
15227TIP3   OH245565   1.254   5.355   6.094
15227TIP3    H145566   1.236   5.432   6.039
15227TIP3    H245567   1.289   5.290   6.033
15228TIP3   OH245568   1.312   5.628   6.625
15228TIP3    H145569   1.318   5.533   6.612
15228TIP3    H245570   1.289   5.638   6.717
15229TIP3   OH245571   1.576   6.046   7.483
15229TIP3    H145572   1.640   5.978   7.464
15229TIP3    H245573   1.603   6.121   7.430
15230TIP3   OH245574   1.750   5.832   7.472
15230TIP3    H145575   1.677   5.791   7.519
15230TIP3    H245576   1.825   5.776   7.492
15231TIP3   OH245577   1.206   5.071   6.060
15231TIP3    H145578   1.296   5.046   6.080
15231TIP3    H245579   1.172   5.106   6.142
15232TIP3   OH245580   1.304   5.353   6.517
15232TIP3    H145581   1.349   5.268   6.526
15232TIP3    H245582   1.348   5.395   6.443
15233TIP3   OH245583   1.445   5.518   7.031
15233TIP3    H145584   1.525   5.538   6.984
15233TIP3    H245585   1.457   5.557   7.118
15234TIP3   OH245586   1.514   5.665   7.260
15234TIP3    H145587   1.443   5.694   7.317
15234TIP3    H245588   1.546   5.745   7.219
15235TIP3   OH245589   1.979   5.262   7.798
15235TIP3    H145590   2.044   5.206   7.755
15235TIP3    H245591   1.940   5.312   7.727
15236TIP3   OH245592   1.410   5.100   6.555
15236TIP3    H145593   1.455   5.082   6.637
15236TIP3    H245594   1.343   5.032   6.548
15237TIP3   OH245595   1.827   5.376   7.603
15237TIP3    H145596   1.746   5.418   7.632
15237TIP3    H245597   1.799   5.305   7.546
15238TIP3   OH245598   1.453   5.023   6.176
15238TIP3    H145599   1.505   4.960   6.126
15238TIP3    H245600   1.510   5.100   6.185
15239TIP3   OH245601   1.028   6.566   6.452
15239TIP3    H145602   1.089   6.549   6.381
15239TIP3    H245603   1.073   6.629   6.508
15240TIP3   OH245604   0.770   6.609   7.509
15240TIP3    H145605   0.785   6.618   7.603
15240TIP3    H245606   0.831   6.670   7.468
15241TIP3   OH245607   0.959   6.777   7.393
15241TIP3    H145608   1.029   6.721   7.360
15241TIP3    H245609   1.003   6.838   7.452
15242TIP3   OH245610   1.743   5.124   7.497
15242TIP3    H145611   1.654   5.103   7.468
15242TIP3    H245612   1.790   5.041   7.493
15243TIP3   OH245613   0.666   6.724   7.042
15243TIP3    H145614   0.578   6.692   7.063
15243TIP3    H245615   0.685   6.787   7.112
15244TIP3   OH245616   0.905   6.596   7.097
15244TIP3    H145617   0.820   6.638   7.084
15244TIP3    H245618   0.969   6.662   7.072
15245TIP3   OH245619   1.121   6.760   7.036
15245TIP3    H145620   1.112   6.849   7.000
15245TIP3    H245621   1.154   6.708   6.963
15246TIP3   OH245622   1.013   5.070   7.117
15246TIP3    H145623   0.931   5.026   7.137
15246TIP3    H245624   1.061   5.007   7.063
15247TIP3   OH245625   1.451   4.966   7.009
15247TIP3    H145626   1.495   5.013   6.938
15247TIP3    H245627   1.367   5.011   7.019
15248TIP3   OH245628   1.566   5.048   6.776
15248TIP3    H145629   1.634   4.986   6.748
15248TIP3    H245630   1.606   5.134   6.764
15249TIP3   OH245631   0.840   4.779   7.068
15249TIP3    H145632   0.862   4.789   6.975
15249TIP3    H245633   0.775   4.846   7.085
15250TIP3   OH245634   1.155   4.886   6.972
15250TIP3    H145635   1.207   4.871   6.893
15250TIP3    H245636   1.159   4.803   7.019
15251TIP3   OH245637   1.211   4.904   6.546
15251TIP3    H145638   1.131   4.954   6.566
15251TIP3    H245639   1.195   4.818   6.584
15252TIP3   OH245640  -0.021   4.719   6.524
15252TIP3    H145641   0.073   4.728   6.510
15252TIP3    H245642  -0.029   4.669   6.606
15253TIP3   OH245643   0.654   4.966   6.574
15253TIP3    H145644   0.694   4.914   6.643
15253TIP3    H245645   0.678   5.056   6.595
15254TIP3   OH245646   0.480   6.418   6.234
15254TIP3    H145647   0.505   6.436   6.143
15254TIP3    H245648   0.436   6.332   6.230
15255TIP3   OH245649   1.181   6.522   6.232
15255TIP3    H145650   1.176   6.427   6.221
15255TIP3    H245651   1.148   6.558   6.149
15256TIP3   OH245652   7.185   0.401   0.068
15256TIP3    H145653   7.275   0.382   0.039
15256TIP3    H245654   7.168   0.337   0.137
15257TIP3   OH245655   1.484   5.146   7.920
15257TIP3    H145656   1.501   5.117   8.010
15257TIP3    H245657   1.569   5.139   7.877
15258TIP3   OH245658   1.400   6.667   7.420
15258TIP3    H145659   1.322   6.640   7.371
15258TIP3    H245660   1.391   6.762   7.428
15259TIP3   OH245661   2.668   6.041   6.169
15259TIP3    H145662   2.645   6.132   6.152
15259TIP3    H245663   2.594   5.990   6.135
15260TIP3   OH245664   2.633   6.055   6.578
15260TIP3    H145665   2.682   6.029   6.656
15260TIP3    H245666   2.596   5.973   6.545
15261TIP3   OH245667   1.974   5.907   6.930
15261TIP3    H145668   2.014   5.856   7.001
15261TIP3    H245669   2.048   5.936   6.877
15262TIP3   OH245670   2.939   6.361   6.260
15262TIP3    H145671   2.927   6.288   6.320
15262TIP3    H245672   2.969   6.433   6.315
15263TIP3   OH245673   1.942   6.327   6.624
15263TIP3    H145674   1.931   6.232   6.623
15263TIP3    H245675   2.036   6.341   6.615
15264TIP3   OH245676   1.654   5.542   6.414
15264TIP3    H145677   1.620   5.629   6.434
15264TIP3    H245678   1.580   5.497   6.373
15265TIP3   OH245679   1.730   5.857   6.626
15265TIP3    H145680   1.780   5.780   6.652
15265TIP3    H245681   1.796   5.923   6.605
15266TIP3   OH245682   2.591   6.795   6.260
15266TIP3    H145683   2.625   6.731   6.198
15266TIP3    H245684   2.598   6.753   6.345
15267TIP3   OH245685   2.480   6.292   6.595
15267TIP3    H145686   2.532   6.213   6.578
15267TIP3    H245687   2.544   6.363   6.594
15268TIP3   OH245688   3.536   5.588   6.603
15268TIP3    H145689   3.529   5.671   6.650
15268TIP3    H245690   3.569   5.612   6.517
15269TIP3   OH245691   2.241   5.409   6.580
15269TIP3    H145692   2.217   5.485   6.527
15269TIP3    H245693   2.181   5.340   6.552
15270TIP3   OH245694   2.943   5.523   6.232
15270TIP3    H145695   3.023   5.494   6.276
15270TIP3    H245696   2.974   5.565   6.152
15271TIP3   OH245697   1.868   5.634   6.718
15271TIP3    H145698   1.951   5.619   6.762
15271TIP3    H245699   1.873   5.582   6.638
15272TIP3   OH245700   2.288   5.829   6.532
15272TIP3    H145701   2.381   5.810   6.538
15272TIP3    H245702   2.249   5.748   6.498
15273TIP3   OH245703   3.534   5.803   6.787
15273TIP3    H145704   3.464   5.866   6.768
15273TIP3    H245705   3.592   5.849   6.847
15274TIP3   OH245706   2.224   5.422   7.038
15274TIP3    H145707   2.174   5.460   6.966
15274TIP3    H245708   2.169   5.438   7.115
15275TIP3   OH245709   2.569   6.266   6.034
15275TIP3    H145710   2.533   6.240   5.949
15275TIP3    H245711   2.520   6.345   6.057
15276TIP3   OH245712   2.323   6.197   6.803
15276TIP3    H145713   2.270   6.267   6.840
15276TIP3    H245714   2.375   6.239   6.735
15277TIP3   OH245715   3.097   5.521   6.576
15277TIP3    H145716   3.164   5.454   6.562
15277TIP3    H245717   3.142   5.604   6.560
15278TIP3   OH245718   2.117   5.527   6.805
15278TIP3    H145719   2.172   5.603   6.827
15278TIP3    H245720   2.162   5.483   6.734
15279TIP3   OH245721   2.164   6.398   6.910
15279TIP3    H145722   2.154   6.489   6.880
15279TIP3    H245723   2.085   6.382   6.962
15280TIP3   OH245724   1.537   6.098   6.165
15280TIP3    H145725   1.506   6.118   6.076
15280TIP3    H245726   1.559   6.184   6.202
15281TIP3   OH245727   2.980   6.599   6.416
15281TIP3    H145728   2.897   6.581   6.460
15281TIP3    H245729   2.967   6.683   6.372
15282TIP3   OH245730   2.560   5.107   6.779
15282TIP3    H145731   2.552   5.015   6.805
15282TIP3    H245732   2.482   5.149   6.816
15283TIP3   OH245733   2.691   6.634   6.057
15283TIP3    H145734   2.742   6.553   6.048
15283TIP3    H245735   2.751   6.703   6.026
15284TIP3   OH245736   2.818   6.397   6.017
15284TIP3    H145737   2.746   6.335   6.023
15284TIP3    H245738   2.871   6.380   6.095
15285TIP3   OH245739   3.219   6.483   6.783
15285TIP3    H145740   3.136   6.435   6.784
15285TIP3    H245741   3.205   6.554   6.720
15286TIP3   OH245742   2.496   5.886   6.014
15286TIP3    H145743   2.415   5.933   5.996
15286TIP3    H245744   2.547   5.894   5.934
15287TIP3   OH245745   2.467   5.703   5.709
15287TIP3    H145746   2.530   5.755   5.759
15287TIP3    H245747   2.520   5.641   5.660
15288TIP3   OH245748   3.417   6.127   6.601
15288TIP3    H145749   3.331   6.169   6.602
15288TIP3    H245750   3.456   6.155   6.518
15289TIP3   OH245751   2.858   5.977   5.983
15289TIP3    H145752   2.803   6.006   6.056
15289TIP3    H245753   2.944   5.962   6.022
15290TIP3   OH245754   3.070   6.043   6.901
15290TIP3    H145755   3.071   6.095   6.981
15290TIP3    H245756   3.040   6.105   6.833
15291TIP3   OH245757   2.084   5.961   6.382
15291TIP3    H145758   2.051   5.900   6.316
15291TIP3    H245759   2.160   5.916   6.419
15292TIP3   OH245760   2.209   6.378   6.527
15292TIP3    H145761   2.193   6.366   6.434
15292TIP3    H245762   2.299   6.349   6.540
15293TIP3   OH245763   2.186   5.963   6.754
15293TIP3    H145764   2.225   5.927   6.674
15293TIP3    H245765   2.235   6.044   6.771
15294TIP3   OH245766   2.770   6.543   6.588
15294TIP3    H145767   2.745   6.621   6.637
15294TIP3    H245768   2.810   6.485   6.653
15295TIP3   OH245769   2.359   6.480   7.096
15295TIP3    H145770   2.297   6.542   7.135
15295TIP3    H245771   2.308   6.435   7.028
15296TIP3   OH245772   2.690   5.846   5.808
15296TIP3    H145773   2.749   5.904   5.856
15296TIP3    H245774   2.718   5.855   5.717
15297TIP3   OH245775   2.116   6.039   7.221
15297TIP3    H145776   2.122   6.133   7.237
15297TIP3    H245777   2.023   6.022   7.213
15298TIP3   OH245778   2.442   6.513   6.063
15298TIP3    H145779   2.525   6.560   6.070
15298TIP3    H245780   2.384   6.573   6.017
15299TIP3   OH245781   2.149   6.650   7.159
15299TIP3    H145782   2.130   6.663   7.066
15299TIP3    H245783   2.063   6.638   7.200
15300TIP3   OH245784   3.206   5.077   5.872
15300TIP3    H145785   3.128   5.110   5.917
15300TIP3    H245786   3.222   5.141   5.802
15301TIP3   OH245787   1.960   5.802   6.180
15301TIP3    H145788   1.885   5.853   6.149
15301TIP3    H245789   1.924   5.714   6.192
15302TIP3   OH245790   3.030   6.439   5.423
15302TIP3    H145791   3.029   6.528   5.389
15302TIP3    H245792   3.119   6.407   5.406
15303TIP3   OH245793   1.745   6.212   7.114
15303TIP3    H145794   1.677   6.193   7.049
15303TIP3    H245795   1.780   6.126   7.138
15304TIP3   OH245796   1.652   6.385   6.751
15304TIP3    H145797   1.737   6.365   6.711
15304TIP3    H245798   1.670   6.459   6.809
15305TIP3   OH245799   3.429   6.863   6.813
15305TIP3    H145800   3.441   6.769   6.822
15305TIP3    H245801   3.348   6.882   6.860
15306TIP3   OH245802   2.487   6.668   6.924
15306TIP3    H145803   2.510   6.749   6.970
15306TIP3    H245804   2.472   6.605   6.995
15307TIP3   OH245805   2.328   6.729   5.900
15307TIP3    H145806   2.290   6.711   5.814
15307TIP3    H245807   2.293   6.814   5.925
15308TIP3   OH245808   1.754   6.597   6.272
15308TIP3    H145809   1.799   6.588   6.356
15308TIP3    H245810   1.708   6.514   6.261
15309TIP3   OH245811   2.524   6.668   5.521
15309TIP3    H145812   2.578   6.599   5.482
15309TIP3    H245813   2.564   6.684   5.606
15310TIP3   OH245814   2.582   6.703   5.790
15310TIP3    H145815   2.499   6.705   5.838
15310TIP3    H245816   2.646   6.671   5.853
15311TIP3   OH245817   3.337   5.970   7.103
15311TIP3    H145818   3.260   5.983   7.047
15311TIP3    H245819   3.353   5.876   7.101
15312TIP3   OH245820   1.943   6.400   7.078
15312TIP3    H145821   1.995   6.388   7.157
15312TIP3    H245822   1.871   6.338   7.087
15313TIP3   OH245823   2.324   5.203   6.899
15313TIP3    H145824   2.240   5.170   6.867
15313TIP3    H245825   2.302   5.284   6.944
15314TIP3   OH245826   2.878   5.339   7.066
15314TIP3    H145827   2.947   5.320   7.130
15314TIP3    H245828   2.796   5.331   7.116
15315TIP3   OH245829   3.061   5.754   6.955
15315TIP3    H145830   3.035   5.746   7.046
15315TIP3    H245831   3.053   5.847   6.935
15316TIP3   OH245832   2.764   5.822   5.541
15316TIP3    H145833   2.724   5.832   5.455
15316TIP3    H245834   2.848   5.866   5.534
15317TIP3   OH245835   2.477   5.241   5.868
15317TIP3    H145836   2.440   5.242   5.957
15317TIP3    H245837   2.420   5.182   5.819
15318TIP3   OH245838   2.272   5.737   6.897
15318TIP3    H145839   2.229   5.745   6.982
15318TIP3    H245840   2.252   5.820   6.852
15319TIP3   OH245841   2.147   5.615   6.427
15319TIP3    H145842   2.057   5.593   6.453
15319TIP3    H245843   2.154   5.585   6.336
15320TIP3   OH245844   2.624   5.684   6.153
15320TIP3    H145845   2.577   5.759   6.116
15320TIP3    H245846   2.687   5.659   6.084
15321TIP3   OH245847   2.823   5.971   7.232
15321TIP3    H145848   2.799   5.902   7.294
15321TIP3    H245849   2.915   5.988   7.250
15322TIP3   OH245850   2.777   5.684   6.394
15322TIP3    H145851   2.716   5.715   6.327
15322TIP3    H245852   2.834   5.622   6.347
15323TIP3   OH245853   2.110   5.751   7.121
15323TIP3    H145854   2.129   5.816   7.189
15323TIP3    H245855   2.091   5.671   7.170
15324TIP3   OH245856   2.153   5.261   5.857
15324TIP3    H145857   2.139   5.280   5.950
15324TIP3    H245858   2.075   5.297   5.814
15325TIP3   OH245859   1.697   5.273   6.711
15325TIP3    H145860   1.764   5.311   6.768
15325TIP3    H245861   1.736   5.276   6.623
15326TIP3   OH245862   1.600   5.257   6.202
15326TIP3    H145863   1.640   5.291   6.122
15326TIP3    H245864   1.543   5.328   6.232
15327TIP3   OH245865   2.760   5.955   6.803
15327TIP3    H145866   2.834   6.015   6.814
15327TIP3    H245867   2.768   5.894   6.876
15328TIP3   OH245868   2.503   5.397   6.477
15328TIP3    H145869   2.418   5.388   6.520
15328TIP3    H245870   2.552   5.456   6.533
15329TIP3   OH245871   1.911   5.489   6.490
15329TIP3    H145872   1.823   5.496   6.453
15329TIP3    H245873   1.938   5.399   6.471
15330TIP3   OH245874   2.159   5.495   6.180
15330TIP3    H145875   2.253   5.510   6.167
15330TIP3    H245876   2.119   5.518   6.096
15331TIP3   OH245877   2.037   5.525   5.938
15331TIP3    H145878   1.969   5.483   5.885
15331TIP3    H245879   2.093   5.570   5.874
15332TIP3   OH245880   3.156   7.197   6.904
15332TIP3    H145881   3.156   7.210   6.809
15332TIP3    H245882   3.236   7.241   6.934
15333TIP3   OH245883   2.095   6.306   7.312
15333TIP3    H145884   2.177   6.327   7.357
15333TIP3    H245885   2.028   6.318   7.379
15334TIP3   OH245886   2.558   5.760   6.573
15334TIP3    H145887   2.641   5.739   6.530
15334TIP3    H245888   2.573   5.739   6.666
15335TIP3   OH245889   2.044   5.238   6.467
15335TIP3    H145890   2.019   5.163   6.519
15335TIP3    H245891   2.058   5.203   6.379
15336TIP3   OH245892   2.548   5.682   6.858
15336TIP3    H145893   2.460   5.718   6.872
15336TIP3    H245894   2.604   5.735   6.915
15337TIP3   OH245895   2.262   6.026   5.962
15337TIP3    H145896   2.185   5.975   5.935
15337TIP3    H245897   2.235   6.069   6.043
15338TIP3   OH245898   3.177   6.241   6.579
15338TIP3    H145899   3.196   6.317   6.523
15338TIP3    H245900   3.093   6.262   6.620
15339TIP3   OH245901   2.728   5.354   5.873
15339TIP3    H145902   2.635   5.335   5.866
15339TIP3    H245903   2.732   5.450   5.880
15340TIP3   OH245904   2.792   5.619   5.938
15340TIP3    H145905   2.888   5.625   5.944
15340TIP3    H245906   2.767   5.696   5.886
15341TIP3   OH245907   1.949   6.039   6.609
15341TIP3    H145908   1.988   6.023   6.523
15341TIP3    H245909   2.018   6.015   6.671
15342TIP3   OH245910   2.417   6.187   5.807
15342TIP3    H145911   2.370   6.271   5.804
15342TIP3    H245912   2.361   6.131   5.860
15343TIP3   OH245913   1.841   5.981   7.245
15343TIP3    H145914   1.849   5.958   7.338
15343TIP3    H245915   1.765   5.930   7.214
15344TIP3   OH245916   2.587   6.116   7.273
15344TIP3    H145917   2.522   6.058   7.232
15344TIP3    H245918   2.671   6.082   7.243
15345TIP3   OH245919   3.194   5.704   5.760
15345TIP3    H145920   3.137   5.659   5.698
15345TIP3    H245921   3.203   5.793   5.725
15346TIP3   OH245922   3.467   6.593   6.843
15346TIP3    H145923   3.376   6.562   6.849
15346TIP3    H245924   3.498   6.557   6.760
15347TIP3   OH245925   2.933   6.545   5.668
15347TIP3    H145926   2.916   6.479   5.735
15347TIP3    H245927   2.960   6.494   5.591
15348TIP3   OH245928   2.893   6.144   6.424
15348TIP3    H145929   2.814   6.127   6.475
15348TIP3    H245930   2.931   6.057   6.409
15349TIP3   OH245931   2.083   6.390   6.275
15349TIP3    H145932   2.086   6.467   6.218
15349TIP3    H245933   1.990   6.380   6.296
15350TIP3   OH245934   1.645   5.673   5.975
15350TIP3    H145935   1.686   5.757   5.995
15350TIP3    H245936   1.563   5.673   6.025
15351TIP3   OH245937   2.161   6.142   6.183
15351TIP3    H145938   2.149   6.233   6.211
15351TIP3    H245939   2.135   6.090   6.258
15352TIP3   OH245940   2.343   6.727   6.707
15352TIP3    H145941   2.390   6.795   6.660
15352TIP3    H245942   2.403   6.699   6.776
15353TIP3   OH245943   1.992   6.613   6.128
15353TIP3    H145944   1.905   6.622   6.167
15353TIP3    H245945   2.029   6.702   6.132
15354TIP3   OH245946   2.712   6.254   5.574
15354TIP3    H145947   2.763   6.222   5.649
15354TIP3    H245948   2.627   6.211   5.582
15355TIP3   OH245949   2.954   6.885   6.747
15355TIP3    H145950   2.872   6.837   6.732
15355TIP3    H245951   2.957   6.950   6.676
15356TIP3   OH245952   3.062   6.694   5.337
15356TIP3    H145953   3.129   6.753   5.303
15356TIP3    H245954   2.985   6.749   5.349
15357TIP3   OH245955   2.054   5.498   7.245
15357TIP3    H145956   1.959   5.507   7.251
15357TIP3    H245957   2.078   5.450   7.325
15358TIP3   OH245958   2.883   6.146   5.761
15358TIP3    H145959   2.871   6.103   5.845
15358TIP3    H245960   2.977   6.165   5.757
15359TIP3   OH245961   1.779   6.605   6.898
15359TIP3    H145962   1.838   6.550   6.949
15359TIP3    H245963   1.787   6.692   6.938
15360TIP3   OH245964   2.061   6.218   5.591
15360TIP3    H145965   2.069   6.126   5.565
15360TIP3    H245966   2.046   6.214   5.686
15361TIP3   OH245967   2.000   6.235   5.864
15361TIP3    H145968   2.069   6.212   5.926
15361TIP3    H245969   1.997   6.331   5.865
15362TIP3   OH245970   1.736   5.924   6.070
15362TIP3    H145971   1.670   5.970   6.122
15362TIP3    H245972   1.755   5.983   5.997
15363TIP3   OH245973   2.957   5.513   6.861
15363TIP3    H145974   2.997   5.592   6.899
15363TIP3    H245975   2.932   5.460   6.937
15364TIP3   OH245976   2.786   5.306   6.140
15364TIP3    H145977   2.765   5.324   6.048
15364TIP3    H245978   2.829   5.386   6.170
15365TIP3   OH245979   2.268   6.413   5.801
15365TIP3    H145980   2.184   6.443   5.836
15365TIP3    H245981   2.298   6.486   5.747
15366TIP3   OH245982   2.439   5.492   6.218
15366TIP3    H145983   2.500   5.561   6.191
15366TIP3    H245984   2.461   5.475   6.309
15367TIP3   OH245985   2.750   5.794   7.029
15367TIP3    H145986   2.757   5.868   7.090
15367TIP3    H245987   2.804   5.725   7.068
15368TIP3   OH245988   2.601   5.192   6.312
15368TIP3    H145989   2.576   5.267   6.366
15368TIP3    H245990   2.670   5.226   6.255
15369TIP3   OH245991   2.019   6.508   5.876
15369TIP3    H145992   2.002   6.579   5.815
15369TIP3    H245993   2.009   6.547   5.963
15370TIP3   OH245994   2.110   5.224   6.143
15370TIP3    H145995   2.103   5.316   6.167
15370TIP3    H245996   2.204   5.207   6.143
15371TIP3   OH245997   3.340   5.709   6.981
15371TIP3    H145998   3.248   5.715   6.953
15371TIP3    H245999   3.390   5.729   6.903
15372TIP3   OH246000   3.002   5.871   6.380
15372TIP3    H146001   2.928   5.816   6.405
15372TIP3    H246002   3.073   5.843   6.439
15373TIP3   OH246003   1.757   6.101   5.855
15373TIP3    H146004   1.828   6.164   5.864
15373TIP3    H246005   1.788   6.039   5.789
15374TIP3   OH246006   1.666   5.396   5.975
15374TIP3    H146007   1.679   5.490   5.989
15374TIP3    H246008   1.626   5.390   5.888
15375TIP3   OH246009   2.993   6.868   6.322
15375TIP3    H146010   2.954   6.918   6.251
15375TIP3    H246011   3.088   6.873   6.305
15376TIP3   OH246012   2.063   5.117   6.854
15376TIP3    H146013   2.034   5.085   6.769
15376TIP3    H246014   2.055   5.042   6.913
15377TIP3   OH246015   1.584   6.369   6.259
15377TIP3    H146016   1.542   6.408   6.335
15377TIP3    H246017   1.541   6.410   6.184
15378TIP3   OH246018   1.809   6.903   7.285
15378TIP3    H146019   1.884   6.916   7.342
15378TIP3    H246020   1.806   6.808   7.271
15379TIP3   OH246021   2.251   6.813   7.358
15379TIP3    H146022   2.343   6.788   7.370
15379TIP3    H246023   2.222   6.760   7.284
15380TIP3   OH246024   2.213   6.422   5.484
15380TIP3    H146025   2.168   6.350   5.526
15380TIP3    H246026   2.289   6.382   5.441
15381TIP3   OH246027   2.855   6.789   7.130
15381TIP3    H146028   2.872   6.707   7.177
15381TIP3    H246029   2.939   6.836   7.135
15382TIP3   OH246030   2.659   6.461   5.400
15382TIP3    H146031   2.697   6.400   5.462
15382TIP3    H246032   2.719   6.460   5.325
15383TIP3   OH246033   1.892   6.306   7.505
15383TIP3    H146034   1.913   6.214   7.516
15383TIP3    H246035   1.804   6.306   7.467
15384TIP3   OH246036   1.874   5.907   5.703
15384TIP3    H146037   1.928   5.885   5.779
15384TIP3    H246038   1.936   5.923   5.633
15385TIP3   OH246039   2.521   6.398   7.300
15385TIP3    H146040   2.479   6.418   7.216
15385TIP3    H246041   2.572   6.319   7.283
15386TIP3   OH246042   2.459   6.132   5.542
15386TIP3    H146043   2.435   6.144   5.634
15386TIP3    H246044   2.435   6.042   5.522
15387TIP3   OH246045   2.007   6.050   7.510
15387TIP3    H146046   2.083   6.042   7.452
15387TIP3    H246047   2.045   6.071   7.595
15388TIP3   OH246048   2.051   5.853   5.912
15388TIP3    H146049   2.031   5.822   6.001
15388TIP3    H246050   2.102   5.782   5.873
15389TIP3   OH246051   2.374   5.930   7.162
15389TIP3    H146052   2.292   5.978   7.174
15389TIP3    H246053   2.407   5.961   7.077
15390TIP3   OH246054   2.197   5.666   5.766
15390TIP3    H146055   2.166   5.673   5.676
15390TIP3    H246056   2.292   5.678   5.760
15391TIP3   OH246057   2.866   6.316   7.284
15391TIP3    H146058   2.920   6.285   7.212
15391TIP3    H246059   2.875   6.249   7.352
15392TIP3   OH246060   2.988   5.951   5.446
15392TIP3    H146061   2.977   5.913   5.359
15392TIP3    H246062   2.965   6.044   5.435
15393TIP3   OH246063   2.479   5.707   7.282
15393TIP3    H146064   2.483   5.636   7.218
15393TIP3    H246065   2.446   5.782   7.233
15394TIP3   OH246066   2.483   5.508   7.077
15394TIP3    H146067   2.508   5.552   6.996
15394TIP3    H246068   2.392   5.482   7.063
15395TIP3   OH246069   2.493   6.018   6.932
15395TIP3    H146070   2.579   6.024   6.891
15395TIP3    H246071   2.442   6.088   6.891
15396TIP3   OH246072   3.090   6.003   7.324
15396TIP3    H146073   3.154   5.932   7.327
15396TIP3    H246074   3.143   6.083   7.318
15397TIP3   OH246075   3.082   6.274   7.068
15397TIP3    H146076   3.024   6.304   6.999
15397TIP3    H246077   3.170   6.292   7.035
15398TIP3   OH246078   2.358   5.786   7.522
15398TIP3    H146079   2.289   5.722   7.540
15398TIP3    H246080   2.389   5.764   7.434
15399TIP3   OH246081   2.615   5.280   7.162
15399TIP3    H146082   2.570   5.360   7.137
15399TIP3    H246083   2.548   5.211   7.156
15400TIP3   OH246084   2.745   5.746   7.373
15400TIP3    H146085   2.749   5.736   7.468
15400TIP3    H246086   2.654   5.727   7.350
15401TIP3   OH246087   2.973   5.695   7.211
15401TIP3    H146088   2.901   5.703   7.275
15401TIP3    H246089   3.051   5.682   7.265
15402TIP3   OH246090   3.201   5.669   7.383
15402TIP3    H146091   3.216   5.575   7.394
15402TIP3    H246092   3.195   5.702   7.472
15403TIP3   OH246093   2.189   5.567   7.584
15403TIP3    H146094   2.196   5.479   7.549
15403TIP3    H246095   2.229   5.562   7.671
15404TIP3   OH246096   2.669   5.252   7.433
15404TIP3    H146097   2.739   5.186   7.429
15404TIP3    H246098   2.645   5.267   7.341
15405TIP3   OH246099   2.765   5.461   7.587
15405TIP3    H146100   2.734   5.391   7.529
15405TIP3    H246101   2.694   5.525   7.589
15406TIP3   OH246102   2.018   6.717   5.695
15406TIP3    H146103   2.109   6.697   5.672
15406TIP3    H246104   1.982   6.761   5.618
15407TIP3   OH246105   1.484   6.086   5.876
15407TIP3    H146106   1.578   6.098   5.867
15407TIP3    H246107   1.467   5.998   5.844
15408TIP3   OH246108   1.374   6.689   6.339
15408TIP3    H146109   1.315   6.631   6.291
15408TIP3    H246110   1.419   6.632   6.401
15409TIP3   OH246111   1.524   6.520   6.508
15409TIP3    H146112   1.522   6.451   6.574
15409TIP3    H246113   1.576   6.590   6.548
15410TIP3   OH246114   3.268   6.914   6.305
15410TIP3    H146115   3.291   6.936   6.395
15410TIP3    H246116   3.331   6.962   6.252
15411TIP3   OH246117   3.282   6.942   6.587
15411TIP3    H146118   3.236   6.858   6.587
15411TIP3    H246119   3.353   6.930   6.650
15412TIP3   OH246120   3.355   6.645   7.183
15412TIP3    H146121   3.281   6.660   7.241
15412TIP3    H246122   3.398   6.730   7.177
15413TIP3   OH246123   3.165   6.165   5.771
15413TIP3    H146124   3.219   6.239   5.742
15413TIP3    H246125   3.212   6.130   5.846
15414TIP3   OH246126   3.299   6.023   5.972
15414TIP3    H146127   3.232   5.996   6.034
15414TIP3    H246128   3.366   6.065   6.025
15415TIP3   OH246129   3.343   6.424   6.422
15415TIP3    H146130   3.390   6.352   6.380
15415TIP3    H246131   3.341   6.494   6.356
15416TIP3   OH246132   3.144   6.701   6.617
15416TIP3    H146133   3.071   6.741   6.664
15416TIP3    H246134   3.103   6.657   6.542
15417TIP3   OH246135   3.199   5.940   5.619
15417TIP3    H146136   3.127   5.940   5.557
15417TIP3    H246137   3.186   6.019   5.671
15418TIP3   OH246138   3.042   5.583   5.566
15418TIP3    H146139   2.999   5.622   5.491
15418TIP3    H246140   3.047   5.489   5.545
15419TIP3   OH246141   3.089   5.894   6.116
15419TIP3    H146142   3.098   5.800   6.101
15419TIP3    H246143   3.064   5.902   6.208
15420TIP3   OH246144   1.710   5.946   6.884
15420TIP3    H146145   1.700   5.916   6.794
15420TIP3    H246146   1.804   5.942   6.901
15421TIP3   OH246147   3.338   6.298   6.958
15421TIP3    H146148   3.409   6.244   6.923
15421TIP3    H246149   3.314   6.356   6.886
15422TIP3   OH246150   3.535   6.089   6.950
15422TIP3    H146151   3.469   6.058   7.012
15422TIP3    H246152   3.614   6.039   6.971
15423TIP3   OH246153   3.042   5.307   5.522
15423TIP3    H146154   3.112   5.278   5.582
15423TIP3    H246155   2.962   5.271   5.560
15424TIP3   OH246156   3.078   5.611   6.000
15424TIP3    H146157   3.129   5.531   6.014
15424TIP3    H246158   3.118   5.653   5.924
15425TIP3   OH246159   3.218   5.767   6.536
15425TIP3    H146160   3.295   5.783   6.481
15425TIP3    H246161   3.234   5.818   6.615
15426TIP3   OH246162   3.287   5.935   6.750
15426TIP3    H146163   3.214   5.978   6.795
15426TIP3    H246164   3.330   6.006   6.701
15427TIP3   OH246165   1.926   5.622   7.518
15427TIP3    H146166   2.019   5.622   7.539
15427TIP3    H246167   1.892   5.542   7.559
15428TIP3   OH246168   3.752   5.518   7.278
15428TIP3    H146169   3.828   5.466   7.250
15428TIP3    H246170   3.726   5.567   7.200
15429TIP3   OH246171   3.202   5.365   6.061
15429TIP3    H146172   3.253   5.340   6.138
15429TIP3    H246173   3.140   5.293   6.049
15430TIP3   OH246174   1.905   5.346   6.880
15430TIP3    H146175   1.958   5.266   6.883
15430TIP3    H246176   1.967   5.416   6.860
15431TIP3   OH246177   1.683   5.610   6.930
15431TIP3    H146178   1.737   5.604   6.851
15431TIP3    H246179   1.710   5.692   6.971
15432TIP3   OH246180   3.610   5.649   7.085
15432TIP3    H146181   3.548   5.689   7.146
15432TIP3    H246182   3.556   5.592   7.030
15433TIP3   OH246183   3.277   5.258   5.673
15433TIP3    H146184   3.360   5.209   5.670
15433TIP3    H246185   3.304   5.350   5.676
15434TIP3   OH246186   1.667   5.111   6.425
15434TIP3    H146187   1.582   5.105   6.469
15434TIP3    H246188   1.651   5.170   6.351
15435TIP3   OH246189   2.841   6.828   5.946
15435TIP3    H146190   2.876   6.833   5.857
15435TIP3    H246191   2.879   6.903   5.991
15436TIP3   OH246192   1.891   5.158   7.254
15436TIP3    H146193   1.842   5.155   7.336
15436TIP3    H246194   1.838   5.212   7.196
15437TIP3   OH246195   1.917   6.633   7.317
15437TIP3    H146196   1.826   6.604   7.322
15437TIP3    H246197   1.948   6.629   7.408
15438TIP3   OH246198   2.131   6.676   6.878
15438TIP3    H146199   2.079   6.751   6.851
15438TIP3    H246200   2.214   6.685   6.831
15439TIP3   OH246201   2.536   6.925   7.028
15439TIP3    H146202   2.572   6.913   7.116
15439TIP3    H246203   2.607   6.965   6.978
15440TIP3   OH246204   2.739   7.057   6.892
15440TIP3    H146205   2.805   6.995   6.861
15440TIP3    H246206   2.788   7.119   6.946
15441TIP3   OH246207   3.522   5.365   6.987
15441TIP3    H146208   3.435   5.333   6.962
15441TIP3    H246209   3.579   5.288   6.980
15442TIP3   OH246210   1.774   6.916   6.922
15442TIP3    H146211   1.684   6.948   6.909
15442TIP3    H246212   1.811   6.975   6.987
15443TIP3   OH246213   2.014   6.907   6.781
15443TIP3    H146214   1.928   6.911   6.823
15443TIP3    H246215   1.997   6.925   6.689
15444TIP3   OH246216   2.455   6.929   6.558
15444TIP3    H146217   2.381   6.946   6.500
15444TIP3    H246218   2.469   7.011   6.604
15445TIP3   OH246219   2.717   6.840   6.607
15445TIP3    H146220   2.624   6.860   6.593
15445TIP3    H246221   2.764   6.909   6.560
15446TIP3   OH246222   2.921   7.042   6.521
15446TIP3    H146223   2.912   7.127   6.478
15446TIP3    H246224   2.947   6.982   6.451
15447TIP3   OH246225   1.700   6.700   6.649
15447TIP3    H146226   1.730   6.676   6.736
15447TIP3    H246227   1.767   6.667   6.590
15448TIP3   OH246228   1.896   6.574   6.507
15448TIP3    H146229   1.908   6.489   6.549
15448TIP3    H246230   1.983   6.614   6.506
15449TIP3   OH246231   2.161   6.656   6.518
15449TIP3    H146232   2.183   6.564   6.507
15449TIP3    H246233   2.217   6.687   6.588
15450TIP3   OH246234   2.813   5.345   6.629
15450TIP3    H146235   2.741   5.295   6.667
15450TIP3    H246236   2.851   5.286   6.564
15451TIP3   OH246237   3.227   5.274   6.535
15451TIP3    H146238   3.280   5.284   6.455
15451TIP3    H246239   3.144   5.237   6.505
15452TIP3   OH246240   3.355   5.286   6.288
15452TIP3    H146241   3.423   5.227   6.254
15452TIP3    H246242   3.391   5.374   6.278
15453TIP3   OH246243   1.977   5.010   6.613
15453TIP3    H146244   1.888   4.976   6.622
15453TIP3    H246245   2.032   4.932   6.607
15454TIP3   OH246246   1.789   4.918   6.265
15454TIP3    H146247   1.817   4.972   6.191
15454TIP3    H246248   1.751   4.980   6.328
15455TIP3   OH246249   2.463   5.047   6.514
15455TIP3    H146250   2.511   5.097   6.448
15455TIP3    H246251   2.500   5.076   6.598
15456TIP3   OH246252   2.968   5.184   6.467
15456TIP3    H146253   2.974   5.145   6.380
15456TIP3    H246254   2.966   5.110   6.527
15457TIP3   OH246255   3.012   5.162   6.053
15457TIP3    H146256   2.929   5.204   6.076
15457TIP3    H246257   3.004   5.073   6.089
15458TIP3   OH246258   1.469   6.488   6.043
15458TIP3    H146259   1.389   6.451   6.005
15458TIP3    H246260   1.478   6.574   6.001
15459TIP3   OH246261   1.892   5.069   6.050
15459TIP3    H146262   1.936   5.008   5.991
15459TIP3    H246263   1.961   5.126   6.084
15460TIP3   OH246264   2.388   5.238   6.131
15460TIP3    H146265   2.451   5.194   6.188
15460TIP3    H246266   2.398   5.331   6.151
15461TIP3   OH246267   2.275   6.643   5.632
15461TIP3    H146268   2.358   6.670   5.594
15461TIP3    H246269   2.243   6.573   5.574
15462TIP3   OH246270   2.955   6.820   5.686
15462TIP3    H146271   2.946   6.725   5.676
15462TIP3    H246272   2.919   6.856   5.606
15463TIP3   OH246273   2.204   5.297   7.492
15463TIP3    H146274   2.170   5.231   7.553
15463TIP3    H246275   2.297   5.306   7.515
15464TIP3   OH246276   2.452   5.302   7.611
15464TIP3    H146277   2.530   5.281   7.559
15464TIP3    H246278   2.450   5.234   7.679
15465TIP3   OH246279   1.579   6.477   5.674
15465TIP3    H146280   1.588   6.499   5.767
15465TIP3    H246281   1.660   6.431   5.653
15466TIP3   OH246282   3.269   5.397   7.404
15466TIP3    H146283   3.285   5.370   7.494
15466TIP3    H246284   3.354   5.392   7.361
15467TIP3   OH246285   3.179   6.921   6.915
15467TIP3    H146286   3.102   6.893   6.864
15467TIP3    H246287   3.171   7.016   6.920
15468TIP3   OH246288   4.475   6.308   5.643
15468TIP3    H146289   4.445   6.397   5.621
15468TIP3    H246290   4.399   6.253   5.627
15469TIP3   OH246291   4.473   6.302   6.073
15469TIP3    H146292   4.523   6.291   6.154
15469TIP3    H246293   4.426   6.220   6.063
15470TIP3   OH246294   3.769   6.169   6.423
15470TIP3    H146295   3.806   6.117   6.495
15470TIP3    H246296   3.845   6.205   6.378
15471TIP3   OH246297   4.735   6.615   5.745
15471TIP3    H146298   4.727   6.549   5.814
15471TIP3    H246299   4.760   6.695   5.792
15472TIP3   OH246300   3.709   6.583   6.146
15472TIP3    H146301   3.709   6.489   6.128
15472TIP3    H246302   3.778   6.595   6.211
15473TIP3   OH246303   3.437   5.788   5.899
15473TIP3    H146304   3.406   5.875   5.923
15473TIP3    H246305   3.364   5.748   5.853
15474TIP3   OH246306   3.528   6.111   6.105
15474TIP3    H146307   3.576   6.035   6.137
15474TIP3    H246308   3.596   6.177   6.087
15475TIP3   OH246309   4.389   7.046   5.759
15475TIP3    H146310   4.419   6.977   5.700
15475TIP3    H246311   4.384   7.004   5.845
15476TIP3   OH246312   4.288   6.525   6.082
15476TIP3    H146313   4.335   6.446   6.057
15476TIP3    H246314   4.354   6.583   6.119
15477TIP3   OH246315   5.312   5.841   6.099
15477TIP3    H146316   5.328   5.925   6.142
15477TIP3    H246317   5.349   5.851   6.012
15478TIP3   OH246318   4.681   6.013   6.114
15478TIP3    H146319   4.709   5.927   6.144
15478TIP3    H246320   4.639   5.997   6.030
15479TIP3   OH246321   4.034   5.670   6.079
15479TIP3    H146322   4.014   5.743   6.021
15479TIP3    H246323   3.976   5.600   6.050
15480TIP3   OH246324   4.746   5.791   5.730
15480TIP3    H146325   4.812   5.777   5.798
15480TIP3    H246326   4.796   5.819   5.653
15481TIP3   OH246327   3.653   5.887   6.211
15481TIP3    H146328   3.737   5.876   6.255
15481TIP3    H246329   3.661   5.836   6.130
15482TIP3   OH246330   4.084   6.087   6.011
15482TIP3    H146331   4.178   6.072   6.022
15482TIP3    H246332   4.050   6.003   5.979
15483TIP3   OH246333   5.363   6.062   6.261
15483TIP3    H146334   5.280   6.109   6.254
15483TIP3    H246335   5.405   6.101   6.338
15484TIP3   OH246336   4.022   5.676   6.524
15484TIP3    H146337   3.970   5.717   6.455
15484TIP3    H246338   3.972   5.692   6.604
15485TIP3   OH246339   4.369   6.529   5.510
15485TIP3    H146340   4.329   6.500   5.428
15485TIP3    H246341   4.318   6.604   5.537
15486TIP3   OH246342   4.105   6.456   6.282
15486TIP3    H146343   4.042   6.524   6.306
15486TIP3    H246344   4.160   6.496   6.215
15487TIP3   OH246345   4.913   5.778   5.948
15487TIP3    H146346   4.854   5.770   6.023
15487TIP3    H246347   4.961   5.859   5.964
15488TIP3   OH246348   3.905   5.787   6.297
15488TIP3    H146349   3.959   5.863   6.320
15488TIP3    H246350   3.953   5.744   6.226
15489TIP3   OH246351   3.898   6.634   6.342
15489TIP3    H146352   3.914   6.728   6.334
15489TIP3    H246353   3.852   6.624   6.425
15490TIP3   OH246354   3.332   6.359   5.656
15490TIP3    H146355   3.300   6.377   5.568
15490TIP3    H246356   3.354   6.445   5.692
15491TIP3   OH246357   4.776   6.861   5.884
15491TIP3    H146358   4.690   6.850   5.925
15491TIP3    H246359   4.771   6.946   5.841
15492TIP3   OH246360   5.110   5.716   6.251
15492TIP3    H146361   5.031   5.764   6.228
15492TIP3    H246362   5.178   5.750   6.193
15493TIP3   OH246363   4.356   5.366   6.259
15493TIP3    H146364   4.352   5.275   6.288
15493TIP3    H246365   4.279   5.407   6.299
15494TIP3   OH246366   4.483   6.889   5.548
15494TIP3    H146367   4.536   6.810   5.535
15494TIP3    H246368   4.540   6.961   5.519
15495TIP3   OH246369   4.620   6.656   5.498
15495TIP3    H146370   4.544   6.598   5.501
15495TIP3    H246371   4.669   6.636   5.577
15496TIP3   OH246372   4.999   6.754   6.233
15496TIP3    H146373   4.986   6.678   6.176
15496TIP3    H246374   4.986   6.829   6.175
15497TIP3   OH246375   4.296   6.145   5.499
15497TIP3    H146376   4.212   6.189   5.487
15497TIP3    H246377   4.344   6.163   5.418
15498TIP3   OH246378   4.260   5.962   5.197
15498TIP3    H146379   4.326   5.998   5.257
15498TIP3    H246380   4.308   5.897   5.145
15499TIP3   OH246381   5.187   6.402   6.102
15499TIP3    H146382   5.104   6.451   6.101
15499TIP3    H246383   5.226   6.419   6.017
15500TIP3   OH246384   4.659   6.224   5.460
15500TIP3    H146385   4.603   6.259   5.530
15500TIP3    H246386   4.743   6.208   5.502
15501TIP3   OH246387   4.886   6.266   6.414
15501TIP3    H146388   4.885   6.352   6.457
15501TIP3    H246389   4.805   6.263   6.365
15502TIP3   OH246390   3.885   6.221   5.865
15502TIP3    H146391   3.850   6.159   5.801
15502TIP3    H246392   3.959   6.176   5.905
15503TIP3   OH246393   4.056   6.669   5.987
15503TIP3    H146394   4.030   6.635   5.901
15503TIP3    H246395   4.135   6.619   6.009
15504TIP3   OH246396   3.984   6.217   6.237
15504TIP3    H146397   4.023   6.182   6.157
15504TIP3    H246398   4.029   6.300   6.252
15505TIP3   OH246399   4.544   6.844   6.023
15505TIP3    H146400   4.525   6.928   6.064
15505TIP3    H246401   4.521   6.779   6.089
15506TIP3   OH246402   4.508   6.056   5.302
15506TIP3    H146403   4.562   6.117   5.352
15506TIP3    H246404   4.529   6.074   5.211
15507TIP3   OH246405   3.915   6.292   6.706
15507TIP3    H146406   3.921   6.386   6.725
15507TIP3    H246407   3.821   6.275   6.701
15508TIP3   OH246408   4.236   6.768   5.546
15508TIP3    H146409   4.317   6.818   5.556
15508TIP3    H246410   4.175   6.830   5.505
15509TIP3   OH246411   4.915   5.396   5.307
15509TIP3    H146412   4.984   5.333   5.328
15509TIP3    H246413   4.957   5.459   5.248
15510TIP3   OH246414   3.756   6.062   5.665
15510TIP3    H146415   3.681   6.114   5.638
15510TIP3    H246416   3.719   5.977   5.689
15511TIP3   OH246417   4.813   6.695   4.914
15511TIP3    H146418   4.810   6.788   4.893
15511TIP3    H246419   4.905   6.671   4.900
15512TIP3   OH246420   3.540   6.466   6.615
15512TIP3    H146421   3.469   6.450   6.553
15512TIP3    H246422   3.575   6.380   6.635
15513TIP3   OH246423   3.402   6.639   6.240
15513TIP3    H146424   3.497   6.640   6.228
15513TIP3    H246425   3.383   6.721   6.286
15514TIP3   OH246426   5.231   7.100   6.309
15514TIP3    H146427   5.236   7.006   6.325
15514TIP3    H246428   5.153   7.128   6.357
15515TIP3   OH246429   4.125   6.995   5.381
15515TIP3    H146430   4.076   6.976   5.302
15515TIP3    H246431   4.088   7.078   5.413
15516TIP3   OH246432   3.561   6.847   5.766
15516TIP3    H146433   3.610   6.834   5.847
15516TIP3    H246434   3.512   6.765   5.754
15517TIP3   OH246435   4.329   6.927   5.009
15517TIP3    H146436   4.380   6.852   4.977
15517TIP3    H246437   4.362   6.941   5.098
15518TIP3   OH246438   4.378   6.976   5.278
15518TIP3    H146439   4.292   6.976   5.320
15518TIP3    H246440   4.438   6.945   5.345
15519TIP3   OH246441   5.126   6.233   6.584
15519TIP3    H146442   5.044   6.241   6.536
15519TIP3    H246443   5.146   6.139   6.582
15520TIP3   OH246444   3.750   6.638   6.570
15520TIP3    H146445   3.802   6.630   6.650
15520TIP3    H246446   3.673   6.583   6.585
15521TIP3   OH246447   4.119   5.456   6.384
15521TIP3    H146448   4.034   5.426   6.352
15521TIP3    H246449   4.100   5.539   6.428
15522TIP3   OH246450   4.675   5.577   6.590
15522TIP3    H146451   4.748   5.554   6.648
15522TIP3    H246452   4.597   5.564   6.644
15523TIP3   OH246453   4.882   5.996   6.491
15523TIP3    H146454   4.846   5.990   6.580
15523TIP3    H246455   4.872   6.088   6.467
15524TIP3   OH246456   4.556   6.071   5.027
15524TIP3    H146457   4.515   6.081   4.941
15524TIP3    H246458   4.636   6.122   5.021
15525TIP3   OH246459   4.329   5.450   5.334
15525TIP3    H146460   4.292   5.480   5.417
15525TIP3    H246461   4.271   5.381   5.305
15526TIP3   OH246462   4.058   5.997   6.388
15526TIP3    H146463   4.016   6.006   6.474
15526TIP3    H246464   4.037   6.077   6.341
15527TIP3   OH246465   3.942   5.867   5.912
15527TIP3    H146466   3.852   5.848   5.939
15527TIP3    H246467   3.949   5.831   5.824
15528TIP3   OH246468   4.426   5.939   5.627
15528TIP3    H146469   4.378   6.013   5.590
15528TIP3    H246470   4.487   5.913   5.558
15529TIP3   OH246471   4.612   6.210   6.710
15529TIP3    H146472   4.586   6.144   6.774
15529TIP3    H246473   4.704   6.228   6.730
15530TIP3   OH246474   4.575   5.961   5.869
15530TIP3    H146475   4.512   5.984   5.801
15530TIP3    H246476   4.632   5.896   5.827
15531TIP3   OH246477   3.903   6.007   6.617
15531TIP3    H146478   3.918   6.077   6.681
15531TIP3    H246479   3.892   5.929   6.671
15532TIP3   OH246480   3.951   5.478   5.319
15532TIP3    H146481   3.947   5.481   5.415
15532TIP3    H246482   3.874   5.526   5.290
15533TIP3   OH246483   3.477   5.513   6.212
15533TIP3    H146484   3.545   5.558   6.263
15533TIP3    H246485   3.509   5.517   6.122
15534TIP3   OH246486   3.384   5.513   5.697
15534TIP3    H146487   3.431   5.552   5.624
15534TIP3    H246488   3.319   5.579   5.721
15535TIP3   OH246489   4.637   6.215   6.291
15535TIP3    H146490   4.659   6.146   6.227
15535TIP3    H246491   4.589   6.169   6.360
15536TIP3   OH246492   4.296   5.661   5.963
15536TIP3    H146493   4.220   5.664   6.021
15536TIP3    H246494   4.371   5.654   6.021
15537TIP3   OH246495   3.700   5.747   5.977
15537TIP3    H146496   3.612   5.750   5.940
15537TIP3    H246497   3.729   5.657   5.964
15538TIP3   OH246498   3.959   5.736   5.671
15538TIP3    H146499   4.053   5.752   5.662
15538TIP3    H246500   3.923   5.759   5.585
15539TIP3   OH246501   4.737   5.746   6.159
15539TIP3    H146502   4.727   5.758   6.254
15539TIP3    H246503   4.666   5.686   6.135
15540TIP3   OH246504   3.853   5.769   5.422
15540TIP3    H146505   3.789   5.723   5.368
15540TIP3    H246506   3.903   5.821   5.360
15541TIP3   OH246507   4.952   7.455   6.397
15541TIP3    H146508   4.949   7.468   6.302
15541TIP3    H246509   5.032   7.499   6.425
15542TIP3   OH246510   3.893   6.551   6.810
15542TIP3    H146511   3.974   6.582   6.852
15542TIP3    H246512   3.825   6.567   6.876
15543TIP3   OH246513   4.353   6.032   6.071
15543TIP3    H146514   4.425   5.988   6.025
15543TIP3    H246515   4.353   5.993   6.158
15544TIP3   OH246516   3.840   5.497   5.966
15544TIP3    H146517   3.810   5.421   6.016
15544TIP3    H246518   3.868   5.460   5.882
15545TIP3   OH246519   4.328   5.939   6.337
15545TIP3    H146520   4.241   5.974   6.359
15545TIP3    H246521   4.388   5.992   6.390
15546TIP3   OH246522   4.062   6.283   5.449
15546TIP3    H146523   3.986   6.232   5.422
15546TIP3    H246524   4.034   6.329   5.528
15547TIP3   OH246525   4.955   6.547   6.055
15547TIP3    H146526   4.993   6.595   5.981
15547TIP3    H246527   4.875   6.508   6.019
15548TIP3   OH246528   4.598   5.512   5.315
15548TIP3    H146529   4.504   5.492   5.318
15548TIP3    H246530   4.603   5.607   5.327
15549TIP3   OH246531   4.458   6.596   6.479
15549TIP3    H146532   4.522   6.603   6.550
15549TIP3    H246533   4.410   6.678   6.482
15550TIP3   OH246534   4.597   5.810   5.415
15550TIP3    H146535   4.688   5.828   5.436
15550TIP3    H246536   4.568   5.885   5.364
15551TIP3   OH246537   3.746   6.290   6.097
15551TIP3    H146538   3.786   6.282   6.010
15551TIP3    H246539   3.816   6.267   6.158
15552TIP3   OH246540   4.212   6.446   5.290
15552TIP3    H146541   4.165   6.530   5.287
15552TIP3    H246542   4.157   6.390   5.344
15553TIP3   OH246543   3.643   6.230   6.730
15553TIP3    H146544   3.642   6.211   6.824
15553TIP3    H246545   3.573   6.178   6.693
15554TIP3   OH246546   4.379   6.366   6.750
15554TIP3    H146547   4.310   6.307   6.719
15554TIP3    H246548   4.460   6.326   6.720
15555TIP3   OH246549   4.608   6.925   6.381
15555TIP3    H146550   4.516   6.899   6.390
15555TIP3    H246551   4.629   6.970   6.463
15556TIP3   OH246552   4.993   5.950   5.242
15556TIP3    H146553   4.936   5.905   5.180
15556TIP3    H246554   5.001   6.039   5.209
15557TIP3   OH246555   5.247   6.817   6.328
15557TIP3    H146556   5.152   6.807   6.317
15557TIP3    H246557   5.284   6.796   6.242
15558TIP3   OH246558   4.737   6.781   5.178
15558TIP3    H146559   4.713   6.716   5.244
15558TIP3    H246560   4.755   6.729   5.099
15559TIP3   OH246561   4.727   6.415   5.948
15559TIP3    H146562   4.638   6.395   5.979
15559TIP3    H246563   4.759   6.332   5.912
15560TIP3   OH246564   3.870   6.648   5.758
15560TIP3    H146565   3.861   6.721   5.698
15560TIP3    H246566   3.808   6.666   5.829
15561TIP3   OH246567   3.437   5.936   5.478
15561TIP3    H146568   3.478   6.020   5.500
15561TIP3    H246569   3.355   5.936   5.529
15562TIP3   OH246570   3.951   6.404   5.663
15562TIP3    H146571   3.930   6.493   5.692
15562TIP3    H246572   3.930   6.348   5.738
15563TIP3   OH246573   4.160   6.974   6.247
15563TIP3    H146574   4.214   7.041   6.203
15563TIP3    H246575   4.215   6.943   6.319
15564TIP3   OH246576   3.788   6.871   5.609
15564TIP3    H146577   3.703   6.878   5.653
15564TIP3    H246578   3.827   6.958   5.619
15565TIP3   OH246579   4.513   6.634   6.209
15565TIP3    H146580   4.485   6.623   6.300
15565TIP3    H246581   4.605   6.608   6.209
15566TIP3   OH246582   4.506   6.507   5.067
15566TIP3    H146583   4.560   6.473   5.138
15566TIP3    H246584   4.419   6.468   5.082
15567TIP3   OH246585   4.758   7.129   6.243
15567TIP3    H146586   4.690   7.064   6.261
15567TIP3    H246587   4.725   7.179   6.169
15568TIP3   OH246588   4.808   6.969   4.871
15568TIP3    H146589   4.828   7.029   4.799
15568TIP3    H246590   4.736   7.012   4.918
15569TIP3   OH246591   3.871   5.739   6.749
15569TIP3    H146592   3.777   5.735   6.765
15569TIP3    H246593   3.910   5.691   6.822
15570TIP3   OH246594   4.688   6.397   5.242
15570TIP3    H146595   4.673   6.347   5.322
15570TIP3    H246596   4.782   6.416   5.242
15571TIP3   OH246597   3.588   6.871   6.379
15571TIP3    H146598   3.647   6.811   6.424
15571TIP3    H246599   3.609   6.957   6.416
15572TIP3   OH246600   3.860   6.475   5.080
15572TIP3    H146601   3.870   6.383   5.054
15572TIP3    H246602   3.845   6.472   5.174
15573TIP3   OH246603   3.798   6.491   5.352
15573TIP3    H146604   3.850   6.467   5.428
15573TIP3    H246605   3.796   6.587   5.354
15574TIP3   OH246606   3.531   6.186   5.561
15574TIP3    H146607   3.467   6.234   5.614
15574TIP3    H246608   3.549   6.244   5.487
15575TIP3   OH246609   4.702   5.796   6.424
15575TIP3    H146610   4.774   5.851   6.456
15575TIP3    H246611   4.696   5.725   6.488
15576TIP3   OH246612   4.559   5.611   5.640
15576TIP3    H146613   4.531   5.663   5.565
15576TIP3    H246614   4.618   5.669   5.688
15577TIP3   OH246615   4.067   6.675   5.281
15577TIP3    H146616   3.983   6.697   5.321
15577TIP3    H246617   4.091   6.752   5.230
15578TIP3   OH246618   4.237   5.752   5.703
15578TIP3    H146619   4.299   5.820   5.679
15578TIP3    H246620   4.256   5.733   5.795
15579TIP3   OH246621   4.534   6.049   6.490
15579TIP3    H146622   4.557   6.101   6.567
15579TIP3    H246623   4.586   5.969   6.498
15580TIP3   OH246624   4.388   5.458   5.799
15580TIP3    H146625   4.355   5.528   5.856
15580TIP3    H246626   4.457   5.500   5.748
15581TIP3   OH246627   3.818   6.763   5.360
15581TIP3    H146628   3.798   6.835   5.299
15581TIP3    H246629   3.805   6.802   5.447
15582TIP3   OH246630   3.927   5.466   5.597
15582TIP3    H146631   3.914   5.555   5.630
15582TIP3    H246632   4.022   5.453   5.600
15583TIP3   OH246633   5.153   5.968   6.488
15583TIP3    H146634   5.058   5.960   6.491
15583TIP3    H246635   5.177   5.947   6.398
15584TIP3   OH246636   4.817   6.153   5.867
15584TIP3    H146637   4.738   6.105   5.892
15584TIP3    H246638   4.886   6.115   5.922
15585TIP3   OH246639   3.553   6.358   5.341
15585TIP3    H146640   3.623   6.424   5.350
15585TIP3    H246641   3.588   6.296   5.276
15586TIP3   OH246642   3.469   5.661   5.485
15586TIP3    H146643   3.473   5.756   5.490
15586TIP3    H246644   3.441   5.643   5.395
15587TIP3   OH246645   4.797   7.130   5.806
15587TIP3    H146646   4.756   7.181   5.736
15587TIP3    H246647   4.891   7.140   5.791
15588TIP3   OH246648   3.855   5.375   6.341
15588TIP3    H146649   3.825   5.342   6.256
15588TIP3    H246650   3.847   5.300   6.400
15589TIP3   OH246651   3.379   6.626   5.742
15589TIP3    H146652   3.345   6.663   5.823
15589TIP3    H246653   3.334   6.675   5.673
15590TIP3   OH246654   3.592   7.174   6.806
15590TIP3    H146655   3.673   7.183   6.856
15590TIP3    H246656   3.580   7.079   6.798
15591TIP3   OH246657   4.040   7.085   6.807
15591TIP3    H146658   4.128   7.053   6.826
15591TIP3    H246659   4.017   7.043   6.724
15592TIP3   OH246660   4.012   6.675   4.963
15592TIP3    H146661   3.966   6.606   5.011
15592TIP3    H246662   4.087   6.631   4.924
15593TIP3   OH246663   4.654   7.049   6.626
15593TIP3    H146664   4.663   6.973   6.683
15593TIP3    H246665   4.735   7.099   6.639
15594TIP3   OH246666   4.457   6.714   4.892
15594TIP3    H146667   4.490   6.650   4.956
15594TIP3    H246668   4.518   6.708   4.819
15595TIP3   OH246669   3.690   6.558   7.003
15595TIP3    H146670   3.698   6.463   7.012
15595TIP3    H246671   3.606   6.571   6.958
15596TIP3   OH246672   3.681   6.171   5.190
15596TIP3    H146673   3.732   6.149   5.268
15596TIP3    H246674   3.747   6.185   5.121
15597TIP3   OH246675   4.287   6.649   6.751
15597TIP3    H146676   4.289   6.696   6.668
15597TIP3    H246677   4.329   6.565   6.731
15598TIP3   OH246678   4.242   6.392   5.023
15598TIP3    H146679   4.220   6.405   5.115
15598TIP3    H246680   4.222   6.300   5.006
15599TIP3   OH246681   4.772   6.693   6.380
15599TIP3    H146682   4.850   6.723   6.334
15599TIP3    H246683   4.713   6.768   6.381
15600TIP3   OH246684   3.806   6.290   7.002
15600TIP3    H146685   3.878   6.301   6.940
15600TIP3    H246686   3.841   6.322   7.086
15601TIP3   OH246687   3.849   6.112   5.402
15601TIP3    H146688   3.828   6.084   5.491
15601TIP3    H246689   3.897   6.038   5.364
15602TIP3   OH246690   4.173   6.189   6.647
15602TIP3    H146691   4.089   6.233   6.662
15602TIP3    H246692   4.205   6.226   6.565
15603TIP3   OH246693   3.990   5.928   5.248
15603TIP3    H146694   3.960   5.932   5.157
15603TIP3    H246695   4.085   5.940   5.242
15604TIP3   OH246696   4.667   6.573   6.737
15604TIP3    H146697   4.735   6.533   6.682
15604TIP3    H246698   4.662   6.517   6.814
15605TIP3   OH246699   4.782   6.198   4.932
15605TIP3    H146700   4.770   6.166   4.842
15605TIP3    H246701   4.760   6.291   4.927
15606TIP3   OH246702   4.270   5.960   6.765
15606TIP3    H146703   4.277   5.890   6.700
15606TIP3    H246704   4.239   6.036   6.715
15607TIP3   OH246705   4.283   5.761   6.560
15607TIP3    H146706   4.310   5.803   6.479
15607TIP3    H246707   4.192   5.735   6.545
15608TIP3   OH246708   4.287   6.312   6.432
15608TIP3    H146709   4.364   6.367   6.439
15608TIP3    H246710   4.225   6.363   6.380
15609TIP3   OH246711   4.878   6.252   6.810
15609TIP3    H146712   4.931   6.172   6.817
15609TIP3    H246713   4.943   6.322   6.803
15610TIP3   OH246714   4.907   6.517   6.542
15610TIP3    H146715   4.852   6.577   6.492
15610TIP3    H246716   4.996   6.534   6.511
15611TIP3   OH246717   4.155   6.041   7.007
15611TIP3    H146718   4.085   5.979   7.025
15611TIP3    H246719   4.185   6.019   6.919
15612TIP3   OH246720   4.402   5.530   6.668
15612TIP3    H146721   4.365   5.611   6.633
15612TIP3    H246722   4.334   5.464   6.654
15613TIP3   OH246723   4.529   6.000   6.867
15613TIP3    H146724   4.523   5.988   6.962
15613TIP3    H246725   4.441   5.980   6.834
15614TIP3   OH246726   4.773   5.950   6.734
15614TIP3    H146727   4.695   5.954   6.789
15614TIP3    H246728   4.845   5.930   6.794
15615TIP3   OH246729   5.002   5.915   6.892
15615TIP3    H146730   5.019   5.821   6.903
15615TIP3    H246731   4.999   5.950   6.981
15616TIP3   OH246732   3.981   5.828   7.072
15616TIP3    H146733   3.991   5.739   7.038
15616TIP3    H246734   4.018   5.824   7.160
15617TIP3   OH246735   4.468   5.502   6.934
15617TIP3    H146736   4.542   5.441   6.928
15617TIP3    H246737   4.440   5.515   6.843
15618TIP3   OH246738   4.563   5.719   7.078
15618TIP3    H146739   4.532   5.646   7.023
15618TIP3    H246740   4.491   5.781   7.079
15619TIP3   OH246741   3.816   6.970   5.176
15619TIP3    H146742   3.906   6.951   5.149
15619TIP3    H246743   3.778   7.017   5.102
15620TIP3   OH246744   3.282   6.345   5.368
15620TIP3    H146745   3.376   6.361   5.360
15620TIP3    H246746   3.267   6.262   5.323
15621TIP3   OH246747   3.176   6.939   5.814
15621TIP3    H146748   3.112   6.892   5.760
15621TIP3    H246749   3.214   6.871   5.869
15622TIP3   OH246750   3.323   6.764   5.984
15622TIP3    H146751   3.314   6.699   6.053
15622TIP3    H246752   3.376   6.834   6.023
15623TIP3   OH246753   5.071   7.174   5.799
15623TIP3    H146754   5.092   7.198   5.889
15623TIP3    H246755   5.131   7.226   5.746
15624TIP3   OH246756   5.092   7.201   6.081
15624TIP3    H146757   5.040   7.121   6.075
15624TIP3    H246758   5.158   7.181   6.147
15625TIP3   OH246759   5.144   6.910   6.648
15625TIP3    H146760   5.069   6.922   6.705
15625TIP3    H246761   5.191   6.993   6.651
15626TIP3   OH246762   4.969   6.420   5.254
15626TIP3    H146763   5.026   6.491   5.224
15626TIP3    H246764   5.014   6.386   5.332
15627TIP3   OH246765   5.097   6.282   5.459
15627TIP3    H146766   5.030   6.251   5.520
15627TIP3    H246767   5.163   6.323   5.515
15628TIP3   OH246768   5.133   6.681   5.890
15628TIP3    H146769   5.188   6.612   5.853
15628TIP3    H246770   5.138   6.752   5.826
15629TIP3   OH246771   4.935   6.975   6.083
15629TIP3    H146772   4.866   7.016   6.134
15629TIP3    H246773   4.889   6.933   6.009
15630TIP3   OH246774   4.992   6.190   5.109
15630TIP3    H146775   4.920   6.195   5.046
15630TIP3    H246776   4.984   6.270   5.161
15631TIP3   OH246777   4.825   5.879   5.032
15631TIP3    H146778   4.819   5.967   4.995
15631TIP3    H246779   4.789   5.822   4.963
15632TIP3   OH246780   4.889   6.150   5.599
15632TIP3    H146781   4.897   6.055   5.590
15632TIP3    H246782   4.869   6.163   5.692
15633TIP3   OH246783   3.508   6.208   6.360
15633TIP3    H146784   3.499   6.182   6.269
15633TIP3    H246785   3.602   6.205   6.377
15634TIP3   OH246786   5.169   6.562   6.456
15634TIP3    H146787   5.231   6.491   6.439
15634TIP3    H246788   5.198   6.634   6.400
15635TIP3   OH246789   5.336   6.342   6.444
15635TIP3    H146790   5.265   6.305   6.496
15635TIP3    H246791   5.412   6.288   6.464
15636TIP3   OH246792   4.870   5.860   5.482
15636TIP3    H146793   4.916   5.777   5.496
15636TIP3    H246794   4.914   5.899   5.408
15637TIP3   OH246795   5.030   6.027   6.006
15637TIP3    H146796   5.109   6.048   5.957
15637TIP3    H246797   5.043   6.068   6.091
15638TIP3   OH246798   5.102   6.176   6.235
15638TIP3    H146799   5.032   6.205   6.293
15638TIP3    H246800   5.133   6.255   6.192
15639TIP3   OH246801   3.720   5.883   6.989
15639TIP3    H146802   3.812   5.884   7.014
15639TIP3    H246803   3.685   5.804   7.030
15640TIP3   OH246804   5.561   5.799   6.766
15640TIP3    H146805   5.624   5.732   6.738
15640TIP3    H246806   5.528   5.836   6.684
15641TIP3   OH246807   4.974   5.612   5.539
15641TIP3    H146808   5.029   5.593   5.615
15641TIP3    H246809   4.913   5.539   5.534
15642TIP3   OH246810   3.696   5.604   6.361
15642TIP3    H146811   3.750   5.525   6.365
15642TIP3    H246812   3.757   5.674   6.341
15643TIP3   OH246813   3.453   5.862   6.418
15643TIP3    H146814   3.514   5.859   6.344
15643TIP3    H246815   3.462   5.950   6.453
15644TIP3   OH246816   5.413   5.892   6.557
15644TIP3    H146817   5.328   5.930   6.581
15644TIP3    H246818   5.391   5.808   6.516
15645TIP3   OH246819   5.077   5.536   5.141
15645TIP3    H146820   5.124   5.494   5.069
15645TIP3    H246821   5.124   5.618   5.156
15646TIP3   OH246822   3.463   5.382   5.924
15646TIP3    H146823   3.378   5.372   5.967
15646TIP3    H246824   3.445   5.438   5.848
15647TIP3   OH246825   4.620   7.093   5.438
15647TIP3    H146826   4.679   7.086   5.363
15647TIP3    H246827   4.659   7.161   5.493
15648TIP3   OH246828   3.688   5.421   6.759
15648TIP3    H146829   3.634   5.421   6.837
15648TIP3    H246830   3.638   5.473   6.695
15649TIP3   OH246831   3.692   6.913   6.875
15649TIP3    H146832   3.605   6.881   6.852
15649TIP3    H246833   3.708   6.877   6.962
15650TIP3   OH246834   3.913   6.909   6.344
15650TIP3    H146835   3.877   6.995   6.325
15650TIP3    H246836   4.008   6.919   6.332
15651TIP3   OH246837   4.319   7.189   6.512
15651TIP3    H146838   4.321   7.094   6.512
15651TIP3    H246839   4.403   7.215   6.475
15652TIP3   OH246840   4.540   7.309   6.383
15652TIP3    H146841   4.605   7.248   6.348
15652TIP3    H246842   4.590   7.368   6.440
15653TIP3   OH246843   5.330   5.641   6.468
15653TIP3    H146844   5.242   5.635   6.431
15653TIP3    H246845   5.362   5.550   6.467
15654TIP3   OH246846   3.598   7.175   6.412
15654TIP3    H146847   3.506   7.194   6.391
15654TIP3    H246848   3.620   7.238   6.481
15655TIP3   OH246849   3.833   7.166   6.269
15655TIP3    H146850   3.750   7.169   6.316
15655TIP3    H246851   3.811   7.185   6.178
15656TIP3   OH246852   4.247   7.183   6.063
15656TIP3    H146853   4.168   7.189   6.010
15656TIP3    H246854   4.252   7.267   6.108
15657TIP3   OH246855   4.509   7.110   6.088
15657TIP3    H146856   4.416   7.132   6.080
15657TIP3    H246857   4.555   7.184   6.048
15658TIP3   OH246858   4.715   7.295   6.012
15658TIP3    H146859   4.708   7.380   5.969
15658TIP3    H246860   4.743   7.236   5.942
15659TIP3   OH246861   3.508   6.938   6.124
15659TIP3    H146862   3.533   6.919   6.214
15659TIP3    H246863   3.580   6.903   6.071
15660TIP3   OH246864   3.719   6.813   5.991
15660TIP3    H146865   3.721   6.734   6.046
15660TIP3    H246866   3.803   6.855   6.008
15661TIP3   OH246867   3.980   6.928   6.031
15661TIP3    H146868   4.011   6.840   6.009
15661TIP3    H246869   4.026   6.950   6.113
15662TIP3   OH246870   4.527   5.562   6.093
15662TIP3    H146871   4.490   5.495   6.149
15662TIP3    H246872   4.591   5.516   6.039
15663TIP3   OH246873   5.030   5.477   5.962
15663TIP3    H146874   5.081   5.516   5.891
15663TIP3    H246875   4.978   5.549   5.997
15664TIP3   OH246876   5.156   5.556   5.736
15664TIP3    H146877   5.224   5.493   5.711
15664TIP3    H246878   5.198   5.641   5.727
15665TIP3   OH246879   3.766   5.264   6.103
15665TIP3    H146880   3.677   5.228   6.111
15665TIP3    H246881   3.822   5.187   6.095
15666TIP3   OH246882   3.556   5.185   5.742
15666TIP3    H146883   3.607   5.230   5.675
15666TIP3    H246884   3.542   5.251   5.810
15667TIP3   OH246885   4.254   5.302   6.000
15667TIP3    H146886   4.300   5.354   5.934
15667TIP3    H246887   4.292   5.332   6.083
15668TIP3   OH246888   4.722   5.420   5.960
15668TIP3    H146889   4.804   5.415   5.909
15668TIP3    H246890   4.731   5.352   6.026
15669TIP3   OH246891   4.746   5.425   5.556
15669TIP3    H146892   4.684   5.482   5.599
15669TIP3    H246893   4.752   5.348   5.612
15670TIP3   OH246894   3.253   6.762   5.540
15670TIP3    H146895   3.176   6.717   5.504
15670TIP3    H246896   3.257   6.845   5.493
15671TIP3   OH246897   3.703   5.306   5.518
15671TIP3    H146898   3.742   5.244   5.457
15671TIP3    H246899   3.776   5.359   5.548
15672TIP3   OH246900   4.208   5.504   5.586
15672TIP3    H146901   4.259   5.457   5.652
15672TIP3    H246902   4.214   5.596   5.613
15673TIP3   OH246903   4.072   6.898   5.109
15673TIP3    H146904   4.156   6.926   5.072
15673TIP3    H246905   4.043   6.827   5.051
15674TIP3   OH246906   4.771   7.050   5.209
15674TIP3    H146907   4.765   6.955   5.203
15674TIP3    H246908   4.724   7.081   5.131
15675TIP3   OH246909   4.003   5.559   6.976
15675TIP3    H146910   3.966   5.497   7.039
15675TIP3    H246911   4.095   5.566   7.001
15676TIP3   OH246912   4.247   5.552   7.108
15676TIP3    H146913   4.327   5.531   7.059
15676TIP3    H246914   4.242   5.486   7.176
15677TIP3   OH246915   3.359   6.742   5.149
15677TIP3    H146916   3.357   6.787   5.234
15677TIP3    H246917   3.445   6.699   5.146
15678TIP3   OH246918   5.073   5.645   6.913
15678TIP3    H146919   5.096   5.605   6.996
15678TIP3    H246920   5.156   5.653   6.866
15679TIP3   OH246921   4.982   7.180   6.406
15679TIP3    H146922   4.907   7.150   6.354
15679TIP3    H246923   4.973   7.275   6.409
15680TIP3   OH246924   6.276   6.567   5.128
15680TIP3    H146925   6.244   6.654   5.102
15680TIP3    H246926   6.200   6.510   5.117
15681TIP3   OH246927   6.282   6.569   5.571
15681TIP3    H146928   6.322   6.548   5.655
15681TIP3    H246929   6.229   6.492   5.549
15682TIP3   OH246930   5.560   6.402   5.905
15682TIP3    H146931   5.608   6.359   5.976
15682TIP3    H246932   5.627   6.428   5.842
15683TIP3   OH246933   6.531   6.869   5.231
15683TIP3    H146934   6.520   6.803   5.299
15683TIP3    H246935   6.549   6.950   5.278
15684TIP3   OH246936   5.548   6.845   5.588
15684TIP3    H146937   5.529   6.751   5.590
15684TIP3    H246938   5.644   6.850   5.589
15685TIP3   OH246939   5.233   6.050   5.376
15685TIP3    H146940   5.201   6.136   5.403
15685TIP3    H246941   5.156   6.006   5.340
15686TIP3   OH246942   5.320   6.374   5.600
15686TIP3    H146943   5.371   6.297   5.625
15686TIP3    H246944   5.386   6.440   5.578
15687TIP3   OH246945   6.201   7.295   5.253
15687TIP3    H146946   6.223   7.228   5.188
15687TIP3    H246947   6.211   7.251   5.337
15688TIP3   OH246948   6.064   6.780   5.585
15688TIP3    H146949   6.109   6.699   5.559
15688TIP3    H246950   6.134   6.838   5.613
15689TIP3   OH246951   7.106   6.104   5.589
15689TIP3    H146952   7.121   6.187   5.635
15689TIP3    H246953   7.114   6.127   5.496
15690TIP3   OH246954   6.470   6.265   5.604
15690TIP3    H146955   6.502   6.177   5.627
15690TIP3    H246956   6.442   6.257   5.513
15691TIP3   OH246957   5.831   5.916   5.558
15691TIP3    H146958   5.810   5.995   5.507
15691TIP3    H246959   5.769   5.850   5.526
15692TIP3   OH246960   6.544   6.031   5.202
15692TIP3    H146961   6.608   6.024   5.272
15692TIP3    H246962   6.593   6.066   5.128
15693TIP3   OH246963   5.446   6.142   5.684
15693TIP3    H146964   5.528   6.124   5.730
15693TIP3    H246965   5.453   6.093   5.602
15694TIP3   OH246966   5.871   6.349   5.499
15694TIP3    H146967   5.965   6.338   5.515
15694TIP3    H246968   5.840   6.262   5.475
15695TIP3   OH246969   7.158   6.327   5.746
15695TIP3    H146970   7.068   6.362   5.744
15695TIP3    H246971   7.195   6.362   5.827
15696TIP3   OH246972   5.819   5.934   6.010
15696TIP3    H146973   5.770   5.977   5.940
15696TIP3    H246974   5.771   5.955   6.089
15697TIP3   OH246975   6.172   6.784   4.989
15697TIP3    H146976   6.129   6.756   4.908
15697TIP3    H246977   6.118   6.856   5.021
15698TIP3   OH246978   5.891   6.697   5.793
15698TIP3    H146979   5.847   6.776   5.826
15698TIP3    H246980   5.956   6.731   5.732
15699TIP3   OH246981   6.712   6.042   5.415
15699TIP3    H146982   6.655   6.025   5.490
15699TIP3    H246983   6.758   6.123   5.438
15700TIP3   OH246984   5.683   6.020   5.774
15700TIP3    H146985   5.733   6.097   5.799
15700TIP3    H246986   5.737   5.977   5.707
15701TIP3   OH246987   5.752   6.918   5.888
15701TIP3    H146988   5.739   7.008   5.857
15701TIP3    H246989   5.673   6.899   5.938
15702TIP3   OH246990   5.144   6.609   5.139
15702TIP3    H146991   5.110   6.625   5.051
15702TIP3    H246992   5.166   6.695   5.173
15703TIP3   OH246993   6.560   7.120   5.362
15703TIP3    H146994   6.476   7.111   5.407
15703TIP3    H246995   6.558   7.208   5.325
15704TIP3   OH246996   6.916   5.986   5.767
15704TIP3    H146997   6.827   6.013   5.745
15704TIP3    H246998   6.969   6.018   5.693
15705TIP3   OH246999   6.152   5.621   5.747
15705TIP3    H147000   6.144   5.529   5.775
15705TIP3    H247001   6.076   5.664   5.786
15706TIP3   OH247002   6.275   7.148   5.024
15706TIP3    H147003   6.329   7.069   5.015
15706TIP3    H247004   6.334   7.220   4.998
15707TIP3   OH247005   6.418   6.918   4.983
15707TIP3    H147006   6.344   6.858   4.982
15707TIP3    H247007   6.467   6.896   5.062
15708TIP3   OH247008   6.794   7.016   5.714
15708TIP3    H147009   6.778   6.937   5.661
15708TIP3    H247010   6.785   7.088   5.652
15709TIP3   OH247011   6.096   6.396   4.992
15709TIP3    H147012   6.015   6.443   4.974
15709TIP3    H247013   6.146   6.402   4.911
15710TIP3   OH247014   6.052   6.237   4.671
15710TIP3    H147015   6.119   6.275   4.728
15710TIP3    H247016   6.099   6.168   4.623
15711TIP3   OH247017   6.984   6.663   5.581
15711TIP3    H147018   6.901   6.710   5.586
15711TIP3    H247019   7.016   6.678   5.492
15712TIP3   OH247020   6.460   6.492   4.943
15712TIP3    H147021   6.404   6.523   5.014
15712TIP3    H247022   6.543   6.470   4.985
15713TIP3   OH247023   6.671   6.522   5.893
15713TIP3    H147024   6.666   6.605   5.940
15713TIP3    H247025   6.584   6.511   5.854
15714TIP3   OH247026   5.681   6.483   5.345
15714TIP3    H147027   5.649   6.416   5.284
15714TIP3    H247028   5.751   6.439   5.393
15715TIP3   OH247029   5.817   6.901   5.505
15715TIP3    H147030   5.802   6.879   5.413
15715TIP3    H247031   5.900   6.859   5.527
15716TIP3   OH247032   5.745   6.481   5.717
15716TIP3    H147033   5.800   6.432   5.656
15716TIP3    H247034   5.802   6.551   5.749
15717TIP3   OH247035   6.326   7.113   5.501
15717TIP3    H147036   6.320   7.192   5.554
15717TIP3    H247037   6.314   7.041   5.563
15718TIP3   OH247038   5.954   7.013   6.053
15718TIP3    H147039   5.892   7.068   6.101
15718TIP3    H247040   5.900   6.961   5.994
15719TIP3   OH247041   6.291   6.342   4.785
15719TIP3    H147042   6.350   6.401   4.832
15719TIP3    H247043   6.318   6.348   4.694
15720TIP3   OH247044   5.701   6.550   6.207
15720TIP3    H147045   5.716   6.644   6.214
15720TIP3    H247046   5.608   6.541   6.191
15721TIP3   OH247047   6.033   7.015   5.040
15721TIP3    H147048   6.109   7.073   5.043
15721TIP3    H247049   5.962   7.071   5.009
15722TIP3   OH247050   5.738   7.165   6.138
15722TIP3    H147051   5.717   7.178   6.046
15722TIP3    H247052   5.652   7.155   6.181
15723TIP3   OH247053   6.795   5.592   4.848
15723TIP3    H147054   6.716   5.616   4.897
15723TIP3    H247055   6.810   5.667   4.790
15724TIP3   OH247056   5.554   6.315   5.150
15724TIP3    H147057   5.477   6.363   5.118
15724TIP3    H247058   5.520   6.231   5.179
15725TIP3   OH247059   6.611   6.962   4.384
15725TIP3    H147060   6.610   7.057   4.375
15725TIP3    H247061   6.700   6.936   4.361
15726TIP3   OH247062   5.332   6.729   6.085
15726TIP3    H147063   5.264   6.707   6.022
15726TIP3    H247064   5.367   6.645   6.113
15727TIP3   OH247065   5.189   6.910   5.732
15727TIP3    H147066   5.284   6.922   5.738
15727TIP3    H247067   5.153   6.988   5.774
15728TIP3   OH247068   6.137   7.161   5.910
15728TIP3    H147069   6.135   7.250   5.944
15728TIP3    H247070   6.073   7.113   5.963
15729TIP3   OH247071   5.914   7.266   4.864
15729TIP3    H147072   5.857   7.240   4.792
15729TIP3    H247073   5.879   7.349   4.895
15730TIP3   OH247074   5.358   7.103   5.245
15730TIP3    H147075   5.403   7.095   5.329
15730TIP3    H247076   5.312   7.020   5.235
15731TIP3   OH247077   6.101   7.172   4.504
15731TIP3    H147078   6.158   7.103   4.470
15731TIP3    H247079   6.135   7.190   4.591
15732TIP3   OH247080   6.166   7.229   4.767
15732TIP3    H147081   6.079   7.237   4.806
15732TIP3    H247082   6.221   7.191   4.835
15733TIP3   OH247083   6.928   6.473   6.050
15733TIP3    H147084   6.842   6.489   6.012
15733TIP3    H247085   6.942   6.378   6.040
15734TIP3   OH247086   5.530   6.917   6.054
15734TIP3    H147087   5.584   6.903   6.132
15734TIP3    H247088   5.459   6.853   6.060
15735TIP3   OH247089   5.915   5.714   5.870
15735TIP3    H147090   5.829   5.685   5.840
15735TIP3    H247091   5.898   5.798   5.914
15736TIP3   OH247092   6.453   5.832   6.069
15736TIP3    H147093   6.518   5.816   6.138
15736TIP3    H247094   6.369   5.830   6.115
15737TIP3   OH247095   6.674   6.255   5.980
15737TIP3    H147096   6.633   6.250   6.066
15737TIP3    H247097   6.653   6.343   5.948
15738TIP3   OH247098   6.361   6.327   4.518
15738TIP3    H147099   6.321   6.329   4.431
15738TIP3    H247100   6.442   6.377   4.509
15739TIP3   OH247101   6.090   5.744   4.844
15739TIP3    H147102   6.053   5.754   4.931
15739TIP3    H247103   6.048   5.665   4.809
15740TIP3   OH247104   5.839   6.211   5.873
15740TIP3    H147105   5.807   6.247   5.956
15740TIP3    H247106   5.928   6.244   5.865
15741TIP3   OH247107   5.737   6.122   5.404
15741TIP3    H147108   5.647   6.101   5.429
15741TIP3    H247109   5.744   6.091   5.314
15742TIP3   OH247110   6.220   6.193   5.128
15742TIP3    H147111   6.173   6.268   5.090
15742TIP3    H247112   6.278   6.164   5.059
15743TIP3   OH247113   6.413   6.500   6.228
15743TIP3    H147114   6.382   6.415   6.260
15743TIP3    H247115   6.508   6.497   6.238
15744TIP3   OH247116   6.401   6.224   5.343
15744TIP3    H147117   6.323   6.240   5.289
15744TIP3    H247118   6.444   6.149   5.302
15745TIP3   OH247119   5.711   6.280   6.108
15745TIP3    H147120   5.724   6.355   6.166
15745TIP3    H247121   5.699   6.206   6.167
15746TIP3   OH247122   5.738   5.724   4.812
15746TIP3    H147123   5.735   5.732   4.908
15746TIP3    H247124   5.665   5.777   4.781
15747TIP3   OH247125   5.290   5.782   5.679
15747TIP3    H147126   5.349   5.819   5.745
15747TIP3    H247127   5.340   5.786   5.597
15748TIP3   OH247128   5.204   5.775   5.190
15748TIP3    H147129   5.248   5.818   5.116
15748TIP3    H247130   5.133   5.836   5.214
15749TIP3   OH247131   6.413   6.451   5.796
15749TIP3    H147132   6.436   6.382   5.733
15749TIP3    H247133   6.337   6.417   5.842
15750TIP3   OH247134   6.094   5.909   5.447
15750TIP3    H147135   6.017   5.911   5.503
15750TIP3    H247136   6.168   5.905   5.508
15751TIP3   OH247137   5.494   6.000   5.453
15751TIP3    H147138   5.406   6.004   5.415
15751TIP3    H247139   5.523   5.911   5.438
15752TIP3   OH247140   5.751   6.003   5.156
15752TIP3    H147141   5.845   6.018   5.150
15752TIP3    H247142   5.718   6.024   5.068
15753TIP3   OH247143   6.543   5.998   5.626
15753TIP3    H147144   6.556   5.995   5.721
15753TIP3    H247145   6.465   5.944   5.611
15754TIP3   OH247146   5.651   6.026   4.903
15754TIP3    H147147   5.587   5.980   4.848
15754TIP3    H247148   5.700   6.081   4.842
15755TIP3   OH247149   6.730   7.760   5.913
15755TIP3    H147150   6.730   7.685   5.855
15755TIP3    H247151   6.823   7.780   5.928
15756TIP3   OH247152   5.686   6.826   6.285
15756TIP3    H147153   5.768   6.844   6.333
15756TIP3    H247154   5.618   6.834   6.352
15757TIP3   OH247155   6.143   6.316   5.565
15757TIP3    H147156   6.216   6.256   5.549
15757TIP3    H247157   6.132   6.315   5.661
15758TIP3   OH247158   5.630   5.749   5.446
15758TIP3    H147159   5.603   5.674   5.498
15758TIP3    H247160   5.662   5.711   5.364
15759TIP3   OH247161   5.868   6.539   4.928
15759TIP3    H147162   5.790   6.491   4.902
15759TIP3    H247163   5.842   6.588   5.006
15760TIP3   OH247164   6.749   6.802   5.543
15760TIP3    H147165   6.784   6.851   5.468
15760TIP3    H247166   6.669   6.762   5.510
15761TIP3   OH247167   6.280   5.912   4.740
15761TIP3    H147168   6.208   5.864   4.782
15761TIP3    H247169   6.311   5.973   4.807
15762TIP3   OH247170   6.277   6.908   5.950
15762TIP3    H147171   6.319   6.890   6.034
15762TIP3    H247172   6.231   6.991   5.963
15763TIP3   OH247173   6.383   6.107   4.913
15763TIP3    H147174   6.477   6.113   4.928
15763TIP3    H247175   6.361   6.187   4.865
15764TIP3   OH247176   5.531   6.559   5.565
15764TIP3    H147177   5.573   6.544   5.481
15764TIP3    H247178   5.597   6.534   5.630
15765TIP3   OH247179   6.013   6.708   4.768
15765TIP3    H147180   5.961   6.789   4.769
15765TIP3    H247181   5.962   6.646   4.821
15766TIP3   OH247182   5.425   6.507   6.224
15766TIP3    H147183   5.443   6.487   6.316
15766TIP3    H247184   5.355   6.447   6.200
15767TIP3   OH247185   6.173   6.634   6.240
15767TIP3    H147186   6.110   6.578   6.195
15767TIP3    H247187   6.258   6.596   6.220
15768TIP3   OH247188   6.405   7.169   5.818
15768TIP3    H147189   6.311   7.158   5.831
15768TIP3    H247190   6.437   7.199   5.903
15769TIP3   OH247191   6.794   6.210   4.724
15769TIP3    H147192   6.739   6.163   4.661
15769TIP3    H247193   6.797   6.300   4.691
15770TIP3   OH247194   7.043   7.029   5.828
15770TIP3    H147195   6.951   7.049   5.810
15770TIP3    H247196   7.085   7.032   5.742
15771TIP3   OH247197   6.535   7.032   4.673
15771TIP3    H147198   6.507   6.977   4.746
15771TIP3    H247199   6.547   6.972   4.600
15772TIP3   OH247200   6.522   6.669   5.437
15772TIP3    H147201   6.436   6.646   5.473
15772TIP3    H247202   6.555   6.587   5.400
15773TIP3   OH247203   5.682   6.900   5.253
15773TIP3    H147204   5.678   6.981   5.203
15773TIP3    H247205   5.595   6.890   5.291
15774TIP3   OH247206   5.223   6.191   4.955
15774TIP3    H147207   5.269   6.273   4.974
15774TIP3    H247208   5.147   6.192   5.013
15775TIP3   OH247209   5.765   6.660   5.147
15775TIP3    H147210   5.750   6.749   5.178
15775TIP3    H247211   5.739   6.604   5.220
15776TIP3   OH247212   5.955   7.228   5.706
15776TIP3    H147213   5.995   7.297   5.653
15776TIP3    H247214   6.027   7.195   5.760
15777TIP3   OH247215   5.606   7.137   5.128
15777TIP3    H147216   5.514   7.130   5.153
15777TIP3    H247217   5.620   7.231   5.113
15778TIP3   OH247218   6.303   6.891   5.676
15778TIP3    H147219   6.294   6.896   5.772
15778TIP3    H247220   6.368   6.823   5.662
15779TIP3   OH247221   6.298   6.770   4.557
15779TIP3    H147222   6.355   6.738   4.627
15779TIP3    H247223   6.213   6.730   4.574
15780TIP3   OH247224   6.565   7.362   5.702
15780TIP3    H147225   6.507   7.295   5.738
15780TIP3    H247226   6.509   7.412   5.643
15781TIP3   OH247227   6.617   7.238   4.360
15781TIP3    H147228   6.659   7.309   4.312
15781TIP3    H247229   6.542   7.279   4.402
15782TIP3   OH247230   5.656   6.010   6.225
15782TIP3    H147231   5.560   6.017   6.229
15782TIP3    H247232   5.679   5.956   6.301
15783TIP3   OH247233   6.484   6.671   4.730
15783TIP3    H147234   6.467   6.618   4.809
15783TIP3    H247235   6.579   6.682   4.729
15784TIP3   OH247236   5.386   7.116   5.875
15784TIP3    H147237   5.435   7.053   5.927
15784TIP3    H247238   5.403   7.200   5.917
15785TIP3   OH247239   5.690   6.713   4.553
15785TIP3    H147240   5.682   6.618   4.540
15785TIP3    H247241   5.653   6.728   4.640
15786TIP3   OH247242   5.602   6.782   4.809
15786TIP3    H147243   5.607   6.748   4.898
15786TIP3    H247244   5.508   6.784   4.789
15787TIP3   OH247245   5.334   6.438   5.027
15787TIP3    H147246   5.273   6.490   5.078
15787TIP3    H247247   5.359   6.495   4.954
15788TIP3   OH247248   6.584   6.004   5.891
15788TIP3    H147249   6.601   6.089   5.931
15788TIP3    H247250   6.533   5.957   5.957
15789TIP3   OH247251   6.377   5.833   5.112
15789TIP3    H147252   6.333   5.885   5.045
15789TIP3    H247253   6.433   5.896   5.158
15790TIP3   OH247254   5.842   6.919   4.770
15790TIP3    H147255   5.756   6.882   4.786
15790TIP3    H247256   5.825   7.008   4.739
15791TIP3   OH247257   6.028   6.010   5.198
15791TIP3    H147258   6.091   6.079   5.176
15791TIP3    H247259   6.048   5.988   5.289
15792TIP3   OH247260   6.197   5.706   5.285
15792TIP3    H147261   6.170   5.780   5.340
15792TIP3    H247262   6.268   5.740   5.231
15793TIP3   OH247263   5.711   5.734   5.093
15793TIP3    H147264   5.701   5.825   5.121
15793TIP3    H247265   5.805   5.717   5.101
15794TIP3   OH247266   6.940   6.200   5.965
15794TIP3    H147267   6.846   6.212   5.976
15794TIP3    H247268   6.947   6.133   5.896
15795TIP3   OH247269   6.615   6.411   5.348
15795TIP3    H147270   6.537   6.357   5.358
15795TIP3    H247271   6.679   6.370   5.407
15796TIP3   OH247272   5.276   5.920   4.972
15796TIP3    H147273   5.270   6.015   4.971
15796TIP3    H247274   5.272   5.894   4.880
15797TIP3   OH247275   6.589   7.389   5.293
15797TIP3    H147276   6.549   7.442   5.224
15797TIP3    H247277   6.684   7.401   5.280
15798TIP3   OH247278   5.651   5.628   5.829
15798TIP3    H147279   5.621   5.595   5.744
15798TIP3    H247280   5.647   5.552   5.887
15799TIP3   OH247281   5.186   6.879   5.227
15799TIP3    H147282   5.145   6.913   5.306
15799TIP3    H247283   5.137   6.920   5.155
15800TIP3   OH247284   5.388   7.429   6.295
15800TIP3    H147285   5.467   7.440   6.347
15800TIP3    H247286   5.384   7.335   6.276
15801TIP3   OH247287   5.843   7.334   6.330
15801TIP3    H147288   5.936   7.315   6.339
15801TIP3    H247289   5.814   7.276   6.260
15802TIP3   OH247290   5.822   6.926   4.455
15802TIP3    H147291   5.769   6.857   4.494
15802TIP3    H247292   5.909   6.887   4.444
15803TIP3   OH247293   6.501   7.258   6.051
15803TIP3    H147294   6.494   7.211   6.134
15803TIP3    H247295   6.572   7.321   6.065
15804TIP3   OH247296   6.264   6.979   4.385
15804TIP3    H147297   6.278   6.913   4.454
15804TIP3    H247298   6.347   6.984   4.339
15805TIP3   OH247299   5.482   6.825   6.477
15805TIP3    H147300   5.503   6.733   6.489
15805TIP3    H247301   5.394   6.825   6.440
15806TIP3   OH247302   5.470   6.387   4.670
15806TIP3    H147303   5.512   6.389   4.756
15806TIP3    H247304   5.538   6.415   4.609
15807TIP3   OH247305   6.101   6.904   6.259
15807TIP3    H147306   6.061   6.927   6.176
15807TIP3    H247307   6.136   6.816   6.246
15808TIP3   OH247308   6.030   6.663   4.497
15808TIP3    H147309   6.008   6.674   4.589
15808TIP3    H247310   6.011   6.571   4.478
15809TIP3   OH247311   6.580   6.944   5.872
15809TIP3    H147312   6.654   6.980   5.824
15809TIP3    H247313   6.508   7.004   5.854
15810TIP3   OH247314   5.590   6.567   6.479
15810TIP3    H147315   5.663   6.553   6.418
15810TIP3    H247316   5.633   6.583   6.563
15811TIP3   OH247317   5.646   6.375   4.889
15811TIP3    H147318   5.629   6.346   4.978
15811TIP3    H247319   5.693   6.302   4.848
15812TIP3   OH247320   6.004   6.461   6.103
15812TIP3    H147321   5.922   6.500   6.073
15812TIP3    H247322   6.045   6.428   6.023
15813TIP3   OH247323   5.785   6.191   4.732
15813TIP3    H147324   5.754   6.192   4.641
15813TIP3    H247325   5.879   6.207   4.725
15814TIP3   OH247326   6.468   6.834   6.233
15814TIP3    H147327   6.521   6.786   6.170
15814TIP3    H247328   6.451   6.771   6.303
15815TIP3   OH247329   6.576   6.472   4.419
15815TIP3    H147330   6.567   6.431   4.332
15815TIP3    H247331   6.550   6.563   4.405
15816TIP3   OH247332   6.065   6.234   6.248
15816TIP3    H147333   6.073   6.162   6.185
15816TIP3    H247334   6.047   6.311   6.195
15817TIP3   OH247335   6.081   6.036   6.047
15817TIP3    H147336   6.110   6.104   5.986
15817TIP3    H247337   5.992   6.015   6.019
15818TIP3   OH247338   6.681   6.515   6.314
15818TIP3    H147339   6.733   6.436   6.297
15818TIP3    H247340   6.743   6.587   6.304
15819TIP3   OH247341   6.694   6.765   6.040
15819TIP3    H147342   6.642   6.827   5.989
15819TIP3    H247343   6.784   6.777   6.009
15820TIP3   OH247344   5.952   6.297   6.495
15820TIP3    H147345   5.884   6.232   6.510
15820TIP3    H247346   5.980   6.281   6.404
15821TIP3   OH247347   6.187   5.801   6.153
15821TIP3    H147348   6.151   5.883   6.117
15821TIP3    H247349   6.118   5.736   6.138
15822TIP3   OH247350   6.327   6.259   6.347
15822TIP3    H147351   6.309   6.245   6.440
15822TIP3    H247352   6.242   6.246   6.304
15823TIP3   OH247353   6.577   6.226   6.229
15823TIP3    H147354   6.494   6.226   6.275
15823TIP3    H247355   6.642   6.202   6.295
15824TIP3   OH247356   6.815   6.182   6.381
15824TIP3    H147357   6.821   6.086   6.386
15824TIP3    H247358   6.805   6.210   6.472
15825TIP3   OH247359   5.780   6.081   6.560
15825TIP3    H147360   5.786   5.992   6.525
15825TIP3    H247361   5.818   6.075   6.647
15826TIP3   OH247362   6.255   5.762   6.416
15826TIP3    H147363   6.323   5.696   6.405
15826TIP3    H247364   6.225   5.781   6.327
15827TIP3   OH247365   6.355   5.973   6.565
15827TIP3    H147366   6.323   5.902   6.508
15827TIP3    H247367   6.287   6.039   6.562
15828TIP3   OH247368   5.632   7.355   4.617
15828TIP3    H147369   5.702   7.290   4.622
15828TIP3    H247370   5.562   7.311   4.567
15829TIP3   OH247371   5.072   6.611   4.869
15829TIP3    H147372   5.144   6.663   4.832
15829TIP3    H247373   5.069   6.532   4.816
15830TIP3   OH247374   4.981   7.196   5.308
15830TIP3    H147375   4.915   7.143   5.264
15830TIP3    H247376   5.026   7.136   5.367
15831TIP3   OH247377   5.126   7.029   5.476
15831TIP3    H147378   5.116   6.960   5.542
15831TIP3    H247379   5.179   7.096   5.519
15832TIP3   OH247380   6.863   7.434   5.285
15832TIP3    H147381   6.879   7.460   5.376
15832TIP3    H247382   6.926   7.484   5.234
15833TIP3   OH247383   6.898   7.451   5.567
15833TIP3    H147384   6.855   7.366   5.552
15833TIP3    H247385   6.894   7.464   5.661
15834TIP3   OH247386   6.950   7.172   6.151
15834TIP3    H147387   6.882   7.195   6.214
15834TIP3    H247388   7.004   7.250   6.144
15835TIP3   OH247389   6.764   6.680   4.741
15835TIP3    H147390   6.820   6.752   4.715
15835TIP3    H247391   6.807   6.642   4.818
15836TIP3   OH247392   6.890   6.538   4.944
15836TIP3    H147393   6.824   6.502   5.002
15836TIP3    H247394   6.956   6.575   5.003
15837TIP3   OH247395   6.930   6.940   5.380
15837TIP3    H147396   6.982   6.870   5.339
15837TIP3    H247397   6.931   7.011   5.316
15838TIP3   OH247398   6.743   7.225   5.543
15838TIP3    H147399   6.678   7.268   5.598
15838TIP3    H247400   6.692   7.182   5.475
15839TIP3   OH247401   6.787   6.451   4.592
15839TIP3    H147402   6.713   6.453   4.532
15839TIP3    H247403   6.776   6.530   4.645
15840TIP3   OH247404   6.646   6.090   4.525
15840TIP3    H147405   6.599   6.118   4.446
15840TIP3    H247406   6.635   5.995   4.526
15841TIP3   OH247407   6.686   6.401   5.081
15841TIP3    H147408   6.689   6.306   5.070
15841TIP3    H247409   6.665   6.414   5.173
15842TIP3   OH247410   5.300   6.462   5.859
15842TIP3    H147411   5.291   6.433   5.769
15842TIP3    H247412   5.393   6.452   5.878
15843TIP3   OH247413   6.954   6.803   5.954
15843TIP3    H147414   7.020   6.737   5.934
15843TIP3    H247415   6.980   6.879   5.903
15844TIP3   OH247416   7.141   6.602   5.935
15844TIP3    H147417   7.068   6.557   5.977
15844TIP3    H247418   7.218   6.550   5.957
15845TIP3   OH247419   6.609   5.816   4.523
15845TIP3    H147420   6.675   5.796   4.591
15845TIP3    H247421   6.532   5.766   4.550
15846TIP3   OH247422   6.671   6.120   4.964
15846TIP3    H147423   6.719   6.038   4.978
15846TIP3    H247424   6.712   6.160   4.888
15847TIP3   OH247425   6.826   6.285   5.492
15847TIP3    H147426   6.909   6.303   5.447
15847TIP3    H247427   6.836   6.326   5.578
15848TIP3   OH247428   6.895   6.438   5.719
15848TIP3    H147429   6.821   6.463   5.774
15848TIP3    H247430   6.924   6.519   5.678
15849TIP3   OH247431   5.517   6.137   6.489
15849TIP3    H147432   5.611   6.135   6.509
15849TIP3    H247433   5.483   6.056   6.525
15850TIP3   OH247434   7.366   6.027   6.260
15850TIP3    H147435   7.431   5.973   6.215
15850TIP3    H247436   7.327   6.080   6.191
15851TIP3   OH247437   6.789   5.874   5.018
15851TIP3    H147438   6.834   5.858   5.101
15851TIP3    H247439   6.723   5.805   5.014
15852TIP3   OH247440   5.483   5.848   5.867
15852TIP3    H147441   5.539   5.770   5.868
15852TIP3    H247442   5.542   5.919   5.842
15853TIP3   OH247443   5.267   6.124   5.901
15853TIP3    H147444   5.318   6.119   5.820
15853TIP3    H247445   5.302   6.201   5.946
15854TIP3   OH247446   7.214   6.156   6.075
15854TIP3    H147447   7.144   6.198   6.124
15854TIP3    H247448   7.170   6.096   6.016
15855TIP3   OH247449   6.848   5.787   4.661
15855TIP3    H147450   6.895   5.737   4.594
15855TIP3    H247451   6.897   5.868   4.669
15856TIP3   OH247452   5.268   5.624   5.408
15856TIP3    H147453   5.187   5.624   5.458
15856TIP3    H247454   5.253   5.685   5.337
15857TIP3   OH247455   6.422   7.350   4.922
15857TIP3    H147456   6.481   7.342   4.847
15857TIP3    H247457   6.461   7.417   4.977
15858TIP3   OH247458   5.487   5.672   6.232
15858TIP3    H147459   5.440   5.666   6.315
15858TIP3    H247460   5.431   5.726   6.177
15859TIP3   OH247461   5.502   7.154   6.296
15859TIP3    H147462   5.411   7.123   6.295
15859TIP3    H247463   5.531   7.142   6.387
15860TIP3   OH247464   5.728   7.194   5.857
15860TIP3    H147465   5.679   7.270   5.826
15860TIP3    H247466   5.812   7.200   5.813
15861TIP3   OH247467   6.128   7.424   5.993
15861TIP3    H147468   6.164   7.410   6.080
15861TIP3    H247469   6.194   7.478   5.948
15862TIP3   OH247470   6.322   7.577   5.869
15862TIP3    H147471   6.387   7.515   5.838
15862TIP3    H247472   6.367   7.629   5.935
15863TIP3   OH247473   7.122   5.910   5.951
15863TIP3    H147474   7.041   5.917   5.901
15863TIP3    H247475   7.146   5.818   5.945
15864TIP3   OH247476   5.387   7.436   5.900
15864TIP3    H147477   5.295   7.453   5.880
15864TIP3    H247478   5.410   7.500   5.968
15865TIP3   OH247479   5.619   7.425   5.753
15865TIP3    H147480   5.536   7.429   5.800
15865TIP3    H247481   5.596   7.445   5.662
15866TIP3   OH247482   6.031   7.434   5.536
15866TIP3    H147483   5.957   7.449   5.478
15866TIP3    H247484   6.041   7.516   5.585
15867TIP3   OH247485   6.301   7.382   5.575
15867TIP3    H147486   6.208   7.397   5.559
15867TIP3    H247487   6.345   7.459   5.538
15868TIP3   OH247488   6.505   7.562   5.493
15868TIP3    H147489   6.502   7.645   5.446
15868TIP3    H247490   6.535   7.498   5.429
15869TIP3   OH247491   5.304   7.202   5.623
15869TIP3    H147492   5.330   7.179   5.712
15869TIP3    H247493   5.375   7.169   5.568
15870TIP3   OH247494   5.505   7.090   5.478
15870TIP3    H147495   5.515   7.004   5.520
15870TIP3    H247496   5.592   7.129   5.482
15871TIP3   OH247497   5.771   7.177   5.502
15871TIP3    H147498   5.790   7.084   5.489
15871TIP3    H247499   5.825   7.203   5.577
15872TIP3   OH247500   6.326   5.820   5.578
15872TIP3    H147501   6.292   5.751   5.635
15872TIP3    H247502   6.394   5.776   5.526
15873TIP3   OH247503   6.830   5.738   5.469
15873TIP3    H147504   6.871   5.789   5.399
15873TIP3    H247505   6.744   5.777   5.481
15874TIP3   OH247506   6.949   5.819   5.237
15874TIP3    H147507   7.020   5.760   5.211
15874TIP3    H247508   6.987   5.907   5.225
15875TIP3   OH247509   5.561   5.519   5.589
15875TIP3    H147510   5.473   5.482   5.596
15875TIP3    H247511   5.618   5.442   5.583
15876TIP3   OH247512   5.368   5.428   5.242
15876TIP3    H147513   5.405   5.479   5.170
15876TIP3    H247514   5.344   5.493   5.308
15877TIP3   OH247515   6.052   5.562   5.485
15877TIP3    H147516   6.100   5.612   5.420
15877TIP3    H247517   6.087   5.592   5.569
15878TIP3   OH247518   6.535   5.696   5.444
15878TIP3    H147519   6.575   5.659   5.365
15878TIP3    H247520   6.542   5.627   5.510
15879TIP3   OH247521   6.591   5.675   5.018
15879TIP3    H147522   6.513   5.723   5.046
15879TIP3    H247523   6.579   5.587   5.055
15880TIP3   OH247524   5.045   7.000   5.026
15880TIP3    H147525   4.964   6.963   4.990
15880TIP3    H247526   5.043   7.092   4.998
15881TIP3   OH247527   5.496   5.570   5.022
15881TIP3    H147528   5.553   5.498   4.996
15881TIP3    H247529   5.555   5.638   5.053
15882TIP3   OH247530   5.988   5.757   5.101
15882TIP3    H147531   6.046   5.709   5.160
15882TIP3    H247532   5.997   5.848   5.129
15883TIP3   OH247533   5.832   7.162   4.599
15883TIP3    H147534   5.922   7.182   4.573
15883TIP3    H247535   5.810   7.084   4.550
15884TIP3   OH247536   6.575   7.303   4.692
15884TIP3    H147537   6.565   7.208   4.689
15884TIP3    H247538   6.528   7.335   4.615
15885TIP3   OH247539   5.792   5.809   6.471
15885TIP3    H147540   5.756   5.744   6.531
15885TIP3    H247541   5.884   5.817   6.496
15886TIP3   OH247542   6.039   5.815   6.595
15886TIP3    H147543   6.117   5.793   6.543
15886TIP3    H247544   6.033   5.745   6.660
15887TIP3   OH247545   5.128   7.029   4.708
15887TIP3    H147546   5.112   7.061   4.796
15887TIP3    H247547   5.183   6.951   4.719
15888TIP3   OH247548   6.868   5.907   6.381
15888TIP3    H147549   6.886   5.878   6.470
15888TIP3    H247550   6.952   5.902   6.336
15889TIP3   OH247551   6.776   7.494   5.820
15889TIP3    H147552   6.703   7.443   5.784
15889TIP3    H247553   6.774   7.476   5.914
15890TIP3   OH247554   8.071   6.833   4.618
15890TIP3    H147555   8.038   6.919   4.595
15890TIP3    H247556   8.001   6.773   4.594
15891TIP3   OH247557   8.062   6.808   5.042
15891TIP3    H147558   8.104   6.791   5.126
15891TIP3    H247559   8.016   6.727   5.021
15892TIP3   OH247560   7.354   6.695   5.408
15892TIP3    H147561   7.384   6.622   5.462
15892TIP3    H247562   7.408   6.769   5.435
15893TIP3   OH247563   8.334   7.113   4.753
15893TIP3    H147564   8.304   7.035   4.798
15893TIP3    H247565   8.421   7.130   4.789
15894TIP3   OH247566   7.352   7.098   5.068
15894TIP3    H147567   7.333   7.006   5.085
15894TIP3    H247568   7.448   7.103   5.069
15895TIP3   OH247569   7.035   6.311   4.859
15895TIP3    H147570   6.998   6.395   4.886
15895TIP3    H247571   6.961   6.263   4.823
15896TIP3   OH247572   7.122   6.624   5.081
15896TIP3    H147573   7.170   6.546   5.111
15896TIP3    H247574   7.189   6.689   5.065
15897TIP3   OH247575   8.071   7.562   4.742
15897TIP3    H147576   8.075   7.507   4.664
15897TIP3    H247577   8.023   7.510   4.806
15898TIP3   OH247578   7.864   7.032   5.043
15898TIP3    H147579   7.903   6.950   5.014
15898TIP3    H247580   7.937   7.083   5.076
15899TIP3   OH247581   8.896   6.360   5.072
15899TIP3    H147582   8.911   6.446   5.111
15899TIP3    H247583   8.924   6.370   4.981
15900TIP3   OH247584   8.271   6.521   5.092
15900TIP3    H147585   8.308   6.436   5.116
15900TIP3    H247586   8.236   6.507   5.004
15901TIP3   OH247587   7.637   6.186   5.046
15901TIP3    H147588   7.613   6.259   4.990
15901TIP3    H247589   7.579   6.114   5.018
15902TIP3   OH247590   8.326   6.287   4.680
15902TIP3    H147591   8.388   6.280   4.752
15902TIP3    H247592   8.377   6.320   4.607
15903TIP3   OH247593   7.255   6.402   5.181
15903TIP3    H147594   7.338   6.383   5.225
15903TIP3    H247595   7.257   6.350   5.101
15904TIP3   OH247596   7.684   6.604   4.966
15904TIP3    H147597   7.777   6.584   4.976
15904TIP3    H247598   7.644   6.521   4.943
15905TIP3   OH247599   8.950   6.585   5.237
15905TIP3    H147600   8.860   6.614   5.228
15905TIP3    H247601   8.981   6.625   5.318
15906TIP3   OH247602   7.609   6.188   5.501
15906TIP3    H147603   7.560   6.224   5.427
15906TIP3    H247604   7.552   6.201   5.577
15907TIP3   OH247605   7.970   7.057   4.491
15907TIP3    H147606   7.937   7.022   4.408
15907TIP3    H247607   7.918   7.136   4.506
15908TIP3   OH247608   7.712   6.963   5.269
15908TIP3    H147609   7.655   7.031   5.303
15908TIP3    H247610   7.755   7.004   5.194
15909TIP3   OH247611   8.478   6.311   4.905
15909TIP3    H147612   8.442   6.285   4.989
15909TIP3    H247613   8.538   6.383   4.926
15910TIP3   OH247614   7.505   6.295   5.267
15910TIP3    H147615   7.555   6.373   5.291
15910TIP3    H247616   7.554   6.255   5.195
15911TIP3   OH247617   7.549   7.161   5.374
15911TIP3    H147618   7.535   7.250   5.342
15911TIP3    H247619   7.473   7.143   5.429
15912TIP3   OH247620   6.930   6.876   4.626
15912TIP3    H147621   6.890   6.901   4.543
15912TIP3    H247622   6.955   6.959   4.667
15913TIP3   OH247623   8.349   7.370   4.864
15913TIP3    H147624   8.277   7.367   4.927
15913TIP3    H247625   8.328   7.303   4.800
15914TIP3   OH247626   8.686   6.260   5.237
15914TIP3    H147627   8.604   6.268   5.189
15914TIP3    H247628   8.754   6.285   5.174
15915TIP3   OH247629   7.956   5.879   5.234
15915TIP3    H147630   7.948   5.787   5.257
15915TIP3    H247631   7.879   5.921   5.272
15916TIP3   OH247632   8.089   7.423   4.509
15916TIP3    H147633   8.144   7.345   4.505
15916TIP3    H247634   8.092   7.459   4.421
15917TIP3   OH247635   8.222   7.185   4.511
15917TIP3    H147636   8.148   7.126   4.495
15917TIP3    H247637   8.265   7.150   4.589
15918TIP3   OH247638   8.644   7.243   5.198
15918TIP3    H147639   8.591   7.174   5.158
15918TIP3    H247640   8.605   7.324   5.165
15919TIP3   OH247641   7.898   6.669   4.473
15919TIP3    H147642   7.815   6.712   4.453
15919TIP3    H247643   7.942   6.661   4.388
15920TIP3   OH247644   7.862   6.436   4.211
15920TIP3    H147645   7.928   6.499   4.241
15920TIP3    H247646   7.907   6.384   4.144
15921TIP3   OH247647   8.781   6.921   5.077
15921TIP3    H147648   8.695   6.962   5.079
15921TIP3    H247649   8.812   6.934   4.988
15922TIP3   OH247650   8.251   6.748   4.430
15922TIP3    H147651   8.197   6.780   4.501
15922TIP3    H247652   8.333   6.722   4.471
15923TIP3   OH247653   8.469   6.753   5.355
15923TIP3    H147654   8.483   6.838   5.397
15923TIP3    H247655   8.381   6.758   5.317
15924TIP3   OH247656   7.478   6.739   4.837
15924TIP3    H147657   7.440   6.677   4.775
15924TIP3    H247658   7.553   6.693   4.874
15925TIP3   OH247659   7.618   7.156   4.979
15925TIP3    H147660   7.593   7.138   4.888
15925TIP3    H247661   7.703   7.114   4.990
15926TIP3   OH247662   7.594   6.725   5.200
15926TIP3    H147663   7.633   6.696   5.117
15926TIP3    H247664   7.638   6.807   5.220
15927TIP3   OH247665   8.155   7.361   5.051
15927TIP3    H147666   8.164   7.402   5.137
15927TIP3    H247667   8.128   7.271   5.071
15928TIP3   OH247668   7.747   7.259   5.545
15928TIP3    H147669   7.688   7.317   5.594
15928TIP3    H247670   7.689   7.208   5.489
15929TIP3   OH247671   8.081   6.607   4.261
15929TIP3    H147672   8.142   6.666   4.305
15929TIP3    H247673   8.104   6.613   4.168
15930TIP3   OH247674   7.485   6.820   5.645
15930TIP3    H147675   7.492   6.911   5.676
15930TIP3    H247676   7.394   6.795   5.665
15931TIP3   OH247677   7.837   7.303   4.481
15931TIP3    H147678   7.922   7.347   4.492
15931TIP3    H247679   7.777   7.374   4.458
15932TIP3   OH247680   7.541   7.418   5.643
15932TIP3    H147681   7.482   7.416   5.568
15932TIP3    H247682   7.484   7.410   5.720
15933TIP3   OH247683   8.581   5.844   4.326
15933TIP3    H147684   8.505   5.864   4.381
15933TIP3    H247685   8.592   5.921   4.270
15934TIP3   OH247686   7.354   6.580   4.634
15934TIP3    H147687   7.272   6.622   4.610
15934TIP3    H247688   7.329   6.490   4.655
15935TIP3   OH247689   8.393   7.203   3.798
15935TIP3    H147690   8.396   7.297   3.813
15935TIP3    H247691   8.482   7.173   3.815
15936TIP3   OH247692   7.136   6.980   5.571
15936TIP3    H147693   7.061   6.964   5.514
15936TIP3    H247694   7.163   6.893   5.601
15937TIP3   OH247695   6.971   7.175   5.225
15937TIP3    H147696   7.059   7.198   5.256
15937TIP3    H247697   6.915   7.246   5.256
15938TIP3   OH247698   8.832   7.654   5.256
15938TIP3    H147699   8.844   7.560   5.268
15938TIP3    H247700   8.747   7.673   5.298
15939TIP3   OH247701   7.926   7.406   5.399
15939TIP3    H147702   7.926   7.496   5.431
15939TIP3    H247703   7.864   7.360   5.455
15940TIP3   OH247704   7.688   7.498   4.361
15940TIP3    H147705   7.684   7.489   4.266
15940TIP3    H247706   7.667   7.590   4.377
15941TIP3   OH247707   7.156   7.361   4.734
15941TIP3    H147708   7.200   7.356   4.819
15941TIP3    H247709   7.107   7.280   4.727
15942TIP3   OH247710   7.922   7.436   3.979
15942TIP3    H147711   7.974   7.359   3.955
15942TIP3    H247712   7.966   7.471   4.056
15943TIP3   OH247713   8.740   6.741   5.537
15943TIP3    H147714   8.652   6.777   5.523
15943TIP3    H247715   8.732   6.649   5.513
15944TIP3   OH247716   7.329   7.173   5.541
15944TIP3    H147717   7.376   7.167   5.624
15944TIP3    H247718   7.258   7.110   5.550
15945TIP3   OH247719   7.720   5.973   5.359
15945TIP3    H147720   7.638   5.937   5.326
15945TIP3    H247721   7.694   6.053   5.405
15946TIP3   OH247722   8.257   6.105   5.563
15946TIP3    H147723   8.325   6.071   5.621
15946TIP3    H247724   8.175   6.082   5.607
15947TIP3   OH247725   8.459   6.530   5.517
15947TIP3    H147726   8.445   6.577   5.599
15947TIP3    H247727   8.458   6.598   5.449
15948TIP3   OH247728   8.148   6.576   3.986
15948TIP3    H147729   8.104   6.588   3.902
15948TIP3    H247730   8.229   6.626   3.977
15949TIP3   OH247731   7.849   5.992   4.308
15949TIP3    H147732   7.818   6.000   4.398
15949TIP3    H247733   7.817   5.906   4.279
15950TIP3   OH247734   7.645   6.511   5.363
15950TIP3    H147735   7.599   6.519   5.446
15950TIP3    H247736   7.620   6.589   5.314
15951TIP3   OH247737   7.535   6.384   4.887
15951TIP3    H147738   7.445   6.362   4.914
15951TIP3    H247739   7.542   6.349   4.799
15952TIP3   OH247740   8.012   6.462   4.615
15952TIP3    H147741   7.966   6.535   4.574
15952TIP3    H247742   8.068   6.427   4.546
15953TIP3   OH247743   8.182   6.470   4.837
15953TIP3    H147744   8.113   6.492   4.773
15953TIP3    H247745   8.228   6.397   4.797
15954TIP3   OH247746   7.477   6.514   5.584
15954TIP3    H147747   7.478   6.578   5.655
15954TIP3    H247748   7.461   6.430   5.627
15955TIP3   OH247749   7.522   5.970   4.294
15955TIP3    H147750   7.520   5.974   4.390
15955TIP3    H247751   7.452   6.029   4.266
15956TIP3   OH247752   7.079   6.043   5.162
15956TIP3    H147753   7.153   6.076   5.212
15956TIP3    H247754   7.116   6.019   5.077
15957TIP3   OH247755   6.993   6.023   4.676
15957TIP3    H147756   7.036   6.055   4.598
15957TIP3    H247757   6.927   6.089   4.697
15958TIP3   OH247758   8.206   6.720   5.265
15958TIP3    H147759   8.232   6.650   5.204
15958TIP3    H247760   8.160   6.674   5.335
15959TIP3   OH247761   7.904   6.174   4.938
15959TIP3    H147762   7.825   6.175   4.992
15959TIP3    H247763   7.975   6.166   5.002
15960TIP3   OH247764   7.294   6.263   4.947
15960TIP3    H147765   7.206   6.267   4.909
15960TIP3    H247766   7.322   6.172   4.934
15961TIP3   OH247767   7.552   6.260   4.644
15961TIP3    H147768   7.646   6.269   4.634
15961TIP3    H247769   7.517   6.280   4.557
15962TIP3   OH247770   8.351   6.262   5.153
15962TIP3    H147771   8.331   6.282   5.244
15962TIP3    H247772   8.283   6.200   5.126
15963TIP3   OH247773   7.442   6.293   4.397
15963TIP3    H147774   7.379   6.242   4.347
15963TIP3    H247775   7.495   6.338   4.331
15964TIP3   OH247776   8.545   7.966   5.382
15964TIP3    H147777   8.549   7.971   5.286
15964TIP3    H247778   8.625   8.010   5.411
15965TIP3   OH247779   7.478   7.069   5.764
15965TIP3    H147780   7.559   7.086   5.812
15965TIP3    H247781   7.410   7.071   5.831
15966TIP3   OH247782   7.950   6.543   5.028
15966TIP3    H147783   8.017   6.492   4.984
15966TIP3    H247784   7.938   6.499   5.113
15967TIP3   OH247785   7.439   6.014   4.936
15967TIP3    H147786   7.410   5.939   4.987
15967TIP3    H247787   7.462   5.978   4.850
15968TIP3   OH247788   7.900   6.441   5.286
15968TIP3    H147789   7.814   6.472   5.312
15968TIP3    H247790   7.961   6.492   5.339
15969TIP3   OH247791   7.665   6.807   4.405
15969TIP3    H147792   7.591   6.752   4.381
15969TIP3    H247793   7.638   6.848   4.487
15970TIP3   OH247794   8.540   7.045   5.034
15970TIP3    H147795   8.574   7.094   4.959
15970TIP3    H247796   8.462   7.001   5.001
15971TIP3   OH247797   8.098   6.115   4.329
15971TIP3    H147798   8.006   6.089   4.320
15971TIP3    H247799   8.096   6.210   4.340
15972TIP3   OH247800   8.042   7.111   5.419
15972TIP3    H147801   8.126   7.127   5.461
15972TIP3    H247802   7.988   7.187   5.442
15973TIP3   OH247803   8.172   6.380   4.399
15973TIP3    H147804   8.267   6.382   4.408
15973TIP3    H247805   8.151   6.456   4.345
15974TIP3   OH247806   7.346   6.804   5.077
15974TIP3    H147807   7.388   6.790   4.993
15974TIP3    H247808   7.410   6.772   5.141
15975TIP3   OH247809   7.843   6.970   4.255
15975TIP3    H147810   7.787   7.047   4.244
15975TIP3    H247811   7.786   6.903   4.293
15976TIP3   OH247812   7.224   6.737   5.703
15976TIP3    H147813   7.221   6.706   5.794
15976TIP3    H247814   7.146   6.698   5.662
15977TIP3   OH247815   7.954   6.879   5.714
15977TIP3    H147816   7.875   6.826   5.729
15977TIP3    H247817   7.966   6.877   5.619
15978TIP3   OH247818   8.198   7.413   5.329
15978TIP3    H147819   8.107   7.406   5.358
15978TIP3    H247820   8.247   7.354   5.386
15979TIP3   OH247821   8.588   6.469   4.207
15979TIP3    H147822   8.533   6.421   4.145
15979TIP3    H247823   8.591   6.559   4.173
15980TIP3   OH247824   8.871   7.384   5.288
15980TIP3    H147825   8.786   7.349   5.314
15980TIP3    H247826   8.891   7.339   5.206
15981TIP3   OH247827   8.313   6.901   4.932
15981TIP3    H147828   8.224   6.879   4.959
15981TIP3    H247829   8.348   6.819   4.896
15982TIP3   OH247830   7.472   7.156   4.736
15982TIP3    H147831   7.461   7.230   4.676
15982TIP3    H247832   7.388   7.149   4.781
15983TIP3   OH247833   7.023   6.440   4.453
15983TIP3    H147834   7.067   6.521   4.477
15983TIP3    H247835   6.943   6.440   4.505
15984TIP3   OH247836   7.553   6.914   4.629
15984TIP3    H147837   7.535   7.002   4.662
15984TIP3    H247838   7.529   6.857   4.702
15985TIP3   OH247839   7.750   7.482   5.193
15985TIP3    H147840   7.795   7.552   5.144
15985TIP3    H247841   7.817   7.448   5.252
15986TIP3   OH247842   7.385   7.372   4.579
15986TIP3    H147843   7.299   7.378   4.620
15986TIP3    H247844   7.420   7.461   4.584
15987TIP3   OH247845   8.105   7.112   5.153
15987TIP3    H147846   8.084   7.116   5.247
15987TIP3    H247847   8.175   7.047   5.147
15988TIP3   OH247848   8.060   7.006   4.066
15988TIP3    H147849   8.134   6.978   4.119
15988TIP3    H247850   7.983   6.988   4.121
15989TIP3   OH247851   8.332   7.622   5.215
15989TIP3    H147852   8.292   7.552   5.266
15989TIP3    H247853   8.265   7.646   5.151
15990TIP3   OH247854   8.412   7.475   3.833
15990TIP3    H147855   8.417   7.530   3.754
15990TIP3    H247856   8.348   7.520   3.889
15991TIP3   OH247857   7.431   6.263   5.703
15991TIP3    H147858   7.337   6.276   5.708
15991TIP3    H247859   7.455   6.223   5.787
15992TIP3   OH247860   8.275   6.919   4.212
15992TIP3    H147861   8.262   6.868   4.292
15992TIP3    H247862   8.368   6.939   4.212
15993TIP3   OH247863   7.163   7.344   5.371
15993TIP3    H147864   7.235   7.294   5.410
15993TIP3    H247865   7.116   7.379   5.447
15994TIP3   OH247866   7.438   7.011   4.045
15994TIP3    H147867   7.504   6.952   4.009
15994TIP3    H247868   7.440   6.995   4.140
15995TIP3   OH247869   7.401   6.996   4.321
15995TIP3    H147870   7.458   6.969   4.393
15995TIP3    H247871   7.402   7.092   4.325
15996TIP3   OH247872   7.119   6.691   4.534
15996TIP3    H147873   7.057   6.740   4.587
15996TIP3    H247874   7.139   6.750   4.461
15997TIP3   OH247875   8.289   6.333   5.414
15997TIP3    H147876   8.360   6.383   5.455
15997TIP3    H247877   8.282   6.253   5.467
15998TIP3   OH247878   8.174   6.070   4.594
15998TIP3    H147879   8.149   6.087   4.503
15998TIP3    H247880   8.218   6.150   4.623
15999TIP3   OH247881   7.684   7.193   4.251
15999TIP3    H147882   7.594   7.218   4.272
15999TIP3    H247883   7.737   7.243   4.313
16000TIP3   OH247884   7.831   6.264   4.684
16000TIP3    H147885   7.891   6.335   4.659
16000TIP3    H247886   7.854   6.244   4.775
16001TIP3   OH247887   8.100   6.538   5.450
16001TIP3    H147888   8.070   6.532   5.541
16001TIP3    H247889   8.159   6.463   5.438
16002TIP3   OH247890   7.988   5.965   4.771
16002TIP3    H147891   7.965   6.042   4.822
16002TIP3    H247892   8.058   5.995   4.712
16003TIP3   OH247893   7.424   7.270   4.324
16003TIP3    H147894   7.400   7.341   4.265
16003TIP3    H247895   7.413   7.306   4.412
16004TIP3   OH247896   7.507   5.989   4.575
16004TIP3    H147897   7.496   6.079   4.604
16004TIP3    H247898   7.601   5.974   4.579
16005TIP3   OH247899   8.720   6.458   5.449
16005TIP3    H147900   8.629   6.464   5.479
16005TIP3    H247901   8.718   6.397   5.375
16006TIP3   OH247902   8.406   6.653   4.834
16006TIP3    H147903   8.331   6.595   4.843
16006TIP3    H247904   8.474   6.614   4.889
16007TIP3   OH247905   7.147   6.870   4.320
16007TIP3    H147906   7.218   6.933   4.333
16007TIP3    H247907   7.178   6.812   4.251
16008TIP3   OH247908   7.050   6.161   4.447
16008TIP3    H147909   7.057   6.256   4.453
16008TIP3    H247910   6.983   6.146   4.380
16009TIP3   OH247911   8.337   7.624   4.772
16009TIP3    H147912   8.243   7.614   4.756
16009TIP3    H247913   8.364   7.540   4.807
16010TIP3   OH247914   7.462   5.883   5.313
16010TIP3    H147915   7.430   5.852   5.228
16010TIP3    H247916   7.451   5.808   5.372
16011TIP3   OH247917   6.978   7.142   4.713
16011TIP3    H147918   6.937   7.180   4.791
16011TIP3    H247919   6.935   7.186   4.640
16012TIP3   OH247920   7.190   7.678   5.788
16012TIP3    H147921   7.262   7.701   5.848
16012TIP3    H247922   7.191   7.582   5.785
16013TIP3   OH247923   7.701   7.630   5.726
16013TIP3    H147924   7.770   7.579   5.767
16013TIP3    H247925   7.637   7.565   5.697
16014TIP3   OH247926   7.615   7.208   3.966
16014TIP3    H147927   7.541   7.149   3.984
16014TIP3    H247928   7.679   7.187   4.034
16015TIP3   OH247929   8.102   7.233   3.921
16015TIP3    H147930   8.084   7.162   3.983
16015TIP3    H247931   8.177   7.279   3.959
16016TIP3   OH247932   7.289   7.015   5.953
16016TIP3    H147933   7.274   6.928   5.991
16016TIP3    H247934   7.202   7.046   5.930
16017TIP3   OH247935   7.285   6.707   4.147
16017TIP3    H147936   7.334   6.673   4.221
16017TIP3    H247937   7.346   6.768   4.104
16018TIP3   OH247938   7.909   7.166   5.753
16018TIP3    H147939   7.856   7.183   5.674
16018TIP3    H247940   7.943   7.078   5.741
16019TIP3   OH247941   7.445   6.761   5.984
16019TIP3    H147942   7.485   6.813   5.915
16019TIP3    H247943   7.455   6.815   6.063
16020TIP3   OH247944   7.447   6.633   4.366
16020TIP3    H147945   7.423   6.608   4.455
16020TIP3    H247946   7.493   6.556   4.332
16021TIP3   OH247947   7.741   6.705   5.613
16021TIP3    H147948   7.656   6.747   5.620
16021TIP3    H247949   7.784   6.751   5.540
16022TIP3   OH247950   7.588   6.442   4.218
16022TIP3    H147951   7.574   6.454   4.125
16022TIP3    H247952   7.683   6.437   4.228
16023TIP3   OH247953   8.282   6.986   5.762
16023TIP3    H147954   8.284   7.040   5.684
16023TIP3    H247955   8.276   7.049   5.835
16024TIP3   OH247956   8.362   6.731   3.898
16024TIP3    H147957   8.366   6.695   3.810
16024TIP3    H247958   8.324   6.819   3.886
16025TIP3   OH247959   7.880   6.488   5.708
16025TIP3    H147960   7.868   6.412   5.651
16025TIP3    H247961   7.829   6.557   5.668
16026TIP3   OH247962   7.869   6.273   5.522
16026TIP3    H147963   7.887   6.305   5.433
16026TIP3    H247964   7.778   6.245   5.519
16027TIP3   OH247965   7.903   6.850   5.432
16027TIP3    H147966   7.979   6.905   5.412
16027TIP3    H247967   7.833   6.884   5.376
16028TIP3   OH247968   8.532   6.981   5.483
16028TIP3    H147969   8.462   7.044   5.496
16028TIP3    H247970   8.610   7.034   5.467
16029TIP3   OH247971   7.765   6.549   5.961
16029TIP3    H147972   7.690   6.492   5.976
16029TIP3    H247973   7.793   6.529   5.871
16030TIP3   OH247974   7.993   6.048   5.640
16030TIP3    H147975   7.951   6.126   5.603
16030TIP3    H247976   7.928   5.979   5.630
16031TIP3   OH247977   8.323   6.528   5.800
16031TIP3    H147978   8.293   6.458   5.742
16031TIP3    H247979   8.415   6.506   5.817
16032TIP3   OH247980   8.582   6.439   5.860
16032TIP3    H147981   8.600   6.345   5.862
16032TIP3    H247982   8.586   6.466   5.952
16033TIP3   OH247983   7.584   6.341   6.037
16033TIP3    H147984   7.587   6.250   6.006
16033TIP3    H247985   7.620   6.338   6.125
16034TIP3   OH247986   8.070   6.034   5.905
16034TIP3    H147987   8.133   5.962   5.897
16034TIP3    H247988   8.033   6.044   5.818
16035TIP3   OH247989   8.179   6.260   6.025
16035TIP3    H147990   8.148   6.181   5.981
16035TIP3    H247991   8.101   6.314   6.036
16036TIP3   OH247992   7.402   7.487   4.150
16036TIP3    H147993   7.497   7.486   4.135
16036TIP3    H247994   7.366   7.530   4.072
16037TIP3   OH247995   6.870   6.876   4.316
16037TIP3    H147996   6.965   6.884   4.324
16037TIP3    H247997   6.857   6.787   4.282
16038TIP3   OH247998   6.779   7.453   4.798
16038TIP3    H147999   6.714   7.399   4.751
16038TIP3    H248000   6.822   7.391   4.858
16039TIP3   OH248001   6.928   7.286   4.963
16039TIP3    H148002   6.918   7.216   5.028
16039TIP3    H248003   6.979   7.353   5.008
16040TIP3   OH248004   8.614   7.775   4.745
16040TIP3    H148005   8.641   7.756   4.835
16040TIP3    H248006   8.696   7.775   4.695
16041TIP3   OH248007   8.670   7.706   5.014
16041TIP3    H148008   8.622   7.624   5.024
16041TIP3    H248009   8.741   7.700   5.077
16042TIP3   OH248010   8.732   7.423   5.628
16042TIP3    H148011   8.653   7.430   5.682
16042TIP3    H248012   8.773   7.510   5.634
16043TIP3   OH248013   8.555   6.935   4.228
16043TIP3    H148014   8.612   7.006   4.200
16043TIP3    H248015   8.599   6.896   4.304
16044TIP3   OH248016   8.681   6.794   4.432
16044TIP3    H148017   8.615   6.755   4.489
16044TIP3    H248018   8.746   6.831   4.493
16045TIP3   OH248019   8.706   7.190   4.856
16045TIP3    H148020   8.769   7.120   4.834
16045TIP3    H248021   8.734   7.265   4.803
16046TIP3   OH248022   8.521   7.476   5.062
16046TIP3    H148023   8.454   7.517   5.117
16046TIP3    H248024   8.470   7.431   4.994
16047TIP3   OH248025   8.576   6.710   4.072
16047TIP3    H148026   8.501   6.712   4.013
16047TIP3    H248027   8.565   6.788   4.127
16048TIP3   OH248028   8.439   6.350   4.010
16048TIP3    H148029   8.384   6.384   3.939
16048TIP3    H248030   8.436   6.255   3.999
16049TIP3   OH248031   8.478   6.652   4.565
16049TIP3    H148032   8.481   6.558   4.548
16049TIP3    H248033   8.457   6.659   4.659
16050TIP3   OH248034   7.093   6.719   5.336
16050TIP3    H148035   7.086   6.687   5.246
16050TIP3    H248036   7.186   6.717   5.356
16051TIP3   OH248037   8.773   7.097   5.404
16051TIP3    H148038   8.832   7.028   5.375
16051TIP3    H248039   8.739   7.136   5.323
16052TIP3   OH248040   8.942   6.869   5.408
16052TIP3    H148041   8.867   6.834   5.456
16052TIP3    H248042   9.015   6.814   5.435
16053TIP3   OH248043   8.405   6.077   3.977
16053TIP3    H148044   8.468   6.055   4.047
16053TIP3    H248045   8.321   6.046   4.011
16054TIP3   OH248046   8.469   6.377   4.451
16054TIP3    H148047   8.515   6.294   4.465
16054TIP3    H248048   8.509   6.414   4.372
16055TIP3   OH248049   8.621   6.538   4.976
16055TIP3    H148050   8.702   6.557   4.928
16055TIP3    H248051   8.634   6.579   5.062
16056TIP3   OH248052   8.694   6.687   5.200
16056TIP3    H148053   8.618   6.709   5.254
16056TIP3    H248054   8.724   6.770   5.164
16057TIP3   OH248055   7.317   6.391   5.973
16057TIP3    H148056   7.410   6.394   5.996
16057TIP3    H248057   7.284   6.313   6.018
16058TIP3   OH248058   9.156   6.289   5.742
16058TIP3    H148059   9.217   6.231   5.697
16058TIP3    H248060   9.116   6.341   5.672
16059TIP3   OH248061   8.584   6.128   4.507
16059TIP3    H148062   8.627   6.114   4.591
16059TIP3    H248063   8.520   6.057   4.500
16060TIP3   OH248064   7.299   6.108   5.315
16060TIP3    H148065   7.353   6.029   5.328
16060TIP3    H248066   7.362   6.179   5.303
16061TIP3   OH248067   7.075   6.365   5.399
16061TIP3    H148068   7.126   6.364   5.319
16061TIP3    H248069   7.094   6.449   5.440
16062TIP3   OH248070   9.000   6.419   5.559
16062TIP3    H148071   8.932   6.457   5.615
16062TIP3    H248072   8.951   6.366   5.496
16063TIP3   OH248073   8.628   6.042   4.141
16063TIP3    H148074   8.678   5.981   4.087
16063TIP3    H248075   8.684   6.119   4.148
16064TIP3   OH248076   7.058   5.888   4.905
16064TIP3    H148077   6.971   5.878   4.943
16064TIP3    H248078   7.044   5.943   4.828
16065TIP3   OH248079   7.281   5.925   5.711
16065TIP3    H148080   7.238   5.930   5.797
16065TIP3    H248081   7.228   5.982   5.655
16066TIP3   OH248082   7.513   7.430   5.325
16066TIP3    H148083   7.461   7.507   5.304
16066TIP3    H248084   7.600   7.448   5.288
16067TIP3   OH248085   7.942   7.666   5.480
16067TIP3    H148086   7.983   7.654   5.566
16067TIP3    H248087   7.999   7.729   5.435
16068TIP3   OH248088   8.119   7.832   5.348
16068TIP3    H148089   8.183   7.780   5.299
16068TIP3    H248090   8.173   7.886   5.407
16069TIP3   OH248091   8.910   6.152   5.444
16069TIP3    H148092   8.823   6.140   5.407
16069TIP3    H248093   8.952   6.066   5.435
16070TIP3   OH248094   7.184   7.797   5.346
16070TIP3    H148095   7.089   7.783   5.351
16070TIP3    H248096   7.209   7.822   5.435
16071TIP3   OH248097   7.410   7.674   5.236
16071TIP3    H148098   7.330   7.705   5.279
16071TIP3    H248099   7.394   7.688   5.142
16072TIP3   OH248100   7.845   7.687   5.028
16072TIP3    H148101   7.767   7.696   4.972
16072TIP3    H248102   7.851   7.771   5.074
16073TIP3   OH248103   8.127   7.687   5.043
16073TIP3    H148104   8.034   7.670   5.058
16073TIP3    H248105   8.134   7.705   4.950
16074TIP3   OH248106   7.105   7.460   5.120
16074TIP3    H148107   7.127   7.431   5.209
16074TIP3    H248108   7.176   7.426   5.065
16075TIP3   OH248109   7.301   7.347   4.968
16075TIP3    H148110   7.311   7.261   5.009
16075TIP3    H248111   7.389   7.386   4.973
16076TIP3   OH248112   7.571   7.431   4.986
16076TIP3    H148113   7.589   7.337   4.974
16076TIP3    H248114   7.621   7.454   5.065
16077TIP3   OH248115   8.133   6.082   5.083
16077TIP3    H148116   8.090   6.010   5.130
16077TIP3    H248117   8.199   6.039   5.028
16078TIP3   OH248118   8.624   6.013   4.981
16078TIP3    H148119   8.658   6.057   4.903
16078TIP3    H248120   8.529   6.019   4.971
16079TIP3   OH248121   8.735   6.075   4.735
16079TIP3    H148122   8.802   6.013   4.707
16079TIP3    H248123   8.773   6.161   4.719
16080TIP3   OH248124   7.366   5.784   5.073
16080TIP3    H148125   7.278   5.749   5.086
16080TIP3    H248126   7.421   5.706   5.066
16081TIP3   OH248127   7.164   5.683   4.744
16081TIP3    H148128   7.190   5.733   4.667
16081TIP3    H248129   7.136   5.749   4.808
16082TIP3   OH248130   7.848   5.821   4.971
16082TIP3    H148131   7.895   5.868   4.902
16082TIP3    H248132   7.890   5.850   5.052
16083TIP3   OH248133   8.344   5.961   4.948
16083TIP3    H148134   8.357   5.925   4.860
16083TIP3    H248135   8.349   5.884   5.005
16084TIP3   OH248136   8.396   5.921   4.514
16084TIP3    H148137   8.315   5.966   4.538
16084TIP3    H248138   8.387   5.834   4.552
16085TIP3   OH248139   6.863   7.261   4.493
16085TIP3    H148140   6.778   7.225   4.468
16085TIP3    H248141   6.863   7.350   4.459
16086TIP3   OH248142   7.295   5.817   4.509
16086TIP3    H148143   7.347   5.738   4.498
16086TIP3    H248144   7.358   5.883   4.537
16087TIP3   OH248145   7.783   6.016   4.576
16087TIP3    H148146   7.839   5.961   4.631
16087TIP3    H248147   7.800   6.105   4.606
16088TIP3   OH248148   7.666   7.458   4.081
16088TIP3    H148149   7.757   7.468   4.051
16088TIP3    H248150   7.636   7.377   4.039
16089TIP3   OH248151   7.595   6.066   5.957
16089TIP3    H148152   7.560   5.999   6.016
16089TIP3    H248153   7.687   6.074   5.983
16090TIP3   OH248154   7.844   6.073   6.080
16090TIP3    H148155   7.924   6.054   6.032
16090TIP3    H248156   7.836   6.003   6.144
16091TIP3   OH248157   6.966   7.256   4.146
16091TIP3    H148158   6.966   7.260   4.242
16091TIP3    H248159   7.047   7.211   4.124
16092TIP3   OH248160   8.661   6.171   5.865
16092TIP3    H148161   8.680   6.141   5.954
16092TIP3    H248162   8.746   6.165   5.820
16093TIP3   OH248163   8.574   7.692   5.350
16093TIP3    H148164   8.493   7.663   5.310
16093TIP3    H248165   8.557   7.782   5.377
16094TIP3   OH248166   9.779   7.137   4.174
16094TIP3    H148167   9.791   7.215   4.119
16094TIP3    H248168   9.725   7.079   4.120
16095TIP3   OH248169   9.768   7.083   4.529
16095TIP3    H148170   9.820   7.096   4.608
16095TIP3    H248171   9.731   6.995   4.539
16096TIP3   OH248172   9.144   6.930   4.881
16096TIP3    H148173   9.184   6.884   4.955
16096TIP3    H248174   9.218   6.959   4.828
16097TIP3   OH248175   9.116   7.356   4.576
16097TIP3    H148176   9.107   7.261   4.573
16097TIP3    H248177   9.210   7.371   4.566
16098TIP3   OH248178   8.824   6.568   4.343
16098TIP3    H148179   8.786   6.652   4.370
16098TIP3    H248180   8.751   6.520   4.304
16099TIP3   OH248181   8.906   6.884   4.576
16099TIP3    H148182   8.954   6.805   4.600
16099TIP3    H248183   8.973   6.947   4.553
16100TIP3   OH248184   9.762   7.843   4.252
16100TIP3    H148185   9.766   7.747   4.248
16100TIP3    H248186   9.717   7.861   4.335
16101TIP3   OH248187   9.632   7.322   4.528
16101TIP3    H148188   9.666   7.238   4.497
16101TIP3    H248189   9.708   7.368   4.563
16102TIP3   OH248190   0.239   6.945   4.549
16102TIP3    H148191   0.308   6.882   4.570
16102TIP3    H248192   0.183   6.899   4.486
16103TIP3   OH248193   9.382   6.440   4.548
16103TIP3    H148194   9.361   6.509   4.486
16103TIP3    H248195   9.335   6.363   4.516
16104TIP3   OH248196   0.350   6.407   4.129
16104TIP3    H148197   0.387   6.364   4.205
16104TIP3    H248198   0.351   6.500   4.150
16105TIP3   OH248199   9.038   6.656   4.660
16105TIP3    H148200   9.118   6.635   4.708
16105TIP3    H248201   9.041   6.602   4.581
16106TIP3   OH248202   9.439   6.853   4.484
16106TIP3    H148203   9.530   6.837   4.508
16106TIP3    H248204   9.408   6.770   4.447
16107TIP3   OH248205   9.382   6.459   5.003
16107TIP3    H148206   9.333   6.496   4.930
16107TIP3    H248207   9.327   6.476   5.080
16108TIP3   OH248208   9.766   7.301   3.940
16108TIP3    H148209   9.713   7.274   3.865
16108TIP3    H248210   9.724   7.381   3.971
16109TIP3   OH248211   9.492   7.226   4.745
16109TIP3    H148212   9.437   7.295   4.783
16109TIP3    H248213   9.535   7.267   4.671
16110TIP3   OH248214   9.273   6.554   4.770
16110TIP3    H148215   9.328   6.631   4.787
16110TIP3    H248216   9.317   6.510   4.697
16111TIP3   OH248217   9.338   7.425   4.855
16111TIP3    H148218   9.330   7.517   4.829
16111TIP3    H248219   9.259   7.408   4.907
16112TIP3   OH248220   8.723   7.126   4.111
16112TIP3    H148221   8.686   7.143   4.024
16112TIP3    H248222   8.747   7.213   4.144
16113TIP3   OH248223   9.669   6.134   4.706
16113TIP3    H148224   9.662   6.049   4.749
16113TIP3    H248225   9.605   6.189   4.753
16114TIP3   OH248226   0.085   7.670   3.986
16114TIP3    H148227   0.167   7.635   4.021
16114TIP3    H248228   0.093   7.764   3.998
16115TIP3   OH248229   9.641   6.979   3.985
16115TIP3    H148230   9.563   7.020   3.949
16115TIP3    H248231   9.672   6.920   3.916
16116TIP3   OH248232   9.590   6.726   3.665
16116TIP3    H148233   9.632   6.729   3.751
16116TIP3    H248234   9.638   6.659   3.617
16117TIP3   OH248235   9.254   6.989   4.329
16117TIP3    H148236   9.220   6.929   4.263
16117TIP3    H248237   9.325   6.941   4.371
16118TIP3   OH248238   9.376   7.416   4.477
16118TIP3    H148239   9.356   7.403   4.384
16118TIP3    H248240   9.466   7.384   4.486
16119TIP3   OH248241   9.355   6.992   4.707
16119TIP3    H148242   9.389   6.953   4.627
16119TIP3    H248243   9.406   7.071   4.720
16120TIP3   OH248244   0.032   7.673   4.540
16120TIP3    H148245   0.127   7.686   4.544
16120TIP3    H248246   0.021   7.581   4.566
16121TIP3   OH248247   9.541   7.523   5.017
16121TIP3    H148248   9.482   7.582   5.063
16121TIP3    H248249   9.484   7.471   4.960
16122TIP3   OH248250   0.150   6.863   3.775
16122TIP3    H148251   0.158   6.946   3.822
16122TIP3    H248252   0.133   6.889   3.685
16123TIP3   OH248253   9.296   7.070   5.160
16123TIP3    H148254   9.302   7.163   5.183
16123TIP3    H248255   9.202   7.052   5.157
16124TIP3   OH248256   9.642   7.542   4.003
16124TIP3    H148257   9.725   7.589   4.005
16124TIP3    H248258   9.585   7.597   3.949
16125TIP3   OH248259   9.340   7.681   5.119
16125TIP3    H148260   9.312   7.696   5.028
16125TIP3    H248261   9.258   7.664   5.166
16126TIP3   OH248262   9.136   6.825   4.131
16126TIP3    H148263   9.058   6.870   4.101
16126TIP3    H248264   9.109   6.734   4.140
16127TIP3   OH248265   8.929   7.239   5.059
16127TIP3    H148266   8.848   7.216   5.014
16127TIP3    H248267   8.964   7.156   5.091
16128TIP3   OH248268   8.843   7.399   4.701
16128TIP3    H148269   8.924   7.375   4.658
16128TIP3    H248270   8.868   7.468   4.763
16129TIP3   OH248271   9.753   7.640   4.887
16129TIP3    H148272   9.748   7.733   4.909
16129TIP3    H248273   9.678   7.601   4.931
16130TIP3   OH248274   9.535   7.755   3.829
16130TIP3    H148275   9.486   7.734   3.750
16130TIP3    H248276   9.490   7.830   3.867
16131TIP3   OH248277   8.943   7.614   4.227
16131TIP3    H148278   8.986   7.609   4.312
16131TIP3    H248279   8.894   7.532   4.220
16132TIP3   OH248280   9.688   7.747   3.476
16132TIP3    H148281   9.729   7.700   3.403
16132TIP3    H248282   9.745   7.729   3.551
16133TIP3   OH248283   9.792   7.685   3.727
16133TIP3    H148284   9.705   7.710   3.756
16133TIP3    H248285   9.841   7.668   3.808
16134TIP3   OH248286   9.120   7.432   5.025
16134TIP3    H148287   9.171   7.423   5.106
16134TIP3    H248288   9.053   7.364   5.033
16135TIP3   OH248289   9.471   6.246   4.857
16135TIP3    H148290   9.388   6.210   4.827
16135TIP3    H248291   9.446   6.324   4.907
16136TIP3   OH248292   0.349   6.315   5.017
16136TIP3    H148293   0.317   6.318   5.107
16136TIP3    H248294   0.308   6.236   4.980
16137TIP3   OH248295   9.668   6.167   3.818
16137TIP3    H148296   9.667   6.186   3.912
16137TIP3    H248297   9.578   6.141   3.798
16138TIP3   OH248298   9.425   6.766   4.852
16138TIP3    H148299   9.385   6.777   4.938
16138TIP3    H248300   9.409   6.850   4.807
16139TIP3   OH248301   9.311   6.635   4.370
16139TIP3    H148302   9.221   6.612   4.392
16139TIP3    H248303   9.324   6.600   4.282
16140TIP3   OH248304   9.740   6.801   4.166
16140TIP3    H148305   9.684   6.865   4.124
16140TIP3    H248306   9.824   6.809   4.121
16141TIP3   OH248307   0.148   7.013   5.170
16141TIP3    H148308   0.145   6.950   5.242
16141TIP3    H248309   0.241   7.033   5.159
16142TIP3   OH248310   0.081   6.778   4.399
16142TIP3    H148311   0.035   6.818   4.326
16142TIP3    H248312   0.091   6.686   4.374
16143TIP3   OH248313   9.279   6.783   5.082
16143TIP3    H148314   9.294   6.852   5.147
16143TIP3    H248315   9.260   6.705   5.134
16144TIP3   OH248316   9.307   6.298   3.795
16144TIP3    H148317   9.303   6.296   3.891
16144TIP3    H248318   9.226   6.341   3.768
16145TIP3   OH248319   8.867   6.294   4.650
16145TIP3    H148320   8.937   6.331   4.704
16145TIP3    H248321   8.909   6.271   4.568
16146TIP3   OH248322   8.781   6.273   4.159
16146TIP3    H148323   8.831   6.306   4.085
16146TIP3    H248324   8.718   6.342   4.179
16147TIP3   OH248325   0.135   7.086   4.763
16147TIP3    H148326   0.189   7.055   4.690
16147TIP3    H248327   0.182   7.058   4.841
16148TIP3   OH248328   9.633   6.489   4.447
16148TIP3    H148329   9.553   6.471   4.496
16148TIP3    H248330   9.704   6.459   4.505
16149TIP3   OH248331   9.077   6.507   4.433
16149TIP3    H148332   8.990   6.515   4.394
16149TIP3    H248333   9.103   6.416   4.416
16150TIP3   OH248334   9.326   6.510   4.125
16150TIP3    H148335   9.416   6.536   4.109
16150TIP3    H248336   9.279   6.533   4.045
16151TIP3   OH248337   0.209   6.501   4.695
16151TIP3    H148338   0.197   6.530   4.785
16151TIP3    H248339   0.131   6.448   4.677
16152TIP3   OH248340   9.184   6.560   3.894
16152TIP3    H148341   9.115   6.510   3.851
16152TIP3    H248342   9.235   6.597   3.822
16153TIP3   OH248343   9.282   7.334   5.257
16153TIP3    H148344   9.362   7.355   5.306
16153TIP3    H248345   9.213   7.340   5.323
16154TIP3   OH248346   9.692   6.816   4.588
16154TIP3    H148347   9.759   6.786   4.526
16154TIP3    H248348   9.699   6.756   4.662
16155TIP3   OH248349   9.216   6.257   4.419
16155TIP3    H148350   9.190   6.180   4.470
16155TIP3    H248351   9.248   6.221   4.336
16156TIP3   OH248352   9.678   6.674   4.829
16156TIP3    H148353   9.589   6.709   4.832
16156TIP3    H248354   9.729   6.732   4.886
16157TIP3   OH248355   9.401   7.086   3.891
16157TIP3    H148356   9.336   7.018   3.876
16157TIP3    H248357   9.386   7.115   3.981
16158TIP3   OH248358   0.216   6.423   3.753
16158TIP3    H148359   0.206   6.346   3.810
16158TIP3    H248360   0.236   6.494   3.814
16159TIP3   OH248361   0.098   7.391   4.927
16159TIP3    H148362   0.114   7.370   5.019
16159TIP3    H248363   0.055   7.476   4.929
16160TIP3   OH248364   0.258   6.649   3.902
16160TIP3    H148365   0.347   6.664   3.933
16160TIP3    H248366   0.229   6.734   3.868
16161TIP3   OH248367   9.125   7.074   4.557
16161TIP3    H148368   9.163   7.054   4.472
16161TIP3    H248369   9.192   7.046   4.620
16162TIP3   OH248370   9.587   7.221   3.742
16162TIP3    H148371   9.545   7.307   3.739
16162TIP3    H248372   9.524   7.166   3.788
16163TIP3   OH248373   9.025   7.007   5.184
16163TIP3    H148374   9.028   6.981   5.276
16163TIP3    H248375   8.951   6.958   5.148
16164TIP3   OH248376   9.720   7.151   5.218
16164TIP3    H148377   9.654   7.090   5.184
16164TIP3    H248378   9.803   7.118   5.184
16165TIP3   OH248379   0.222   7.667   4.798
16165TIP3    H148380   0.127   7.655   4.803
16165TIP3    H248381   0.247   7.700   4.884
16166TIP3   OH248382   9.258   7.415   4.227
16166TIP3    H148383   9.259   7.492   4.169
16166TIP3    H248384   9.166   7.390   4.232
16167TIP3   OH248385   8.814   6.697   3.933
16167TIP3    H148386   8.859   6.778   3.957
16167TIP3    H248387   8.733   6.699   3.984
16168TIP3   OH248388   9.347   7.168   4.139
16168TIP3    H148389   9.335   7.258   4.170
16168TIP3    H248390   9.319   7.114   4.212
16169TIP3   OH248391   9.559   7.732   4.672
16169TIP3    H148392   9.598   7.792   4.610
16169TIP3    H248393   9.633   7.686   4.711
16170TIP3   OH248394   9.171   7.633   4.076
16170TIP3    H148395   9.085   7.637   4.118
16170TIP3    H248396   9.203   7.723   4.079
16171TIP3   OH248397   0.063   7.413   4.647
16171TIP3    H148398   0.066   7.390   4.740
16171TIP3    H248399   0.155   7.422   4.622
16172TIP3   OH248400   9.221   6.531   5.210
16172TIP3    H148401   9.126   6.543   5.210
16172TIP3    H248402   9.238   6.470   5.283
16173TIP3   OH248403   8.963   7.608   4.857
16173TIP3    H148404   9.020   7.550   4.908
16173TIP3    H248405   8.971   7.693   4.901
16174TIP3   OH248406   9.239   7.249   3.538
16174TIP3    H148407   9.251   7.158   3.510
16174TIP3    H248408   9.222   7.242   3.632
16175TIP3   OH248409   9.179   7.257   3.808
16175TIP3    H148410   9.259   7.225   3.850
16175TIP3    H248411   9.183   7.352   3.818
16176TIP3   OH248412   8.914   6.945   4.017
16176TIP3    H148413   8.850   6.995   4.069
16176TIP3    H248414   8.935   7.003   3.944
16177TIP3   OH248415   0.209   6.546   4.963
16177TIP3    H148416   0.229   6.624   5.015
16177TIP3    H248417   0.272   6.481   4.992
16178TIP3   OH248418   0.053   6.493   4.001
16178TIP3    H148419   0.072   6.400   3.986
16178TIP3    H248420   0.136   6.537   3.983
16179TIP3   OH248421   9.450   7.452   3.745
16179TIP3    H148422   9.366   7.475   3.784
16179TIP3    H248423   9.468   7.522   3.683
16180TIP3   OH248424   9.596   6.567   4.183
16180TIP3    H148425   9.640   6.651   4.169
16180TIP3    H248426   9.603   6.551   4.277
16181TIP3   OH248427   0.027   6.818   5.005
16181TIP3    H148428   0.057   6.894   5.055
16181TIP3    H248429   0.093   6.805   4.938
16182TIP3   OH248430   9.730   6.281   4.292
16182TIP3    H148431   9.691   6.357   4.336
16182TIP3    H248432   9.816   6.312   4.263
16183TIP3   OH248433   9.200   7.529   3.826
16183TIP3    H148434   9.179   7.601   3.766
16183TIP3    H248435   9.189   7.567   3.913
16184TIP3   OH248436   9.295   6.239   4.070
16184TIP3    H148437   9.312   6.327   4.104
16184TIP3    H248438   9.380   6.195   4.074
16185TIP3   OH248439   8.934   7.128   3.803
16185TIP3    H148440   9.006   7.190   3.814
16185TIP3    H248441   8.964   7.067   3.736
16186TIP3   OH248442   8.849   6.421   3.938
16186TIP3    H148443   8.854   6.516   3.943
16186TIP3    H248444   8.788   6.405   3.865
16187TIP3   OH248445   9.224   6.141   4.807
16187TIP3    H148446   9.199   6.104   4.722
16187TIP3    H248447   9.220   6.066   4.868
16188TIP3   OH248448   8.768   7.395   4.200
16188TIP3    H148449   8.722   7.422   4.279
16188TIP3    H248450   8.721   7.439   4.129
16189TIP3   OH248451   8.955   7.917   5.273
16189TIP3    H148452   9.040   7.912   5.317
16189TIP3    H248453   8.923   7.827   5.272
16190TIP3   OH248454   9.443   7.849   5.313
16190TIP3    H148455   9.529   7.877   5.283
16190TIP3    H248456   9.413   7.789   5.245
16191TIP3   OH248457   9.393   7.449   3.428
16191TIP3    H148458   9.345   7.378   3.472
16191TIP3    H248459   9.465   7.405   3.382
16192TIP3   OH248460   0.281   7.745   5.063
16192TIP3    H148461   0.262   7.684   5.134
16192TIP3    H248462   0.376   7.754   5.063
16193TIP3   OH248463   9.086   7.332   5.454
16193TIP3    H148464   9.096   7.237   5.464
16193TIP3    H248465   9.002   7.343   5.410
16194TIP3   OH248466   9.055   6.942   3.644
16194TIP3    H148467   9.104   6.917   3.723
16194TIP3    H248468   9.122   6.958   3.578
16195TIP3   OH248469   9.684   7.425   5.226
16195TIP3    H148470   9.641   7.447   5.144
16195TIP3    H248471   9.711   7.333   5.215
16196TIP3   OH248472   9.651   7.175   3.479
16196TIP3    H148473   9.634   7.195   3.571
16196TIP3    H248474   9.605   7.092   3.464
16197TIP3   OH248475   9.200   7.073   5.458
16197TIP3    H148476   9.280   7.055   5.407
16197TIP3    H248477   9.232   7.093   5.546
16198TIP3   OH248478   9.219   6.883   3.864
16198TIP3    H148479   9.201   6.851   3.953
16198TIP3    H248480   9.257   6.808   3.818
16199TIP3   OH248481   9.549   6.963   5.104
16199TIP3    H148482   9.463   7.005   5.109
16199TIP3    H248483   9.587   6.995   5.023
16200TIP3   OH248484   9.321   6.689   3.696
16200TIP3    H148485   9.293   6.693   3.605
16200TIP3    H248486   9.417   6.698   3.692
16201TIP3   OH248487   0.190   7.329   5.198
16201TIP3    H148488   0.280   7.312   5.170
16201TIP3    H248489   0.178   7.273   5.275
16202TIP3   OH248490   9.633   6.734   5.234
16202TIP3    H148491   9.642   6.659   5.174
16202TIP3    H248492   9.611   6.807   5.177
16203TIP3   OH248493   9.643   6.512   5.050
16203TIP3    H148494   9.665   6.568   4.975
16203TIP3    H248495   9.550   6.494   5.040
16204TIP3   OH248496   9.674   7.080   4.891
16204TIP3    H148497   9.760   7.094   4.851
16204TIP3    H248498   9.615   7.136   4.841
16205TIP3   OH248499   0.544   7.019   5.276
16205TIP3    H148500   0.611   6.978   5.222
16205TIP3    H248501   0.593   7.064   5.346
16206TIP3   OH248502   9.507   6.826   5.463
16206TIP3    H148503   9.446   6.757   5.489
16206TIP3    H248504   9.540   6.799   5.378
16207TIP3   OH248505   9.749   6.292   5.186
16207TIP3    H148506   9.719   6.373   5.144
16207TIP3    H248507   9.694   6.224   5.148
16208TIP3   OH248508   0.088   6.792   5.328
16208TIP3    H148509   0.069   6.788   5.422
16208TIP3    H248510   0.006   6.770   5.285
16209TIP3   OH248511   0.288   6.743   5.143
16209TIP3    H148512   0.215   6.758   5.202
16209TIP3    H248513   0.342   6.678   5.188
16210TIP3   OH248514   0.668   6.634   5.462
16210TIP3    H148515   0.652   6.541   5.478
16210TIP3    H248516   0.590   6.664   5.415
16211TIP3   OH248517   9.367   6.595   5.538
16211TIP3    H148518   9.369   6.505   5.506
16211TIP3    H248519   9.404   6.589   5.626
16212TIP3   OH248520  -0.001   6.245   5.447
16212TIP3    H148521   0.054   6.167   5.446
16212TIP3    H248522  -0.030   6.256   5.356
16213TIP3   OH248523   0.053   6.499   5.564
16213TIP3    H148524   0.027   6.429   5.505
16213TIP3    H248525  -0.004   6.572   5.542
16214TIP3   OH248526   9.191   7.744   3.651
16214TIP3    H148527   9.280   7.724   3.622
16214TIP3    H248528   9.149   7.784   3.575
16215TIP3   OH248529   8.659   7.120   3.826
16215TIP3    H148530   8.753   7.137   3.820
16215TIP3    H248531   8.648   7.036   3.783
16216TIP3   OH248532   8.570   7.699   4.270
16216TIP3    H148533   8.535   7.644   4.200
16216TIP3    H248534   8.605   7.637   4.334
16217TIP3   OH248535   8.704   7.537   4.459
16217TIP3    H148536   8.703   7.463   4.520
16217TIP3    H248537   8.757   7.603   4.502
16218TIP3   OH248538   8.883   6.981   4.831
16218TIP3    H148539   8.874   6.947   4.742
16218TIP3    H248540   8.977   6.974   4.850
16219TIP3   OH248541   9.107   6.660   5.473
16219TIP3    H148542   9.201   6.651   5.491
16219TIP3    H248543   9.069   6.580   5.511
16220TIP3   OH248544   9.069   6.368   4.829
16220TIP3    H148545   9.120   6.287   4.831
16220TIP3    H248546   9.133   6.437   4.814
16221TIP3   OH248547   8.863   6.632   4.881
16221TIP3    H148548   8.911   6.625   4.798
16221TIP3    H248549   8.900   6.709   4.924
16222TIP3   OH248550   8.851   6.142   4.389
16222TIP3    H148551   8.765   6.130   4.429
16222TIP3    H248552   8.834   6.195   4.311
16223TIP3   OH248553   9.077   6.214   5.222
16223TIP3    H148554   9.022   6.200   5.299
16223TIP3    H248555   9.019   6.255   5.158
16224TIP3   OH248556   9.117   7.641   5.281
16224TIP3    H148557   9.023   7.634   5.264
16224TIP3    H248558   9.124   7.629   5.376
16225TIP3   OH248559   9.332   7.700   4.832
16225TIP3    H148560   9.276   7.768   4.797
16225TIP3    H248561   9.416   7.713   4.789
16226TIP3   OH248562   9.750   7.908   4.954
16226TIP3    H148563   9.791   7.911   5.040
16226TIP3    H248564   9.807   7.960   4.898
16227TIP3   OH248565   0.117   8.051   4.791
16227TIP3    H148566   0.115   8.014   4.703
16227TIP3    H248567   0.211   8.058   4.812
16228TIP3   OH248568   8.958   7.965   4.852
16228TIP3    H148569   8.896   8.027   4.814
16228TIP3    H248570   8.987   8.006   4.933
16229TIP3   OH248571   9.198   7.911   4.724
16229TIP3    H148572   9.114   7.928   4.768
16229TIP3    H248573   9.184   7.940   4.634
16230TIP3   OH248574   9.628   7.929   4.479
16230TIP3    H148575   9.541   7.949   4.445
16230TIP3    H248576   9.649   8.004   4.536
16231TIP3   OH248577   0.139   7.938   4.543
16231TIP3    H148578   0.068   7.875   4.532
16231TIP3    H248579   0.150   7.977   4.456
16232TIP3   OH248580   8.871   7.711   4.610
16232TIP3    H148581   8.897   7.687   4.699
16232TIP3    H248582   8.945   7.683   4.556
16233TIP3   OH248583   9.081   7.609   4.467
16233TIP3    H148584   9.093   7.522   4.505
16233TIP3    H248585   9.168   7.649   4.470
16234TIP3   OH248586   9.353   7.691   4.486
16234TIP3    H148587   9.366   7.597   4.472
16234TIP3    H248588   9.414   7.714   4.556
16235TIP3   OH248589   0.020   6.331   4.576
16235TIP3    H148590  -0.024   6.278   4.642
16235TIP3    H248591   0.051   6.268   4.511
16236TIP3   OH248592   9.153   6.029   4.565
16236TIP3    H148593   9.063   5.997   4.576
16236TIP3    H248594   9.206   5.950   4.557
16237TIP3   OH248595   8.977   5.954   4.223
16237TIP3    H148596   8.998   6.009   4.147
16237TIP3    H248597   8.939   6.015   4.287
16238TIP3   OH248598   9.566   6.117   4.446
16238TIP3    H148599   9.624   6.165   4.387
16238TIP3    H248600   9.601   6.133   4.534
16239TIP3   OH248601   8.628   7.526   4.006
16239TIP3    H148602   8.558   7.488   3.953
16239TIP3    H248603   8.646   7.610   3.963
16240TIP3   OH248604   9.062   6.105   4.002
16240TIP3    H148605   9.100   6.033   3.953
16240TIP3    H248606   9.137   6.157   4.031
16241TIP3   OH248607   9.594   6.328   4.043
16241TIP3    H148608   9.621   6.269   4.113
16241TIP3    H248609   9.600   6.415   4.082
16242TIP3   OH248610   9.445   7.674   3.573
16242TIP3    H148611   9.526   7.709   3.535
16242TIP3    H248612   9.419   7.604   3.512
16243TIP3   OH248613   9.372   6.321   5.457
16243TIP3    H148614   9.332   6.249   5.504
16243TIP3    H248615   9.460   6.328   5.495
16244TIP3   OH248616   9.598   6.320   5.615
16244TIP3    H148617   9.672   6.291   5.561
16244TIP3    H248618   9.585   6.249   5.678
16245TIP3   OH248619   8.778   7.527   3.631
16245TIP3    H148620   8.787   7.548   3.724
16245TIP3    H248621   8.857   7.476   3.611
16246TIP3   OH248622   0.811   7.875   6.356
16246TIP3    H148623   0.815   7.826   6.439
16246TIP3    H248624   0.865   7.952   6.372
16247TIP3   OH248625   0.818   7.325   6.744
16247TIP3    H148626   0.833   7.240   6.785
16247TIP3    H248627   0.739   7.311   6.690
16248TIP3   OH248628   0.786   7.086   6.386
16248TIP3    H148629   0.845   7.034   6.440
16248TIP3    H248630   0.838   7.109   6.309
16249TIP3   OH248631   1.412   7.323   6.885
16249TIP3    H148632   1.324   7.348   6.912
16249TIP3    H248633   1.469   7.357   6.954
16250TIP3   OH248634   1.098   7.021   6.949
16250TIP3    H148635   1.022   7.034   7.006
16250TIP3    H248636   1.071   7.058   6.865
16251TIP3   OH248637   0.724   7.948   6.100
16251TIP3    H148638   0.716   7.868   6.048
16251TIP3    H248639   0.748   7.917   6.188
16252TIP3   OH248640   1.050   8.081   6.901
16252TIP3    H148641   1.036   8.001   6.850
16252TIP3    H248642   1.023   8.152   6.842
16253TIP3   OH248643   1.241   7.685   6.742
16253TIP3    H148644   1.166   7.742   6.761
16253TIP3    H248645   1.279   7.722   6.662
16254TIP3   OH248646   0.722   7.561   6.128
16254TIP3    H148647   0.688   7.610   6.203
16254TIP3    H248648   0.804   7.523   6.160
16255TIP3   OH248649   0.962   7.576   7.040
16255TIP3    H148650   0.980   7.650   7.098
16255TIP3    H248651   0.874   7.594   7.005
16256TIP3   OH248652   0.627   7.353   5.969
16256TIP3    H148653   0.651   7.432   6.017
16256TIP3    H248654   0.617   7.383   5.878
16257TIP3   OH248655   1.059   6.631   6.011
16257TIP3    H148656   0.977   6.655   6.053
16257TIP3    H248657   1.081   6.706   5.955
16258TIP3   OH248658   0.866   8.018   5.563
16258TIP3    H148659   0.864   8.113   5.554
16258TIP3    H248660   0.957   7.994   5.545
16259TIP3   OH248661   1.299   8.402   6.941
16259TIP3    H148662   1.304   8.308   6.957
16259TIP3    H248663   1.219   8.429   6.985
16260TIP3   OH248664   1.200   7.513   7.267
16260TIP3    H148665   1.122   7.535   7.317
16260TIP3    H248666   1.218   7.422   7.291
16261TIP3   OH248667   0.740   6.878   7.259
16261TIP3    H148668   0.816   6.840   7.302
16261TIP3    H248669   0.689   6.917   7.331
16262TIP3   OH248670   0.981   7.320   7.144
16262TIP3    H148671   0.925   7.314   7.221
16262TIP3    H248672   0.974   7.410   7.115
16263TIP3   OH248673   0.597   7.380   5.687
16263TIP3    H148674   0.557   7.383   5.599
16263TIP3    H248675   0.680   7.427   5.676
16264TIP3   OH248676   0.649   7.290   6.513
16264TIP3    H148677   0.554   7.276   6.505
16264TIP3    H248678   0.688   7.215   6.469
16265TIP3   OH248679   0.833   7.064   6.820
16265TIP3    H148680   0.836   7.063   6.916
16265TIP3    H248681   0.767   6.999   6.797
16266TIP3   OH248682   1.030   7.868   6.724
16266TIP3    H148683   1.073   7.918   6.654
16266TIP3    H248684   0.959   7.822   6.681
16267TIP3   OH248685   0.472   6.970   6.110
16267TIP3    H148686   0.405   6.990   6.044
16267TIP3    H248687   0.548   7.022   6.084
16268TIP3   OH248688   0.701   7.101   6.030
16268TIP3    H148689   0.787   7.112   6.070
16268TIP3    H248690   0.674   7.190   6.006
16269TIP3   OH248691   1.044   7.260   5.913
16269TIP3    H148692   0.985   7.213   5.854
16269TIP3    H248693   1.051   7.347   5.875
16270TIP3   OH248694   1.306   8.124   6.980
16270TIP3    H148695   1.211   8.113   6.973
16270TIP3    H248696   1.339   8.097   6.894
16271TIP3   OH248697   0.796   8.082   5.872
16271TIP3    H148698   0.768   8.044   5.955
16271TIP3    H248699   0.800   8.007   5.812
16272TIP3   OH248700   0.830   7.726   6.592
16272TIP3    H148701   0.752   7.710   6.646
16272TIP3    H248702   0.855   7.640   6.559
16273TIP3   OH248703   0.866   8.305   5.524
16273TIP3    H148704   0.945   8.359   5.524
16273TIP3    H248705   0.811   8.342   5.454
16274TIP3   OH248706   0.736   7.738   5.914
16274TIP3    H148707   0.720   7.667   5.976
16274TIP3    H248708   0.831   7.737   5.901
16275TIP3   OH248709   0.867   7.059   7.091
16275TIP3    H148710   0.879   7.142   7.137
16275TIP3    H248711   0.819   7.004   7.153
16276TIP3   OH248712   0.648   6.857   6.292
16276TIP3    H148713   0.575   6.888   6.238
16276TIP3    H248714   0.677   6.934   6.340
16277TIP3   OH248715   1.230   7.214   7.102
16277TIP3    H148716   1.148   7.259   7.121
16277TIP3    H248717   1.205   7.138   7.050
16278TIP3   OH248718   0.865   7.461   6.515
16278TIP3    H148719   0.783   7.416   6.496
16278TIP3    H248720   0.889   7.432   6.603
16279TIP3   OH248721   0.888   8.379   6.487
16279TIP3    H148722   0.831   8.382   6.410
16279TIP3    H248723   0.959   8.439   6.466
16280TIP3   OH248724   0.819   7.522   5.603
16280TIP3    H148725   0.825   7.493   5.512
16280TIP3    H248726   0.792   7.614   5.597
16281TIP3   OH248727   0.997   7.554   7.444
16281TIP3    H148728   0.966   7.498   7.515
16281TIP3    H248729   1.005   7.641   7.483
16282TIP3   OH248730   0.994   7.823   7.172
16282TIP3    H148731   0.953   7.906   7.148
16282TIP3    H248732   1.087   7.835   7.151
16283TIP3   OH248733   0.809   7.250   7.344
16283TIP3    H148734   0.753   7.305   7.399
16283TIP3    H248735   0.871   7.211   7.406
16284TIP3   OH248736   0.979   7.154   7.529
16284TIP3    H148737   1.033   7.076   7.539
16284TIP3    H248738   1.007   7.213   7.600
16285TIP3   OH248739   1.103   8.543   6.451
16285TIP3    H148740   1.142   8.540   6.538
16285TIP3    H248741   1.178   8.552   6.392
16286TIP3   OH248742   1.149   8.505   6.727
16286TIP3    H148743   1.089   8.431   6.730
16286TIP3    H248744   1.219   8.482   6.787
16287TIP3   OH248745   1.153   8.230   7.339
16287TIP3    H148746   1.121   8.237   7.429
16287TIP3    H248747   1.206   8.309   7.326
16288TIP3   OH248748   1.011   7.726   5.913
16288TIP3    H148749   1.067   7.797   5.881
16288TIP3    H248750   1.060   7.689   5.987
16289TIP3   OH248751   1.142   7.590   6.116
16289TIP3    H148752   1.079   7.550   6.175
16289TIP3    H248753   1.209   7.627   6.173
16290TIP3   OH248754   1.183   7.993   6.534
16290TIP3    H148755   1.238   7.921   6.504
16290TIP3    H248756   1.210   8.068   6.481
16291TIP3   OH248757   0.963   8.292   6.736
16291TIP3    H148758   0.885   8.320   6.784
16291TIP3    H248759   0.940   8.305   6.644
16292TIP3   OH248760   1.039   7.495   5.768
16292TIP3    H148761   0.965   7.493   5.707
16292TIP3    H248762   1.028   7.576   5.817
16293TIP3   OH248763   0.885   7.145   5.725
16293TIP3    H148764   0.860   7.165   5.634
16293TIP3    H248765   0.876   7.050   5.732
16294TIP3   OH248766   0.943   7.441   6.250
16294TIP3    H148767   0.948   7.346   6.234
16294TIP3    H248768   0.930   7.448   6.345
16295TIP3   OH248769   1.257   7.865   7.111
16295TIP3    H148770   1.305   7.783   7.096
16295TIP3    H248771   1.293   7.925   7.045
16296TIP3   OH248772   1.378   7.616   7.085
16296TIP3    H148773   1.309   7.581   7.141
16296TIP3    H248774   1.451   7.556   7.096
16297TIP3   OH248775   0.868   6.874   5.750
16297TIP3    H148776   0.958   6.857   5.779
16297TIP3    H248777   0.820   6.797   5.778
16298TIP3   OH248778   0.953   7.150   6.161
16298TIP3    H148779   1.006   7.071   6.174
16298TIP3    H248780   0.989   7.190   6.082
16299TIP3   OH248781   1.204   7.257   6.690
16299TIP3    H148782   1.134   7.255   6.624
16299TIP3    H248783   1.172   7.316   6.758
16300TIP3   OH248784   1.160   7.455   6.873
16300TIP3    H148785   1.094   7.483   6.937
16300TIP3    H248786   1.193   7.536   6.836
16301TIP3   OH248787   1.633   7.069   7.411
16301TIP3    H148788   1.690   7.010   7.361
16301TIP3    H248789   1.583   7.116   7.344
16302TIP3   OH248790   1.075   6.900   6.214
16302TIP3    H148791   1.140   6.850   6.264
16302TIP3    H248792   1.004   6.838   6.199
16303TIP3   OH248793   1.447   7.215   7.265
16303TIP3    H148794   1.405   7.249   7.344
16303TIP3    H248795   1.375   7.198   7.205
16304TIP3   OH248796   1.120   6.831   5.837
16304TIP3    H148797   1.158   6.773   5.771
16304TIP3    H248798   1.176   6.908   5.835
16305TIP3   OH248799   1.373   6.914   7.132
16305TIP3    H148800   1.283   6.885   7.115
16305TIP3    H248801   1.426   6.834   7.124
16306TIP3   OH248802   0.660   6.856   6.787
16306TIP3    H148803   0.663   6.796   6.861
16306TIP3    H248804   0.703   6.810   6.716
16307TIP3   OH248805   1.104   6.769   6.624
16307TIP3    H148806   1.146   6.854   6.620
16307TIP3    H248807   1.011   6.788   6.630
16308TIP3   OH248808   0.828   6.742   6.592
16308TIP3    H148809   0.844   6.696   6.510
16308TIP3    H248810   0.818   6.672   6.657
16309TIP3   OH248811   0.861   6.720   6.190
16309TIP3    H148812   0.784   6.769   6.217
16309TIP3    H248813   0.846   6.631   6.221
16310TIP3   OH248814   0.876   8.329   5.805
16310TIP3    H148815   0.842   8.246   5.839
16310TIP3    H248816   0.836   8.338   5.719
16311TIP3   OH248817   1.129   6.923   7.548
16311TIP3    H148818   1.143   6.912   7.642
16311TIP3    H248819   1.217   6.937   7.512
16312TIP3   OH248820   1.058   8.460   7.057
16312TIP3    H148821   1.034   8.388   7.116
16312TIP3    H248822   1.044   8.539   7.109
16313TIP3   OH248823   2.310   7.867   5.801
16313TIP3    H148824   2.274   7.953   5.780
16313TIP3    H248825   2.242   7.805   5.775
16314TIP3   OH248826   2.301   7.862   6.233
16314TIP3    H148827   2.361   7.843   6.305
16314TIP3    H248828   2.263   7.777   6.210
16315TIP3   OH248829   1.607   7.719   6.578
16315TIP3    H148830   1.644   7.663   6.646
16315TIP3    H248831   1.682   7.743   6.523
16316TIP3   OH248832   2.577   8.173   5.896
16316TIP3    H148833   2.568   8.103   5.961
16316TIP3    H248834   2.597   8.251   5.947
16317TIP3   OH248835   1.582   8.140   6.265
16317TIP3    H148836   1.572   8.045   6.259
16317TIP3    H248837   1.676   8.154   6.257
16318TIP3   OH248838   1.274   7.347   6.058
16318TIP3    H148839   1.242   7.437   6.070
16318TIP3    H248840   1.205   7.304   6.008
16319TIP3   OH248841   1.368   7.676   6.258
16319TIP3    H148842   1.420   7.599   6.279
16319TIP3    H248843   1.433   7.742   6.231
16320TIP3   OH248844   2.249   8.577   5.929
16320TIP3    H148845   2.268   8.517   5.856
16320TIP3    H248846   2.269   8.527   6.007
16321TIP3   OH248847   2.112   8.081   6.238
16321TIP3    H148848   2.159   8.002   6.211
16321TIP3    H248849   2.181   8.143   6.263
16322TIP3   OH248850   3.149   7.401   6.243
16322TIP3    H148851   3.168   7.487   6.280
16322TIP3    H248852   3.175   7.409   6.151
16323TIP3   OH248853   2.520   7.566   6.267
16323TIP3    H148854   2.563   7.485   6.292
16323TIP3    H248855   2.487   7.549   6.178
16324TIP3   OH248856   1.868   7.229   6.232
16324TIP3    H148857   1.853   7.301   6.171
16324TIP3    H248858   1.816   7.156   6.197
16325TIP3   OH248859   2.572   7.328   5.861
16325TIP3    H148860   2.636   7.322   5.932
16325TIP3    H248861   2.624   7.349   5.783
16326TIP3   OH248862   1.514   7.457   6.343
16326TIP3    H148863   1.597   7.431   6.385
16326TIP3    H248864   1.510   7.405   6.264
16327TIP3   OH248865   1.921   7.642   6.173
16327TIP3    H148866   2.015   7.628   6.177
16327TIP3    H248867   1.886   7.560   6.137
16328TIP3   OH248868   3.208   7.624   6.406
16328TIP3    H148869   3.118   7.657   6.403
16328TIP3    H248870   3.243   7.657   6.489
16329TIP3   OH248871   1.867   7.227   6.674
16329TIP3    H148872   1.811   7.263   6.605
16329TIP3    H248873   1.818   7.244   6.755
16330TIP3   OH248874   2.169   8.072   5.686
16330TIP3    H148875   2.150   8.057   5.593
16330TIP3    H248876   2.129   8.157   5.705
16331TIP3   OH248877   1.960   7.999   6.453
16331TIP3    H148878   1.905   8.071   6.484
16331TIP3    H248879   2.009   8.035   6.380
16332TIP3   OH248880   2.731   7.363   6.080
16332TIP3    H148881   2.701   7.340   6.168
16332TIP3    H248882   2.794   7.433   6.093
16333TIP3   OH248883   1.741   7.337   6.453
16333TIP3    H148884   1.799   7.411   6.473
16333TIP3    H248885   1.785   7.291   6.381
16334TIP3   OH248886   1.799   8.205   6.548
16334TIP3    H148887   1.790   8.295   6.517
16334TIP3    H248888   1.720   8.189   6.600
16335TIP3   OH248889   1.178   7.916   5.801
16335TIP3    H148890   1.147   7.941   5.714
16335TIP3    H248891   1.205   7.999   5.842
16336TIP3   OH248892   2.605   8.419   6.041
16336TIP3    H148893   2.515   8.414   6.075
16336TIP3    H248894   2.608   8.503   5.996
16337TIP3   OH248895   2.946   7.303   6.412
16337TIP3    H148896   2.861   7.321   6.371
16337TIP3    H248897   3.011   7.326   6.346
16338TIP3   OH248898   2.197   6.920   6.406
16338TIP3    H148899   2.191   6.828   6.429
16338TIP3    H248900   2.119   6.960   6.445
16339TIP3   OH248901   2.318   8.438   5.698
16339TIP3    H148902   2.372   8.360   5.684
16339TIP3    H248903   2.372   8.511   5.669
16340TIP3   OH248904   2.478   8.227   5.643
16340TIP3    H148905   2.488   8.150   5.587
16340TIP3    H248906   2.516   8.200   5.727
16341TIP3   OH248907   2.847   8.303   6.382
16341TIP3    H148908   2.830   8.228   6.325
16341TIP3    H248909   2.833   8.379   6.326
16342TIP3   OH248910   2.137   7.704   5.653
16342TIP3    H148911   2.057   7.753   5.632
16342TIP3    H248912   2.186   7.703   5.571
16343TIP3   OH248913   2.108   7.517   5.336
16343TIP3    H148914   2.172   7.566   5.388
16343TIP3    H248915   2.158   7.447   5.295
16344TIP3   OH248916   3.028   7.968   6.252
16344TIP3    H148917   2.943   8.012   6.248
16344TIP3    H248918   3.064   7.976   6.164
16345TIP3   OH248919   2.495   7.805   5.609
16345TIP3    H148920   2.441   7.829   5.685
16345TIP3    H248921   2.577   7.773   5.648
16346TIP3   OH248922   2.726   7.825   6.563
16346TIP3    H148923   2.723   7.909   6.609
16346TIP3    H248924   2.645   7.822   6.512
16347TIP3   OH248925   1.724   7.774   6.017
16347TIP3    H148926   1.691   7.714   5.951
16347TIP3    H248927   1.798   7.728   6.056
16348TIP3   OH248928   1.850   8.192   6.169
16348TIP3    H148929   1.829   8.181   6.076
16348TIP3    H248930   1.938   8.156   6.179
16349TIP3   OH248931   1.816   7.773   6.393
16349TIP3    H148932   1.855   7.737   6.313
16349TIP3    H248933   1.868   7.851   6.413
16350TIP3   OH248934   2.358   8.421   6.162
16350TIP3    H148935   2.358   8.498   6.218
16350TIP3    H248936   2.349   8.347   6.223
16351TIP3   OH248937   2.000   8.306   6.714
16351TIP3    H148938   1.940   8.364   6.760
16351TIP3    H248939   1.944   8.253   6.657
16352TIP3   OH248940   2.324   7.662   5.447
16352TIP3    H148941   2.386   7.718   5.494
16352TIP3    H248942   2.353   7.665   5.356
16353TIP3   OH248943   1.759   7.879   6.852
16353TIP3    H148944   1.758   7.972   6.874
16353TIP3    H248945   1.667   7.857   6.839
16354TIP3   OH248946   2.065   8.329   5.707
16354TIP3    H148947   2.151   8.368   5.714
16354TIP3    H248948   2.015   8.389   5.652
16355TIP3   OH248949   1.793   8.466   6.799
16355TIP3    H148950   1.767   8.475   6.707
16355TIP3    H248951   1.711   8.455   6.846
16356TIP3   OH248952   1.604   7.616   5.815
16356TIP3    H148953   1.524   7.661   5.787
16356TIP3    H248954   1.579   7.524   5.821
16357TIP3   OH248955   2.669   8.260   5.058
16357TIP3    H148956   2.665   8.354   5.037
16357TIP3    H248957   2.757   8.233   5.034
16358TIP3   OH248958   1.389   8.021   6.743
16358TIP3    H148959   1.325   7.996   6.675
16358TIP3    H248960   1.421   7.937   6.777
16359TIP3   OH248961   1.313   8.195   6.385
16359TIP3    H148962   1.396   8.172   6.343
16359TIP3    H248963   1.335   8.267   6.443
16360TIP3   OH248964   3.080   8.661   6.454
16360TIP3    H148965   3.084   8.566   6.468
16360TIP3    H248966   3.001   8.688   6.500
16361TIP3   OH248967   2.188   8.451   6.576
16361TIP3    H148968   2.180   8.541   6.607
16361TIP3    H248969   2.122   8.402   6.625
16362TIP3   OH248970   1.965   8.525   5.531
16362TIP3    H148971   1.928   8.514   5.443
16362TIP3    H248972   1.932   8.610   5.561
16363TIP3   OH248973   1.401   8.403   5.918
16363TIP3    H148974   1.449   8.399   6.001
16363TIP3    H248975   1.356   8.319   5.912
16364TIP3   OH248976   2.171   8.475   5.160
16364TIP3    H148977   2.223   8.402   5.126
16364TIP3    H248978   2.205   8.489   5.249
16365TIP3   OH248979   2.221   8.510   5.429
16365TIP3    H148980   2.136   8.512   5.473
16365TIP3    H248981   2.282   8.477   5.495
16366TIP3   OH248982   2.970   7.782   6.721
16366TIP3    H148983   2.889   7.786   6.670
16366TIP3    H248984   2.990   7.689   6.726
16367TIP3   OH248985   1.576   8.221   6.714
16367TIP3    H148986   1.628   8.213   6.794
16367TIP3    H248987   1.510   8.152   6.722
16368TIP3   OH248988   1.952   7.005   6.530
16368TIP3    H148989   1.865   6.980   6.497
16368TIP3    H248990   1.937   7.088   6.576
16369TIP3   OH248991   2.514   7.135   6.735
16369TIP3    H148992   2.587   7.110   6.792
16369TIP3    H248993   2.436   7.115   6.787
16370TIP3   OH248994   2.724   7.559   6.649
16370TIP3    H148995   2.686   7.555   6.737
16370TIP3    H248996   2.713   7.650   6.622
16371TIP3   OH248997   2.402   7.650   5.186
16371TIP3    H148998   2.359   7.646   5.100
16371TIP3    H248999   2.486   7.691   5.169
16372TIP3   OH249000   2.106   7.067   5.502
16372TIP3    H149001   2.073   7.070   5.592
16372TIP3    H249002   2.076   6.982   5.469
16373TIP3   OH249003   1.901   7.547   6.530
16373TIP3    H149004   1.871   7.563   6.619
16373TIP3    H249005   1.878   7.627   6.482
16374TIP3   OH249006   1.781   7.427   6.062
16374TIP3    H149007   1.692   7.401   6.084
16374TIP3    H249008   1.794   7.396   5.972
16375TIP3   OH249009   2.261   7.501   5.790
16375TIP3    H149010   2.214   7.573   5.748
16375TIP3    H249011   2.321   7.469   5.723
16376TIP3   OH249012   2.454   7.769   6.861
16376TIP3    H149013   2.425   7.701   6.922
16376TIP3    H249014   2.547   7.782   6.881
16377TIP3   OH249015   2.429   7.515   6.012
16377TIP3    H149016   2.362   7.534   5.947
16377TIP3    H249017   2.480   7.443   5.974
16378TIP3   OH249018   1.735   7.549   6.763
16378TIP3    H149019   1.804   7.602   6.804
16378TIP3    H249020   1.736   7.467   6.812
16379TIP3   OH249021   1.778   7.036   5.479
16379TIP3    H149022   1.771   7.042   5.574
16379TIP3    H249023   1.701   7.082   5.446
16380TIP3   OH249024   1.247   7.076   5.847
16380TIP3    H149025   1.288   7.110   5.767
16380TIP3    H249026   1.179   7.139   5.869
16381TIP3   OH249027   2.473   7.769   6.439
16381TIP3    H149028   2.498   7.703   6.375
16381TIP3    H249029   2.432   7.719   6.510
16382TIP3   OH249030   2.137   7.221   6.113
16382TIP3    H149031   2.062   7.219   6.173
16382TIP3    H249032   2.212   7.205   6.170
16383TIP3   OH249033   1.541   7.302   6.119
16383TIP3    H149034   1.451   7.301   6.087
16383TIP3    H249035   1.572   7.212   6.109
16384TIP3   OH249036   1.793   7.309   5.813
16384TIP3    H149037   1.888   7.317   5.806
16384TIP3    H249038   1.761   7.325   5.724
16385TIP3   OH249039   2.618   7.310   6.329
16385TIP3    H149040   2.586   7.326   6.418
16385TIP3    H249041   2.565   7.236   6.298
16386TIP3   OH249042   1.684   7.334   5.562
16386TIP3    H149043   1.622   7.283   5.510
16386TIP3    H249044   1.739   7.379   5.497
16387TIP3   OH249045   2.800   9.007   6.543
16387TIP3    H149046   2.796   9.018   6.448
16387TIP3    H249047   2.879   9.054   6.569
16388TIP3   OH249048   1.732   8.139   6.949
16388TIP3    H149049   1.815   8.154   6.994
16388TIP3    H249050   1.666   8.149   7.017
16389TIP3   OH249051   2.195   7.590   6.217
16389TIP3    H149052   2.262   7.546   6.164
16389TIP3    H249053   2.197   7.544   6.301
16390TIP3   OH249054   1.683   7.054   6.112
16390TIP3    H149055   1.651   6.981   6.165
16390TIP3    H249056   1.709   7.014   6.029
16391TIP3   OH249057   2.169   7.486   6.480
16391TIP3    H149058   2.081   7.518   6.503
16391TIP3    H249059   2.228   7.538   6.536
16392TIP3   OH249060   1.902   7.844   5.590
16392TIP3    H149061   1.827   7.789   5.566
16392TIP3    H249062   1.876   7.885   5.673
16393TIP3   OH249063   2.792   8.102   6.201
16393TIP3    H149064   2.830   8.150   6.128
16393TIP3    H249065   2.714   8.059   6.165
16394TIP3   OH249066   2.362   7.166   5.499
16394TIP3    H149067   2.269   7.147   5.497
16394TIP3    H249068   2.368   7.260   5.515
16395TIP3   OH249069   2.315   8.184   6.615
16395TIP3    H149070   2.373   8.172   6.690
16395TIP3    H249071   2.280   8.273   6.625
16396TIP3   OH249072   2.426   7.429   5.574
16396TIP3    H149073   2.521   7.429   5.584
16396TIP3    H249074   2.407   7.506   5.521
16397TIP3   OH249075   1.588   7.857   6.242
16397TIP3    H149076   1.628   7.838   6.157
16397TIP3    H249077   1.655   7.829   6.305
16398TIP3   OH249078   2.059   8.001   5.432
16398TIP3    H149079   2.010   8.083   5.430
16398TIP3    H249080   2.006   7.942   5.486
16399TIP3   OH249081   1.485   7.816   6.905
16399TIP3    H149082   1.530   7.826   6.989
16399TIP3    H249083   1.438   7.733   6.913
16400TIP3   OH249084   2.235   7.940   6.883
16400TIP3    H149085   2.186   7.918   6.804
16400TIP3    H249086   2.318   7.892   6.873
16401TIP3   OH249087   2.457   8.480   6.498
16401TIP3    H149088   2.362   8.464   6.502
16401TIP3    H249089   2.479   8.514   6.584
16402TIP3   OH249090   2.850   7.504   5.382
16402TIP3    H149091   2.797   7.453   5.320
16402TIP3    H249092   2.848   7.593   5.347
16403TIP3   OH249093   3.091   8.383   6.473
16403TIP3    H149094   2.997   8.367   6.465
16403TIP3    H249095   3.128   8.355   6.390
16404TIP3   OH249096   2.578   8.326   5.318
16404TIP3    H149097   2.557   8.251   5.374
16404TIP3    H249098   2.605   8.287   5.235
16405TIP3   OH249099   2.565   7.966   6.094
16405TIP3    H149100   2.474   7.945   6.116
16405TIP3    H249101   2.601   7.885   6.058
16406TIP3   OH249102   1.724   8.201   5.919
16406TIP3    H149103   1.729   8.278   5.862
16406TIP3    H249104   1.630   8.182   5.925
16407TIP3   OH249105   1.281   7.488   5.631
16407TIP3    H149106   1.322   7.571   5.654
16407TIP3    H249107   1.199   7.488   5.680
16408TIP3   OH249108   1.795   7.955   5.813
16408TIP3    H149109   1.791   8.044   5.847
16408TIP3    H249110   1.773   7.899   5.888
16409TIP3   OH249111   2.002   8.521   6.371
16409TIP3    H149112   2.038   8.593   6.318
16409TIP3    H249113   2.077   8.489   6.421
16410TIP3   OH249114   1.630   8.420   5.767
16410TIP3    H149115   1.544   8.425   5.808
16410TIP3    H249116   1.664   8.509   5.773
16411TIP3   OH249117   2.348   8.198   6.338
16411TIP3    H149118   2.337   8.190   6.433
16411TIP3    H249119   2.424   8.143   6.318
16412TIP3   OH249120   2.352   8.067   5.227
16412TIP3    H149121   2.401   8.054   5.308
16412TIP3    H249122   2.267   8.025   5.242
16413TIP3   OH249123   2.613   8.685   6.380
16413TIP3    H149124   2.544   8.622   6.400
16413TIP3    H249125   2.577   8.739   6.310
16414TIP3   OH249126   2.672   8.534   5.024
16414TIP3    H149127   2.721   8.608   4.987
16414TIP3    H249128   2.592   8.572   5.058
16415TIP3   OH249129   1.740   7.302   6.912
16415TIP3    H149130   1.675   7.340   6.971
16415TIP3    H249131   1.782   7.233   6.964
16416TIP3   OH249132   2.525   8.024   5.443
16416TIP3    H149133   2.506   7.948   5.498
16416TIP3    H249134   2.618   8.016   5.423
16417TIP3   OH249135   1.422   8.412   6.540
16417TIP3    H149136   1.479   8.357   6.594
16417TIP3    H249137   1.430   8.500   6.577
16418TIP3   OH249138   1.696   8.032   5.231
16418TIP3    H149139   1.708   7.941   5.202
16418TIP3    H249140   1.685   8.026   5.326
16419TIP3   OH249141   1.642   8.043   5.504
16419TIP3    H149142   1.711   8.016   5.565
16419TIP3    H249143   1.642   8.139   5.509
16420TIP3   OH249144   1.374   7.738   5.712
16420TIP3    H149145   1.310   7.788   5.762
16420TIP3    H249146   1.396   7.794   5.638
16421TIP3   OH249147   2.531   7.369   6.587
16421TIP3    H149148   2.610   7.415   6.615
16421TIP3    H249149   2.527   7.292   6.643
16422TIP3   OH249150   2.411   7.116   5.770
16422TIP3    H149151   2.402   7.130   5.676
16422TIP3    H249152   2.463   7.191   5.800
16423TIP3   OH249153   1.907   8.224   5.433
16423TIP3    H149154   1.825   8.252   5.474
16423TIP3    H249155   1.936   8.301   5.384
16424TIP3   OH249156   2.070   7.316   5.862
16424TIP3    H149157   2.135   7.381   5.835
16424TIP3    H249158   2.094   7.294   5.952
16425TIP3   OH249159   2.370   7.604   6.636
16425TIP3    H149160   2.400   7.645   6.717
16425TIP3    H249161   2.421   7.523   6.631
16426TIP3   OH249162   2.238   7.006   5.950
16426TIP3    H149163   2.217   7.083   6.003
16426TIP3    H249164   2.304   7.036   5.888
16427TIP3   OH249165   1.661   8.316   5.517
16427TIP3    H149166   1.645   8.389   5.458
16427TIP3    H249167   1.650   8.353   5.605
16428TIP3   OH249168   1.752   7.033   5.758
16428TIP3    H149169   1.741   7.124   5.786
16428TIP3    H249170   1.847   7.018   5.764
16429TIP3   OH249171   2.990   7.501   6.628
16429TIP3    H149172   2.895   7.512   6.640
16429TIP3    H249173   2.997   7.441   6.553
16430TIP3   OH249174   2.654   7.707   6.011
16430TIP3    H149175   2.581   7.646   6.021
16430TIP3    H249176   2.725   7.669   6.063
16431TIP3   OH249177   1.398   7.913   5.495
16431TIP3    H149178   1.471   7.974   5.505
16431TIP3    H249179   1.428   7.851   5.428
16432TIP3   OH249180   1.303   7.212   5.619
16432TIP3    H149181   1.313   7.307   5.626
16432TIP3    H249182   1.267   7.198   5.531
16433TIP3   OH249183   2.630   8.685   5.959
16433TIP3    H149184   2.586   8.731   5.888
16433TIP3    H249185   2.723   8.703   5.945
16434TIP3   OH249186   1.668   6.949   6.512
16434TIP3    H149187   1.644   6.918   6.425
16434TIP3    H249188   1.670   6.870   6.566
16435TIP3   OH249189   1.240   8.173   5.909
16435TIP3    H149190   1.193   8.213   5.983
16435TIP3    H249191   1.201   8.213   5.831
16436TIP3   OH249192   1.427   8.730   6.957
16436TIP3    H149193   1.506   8.738   7.011
16436TIP3    H249194   1.421   8.637   6.937
16437TIP3   OH249195   1.890   8.636   6.994
16437TIP3    H149196   1.981   8.613   7.009
16437TIP3    H249197   1.862   8.580   6.922
16438TIP3   OH249198   1.855   8.229   5.120
16438TIP3    H149199   1.808   8.160   5.166
16438TIP3    H249200   1.930   8.185   5.080
16439TIP3   OH249201   2.511   8.571   6.750
16439TIP3    H149202   2.526   8.500   6.813
16439TIP3    H249203   2.586   8.629   6.763
16440TIP3   OH249204   2.297   8.265   5.041
16440TIP3    H149205   2.331   8.202   5.105
16440TIP3    H249206   2.357   8.257   4.966
16441TIP3   OH249207   1.531   8.130   7.141
16441TIP3    H149208   1.553   8.037   7.153
16441TIP3    H249209   1.445   8.128   7.097
16442TIP3   OH249210   1.517   7.726   5.335
16442TIP3    H149211   1.568   7.700   5.412
16442TIP3    H249212   1.583   7.739   5.267
16443TIP3   OH249213   2.154   8.208   6.921
16443TIP3    H149214   2.112   8.228   6.837
16443TIP3    H249215   2.197   8.124   6.906
16444TIP3   OH249216   2.079   7.946   5.165
16444TIP3    H149217   2.063   7.955   5.259
16444TIP3    H249218   2.068   7.853   5.147
16445TIP3   OH249219   2.624   8.255   6.539
16445TIP3    H149220   2.703   8.277   6.488
16445TIP3    H249221   2.562   8.324   6.518
16446TIP3   OH249222   1.641   7.869   7.132
16446TIP3    H149223   1.722   7.849   7.085
16446TIP3    H249224   1.669   7.885   7.222
16447TIP3   OH249225   1.692   7.667   5.545
16447TIP3    H149226   1.677   7.636   5.635
16447TIP3    H249227   1.741   7.596   5.503
16448TIP3   OH249228   1.962   7.710   6.781
16448TIP3    H149229   1.901   7.778   6.811
16448TIP3    H249230   2.026   7.758   6.728
16449TIP3   OH249231   1.833   7.486   5.386
16449TIP3    H149232   1.805   7.489   5.295
16449TIP3    H249233   1.929   7.493   5.382
16450TIP3   OH249234   2.510   8.123   6.881
16450TIP3    H149235   2.582   8.089   6.828
16450TIP3    H249236   2.509   8.067   6.959
16451TIP3   OH249237   2.623   7.778   5.079
16451TIP3    H149238   2.613   7.733   4.995
16451TIP3    H249239   2.599   7.869   5.061
16452TIP3   OH249240   2.104   7.513   6.915
16452TIP3    H149241   2.117   7.441   6.854
16452TIP3    H249242   2.063   7.582   6.862
16453TIP3   OH249243   2.123   7.317   6.712
16453TIP3    H149244   2.155   7.350   6.628
16453TIP3    H249245   2.034   7.287   6.694
16454TIP3   OH249246   2.130   7.869   6.631
16454TIP3    H149247   2.215   7.870   6.587
16454TIP3    H249248   2.072   7.918   6.573
16455TIP3   OH249249   2.721   7.799   6.962
16455TIP3    H149250   2.756   7.711   6.972
16455TIP3    H249251   2.798   7.854   6.946
16456TIP3   OH249252   2.745   8.073   6.701
16456TIP3    H149253   2.694   8.136   6.651
16456TIP3    H249254   2.835   8.085   6.671
16457TIP3   OH249255   1.994   7.603   7.158
16457TIP3    H149256   1.919   7.547   7.179
16457TIP3    H249257   2.022   7.574   7.071
16458TIP3   OH249258   2.241   7.083   6.814
16458TIP3    H149259   2.203   7.164   6.779
16458TIP3    H249260   2.173   7.017   6.800
16459TIP3   OH249261   2.363   7.560   7.016
16459TIP3    H149262   2.358   7.548   7.111
16459TIP3    H249263   2.276   7.539   6.983
16460TIP3   OH249264   2.613   7.516   6.891
16460TIP3    H149265   2.535   7.513   6.946
16460TIP3    H249266   2.684   7.489   6.950
16461TIP3   OH249267   2.844   7.479   7.042
16461TIP3    H149268   2.863   7.385   7.047
16461TIP3    H249269   2.843   7.508   7.133
16462TIP3   OH249270   1.821   7.381   7.221
16462TIP3    H149271   1.835   7.294   7.185
16462TIP3    H249272   1.864   7.379   7.307
16463TIP3   OH249273   2.305   7.069   7.079
16463TIP3    H149274   2.380   7.008   7.076
16463TIP3    H249275   2.278   7.076   6.987
16464TIP3   OH249276   2.402   7.281   7.226
16464TIP3    H149277   2.373   7.209   7.169
16464TIP3    H249278   2.329   7.343   7.226
16465TIP3   OH249279   1.668   8.531   5.342
16465TIP3    H149280   1.755   8.506   5.311
16465TIP3    H249281   1.623   8.563   5.263
16466TIP3   OH249282   1.124   7.920   5.511
16466TIP3    H149283   1.220   7.928   5.507
16466TIP3    H249284   1.106   7.834   5.472
16467TIP3   OH249285   1.019   8.490   5.974
16467TIP3    H149286   0.966   8.440   5.913
16467TIP3    H249287   1.055   8.425   6.034
16468TIP3   OH249288   1.169   8.322   6.148
16468TIP3    H149289   1.177   8.254   6.214
16468TIP3    H249290   1.215   8.397   6.185
16469TIP3   OH249291   2.893   8.759   5.940
16469TIP3    H149292   2.933   8.766   6.026
16469TIP3    H249293   2.963   8.781   5.879
16470TIP3   OH249294   2.941   8.748   6.223
16470TIP3    H149295   2.891   8.666   6.214
16470TIP3    H249296   3.007   8.728   6.289
16471TIP3   OH249297   2.976   8.467   6.800
16471TIP3    H149298   2.908   8.475   6.867
16471TIP3    H249299   3.024   8.550   6.804
16472TIP3   OH249300   2.796   7.986   5.406
16472TIP3    H149301   2.858   8.051   5.373
16472TIP3    H249302   2.841   7.947   5.481
16473TIP3   OH249303   2.918   7.848   5.610
16473TIP3    H149304   2.854   7.803   5.665
16473TIP3    H249305   2.986   7.876   5.671
16474TIP3   OH249306   2.976   8.238   6.041
16474TIP3    H149307   3.029   8.165   6.006
16474TIP3    H249308   2.988   8.309   5.977
16475TIP3   OH249309   2.783   8.521   6.230
16475TIP3    H149310   2.718   8.571   6.280
16475TIP3    H249311   2.732   8.482   6.159
16476TIP3   OH249312   2.827   7.751   5.261
16476TIP3    H149313   2.756   7.753   5.197
16476TIP3    H249314   2.814   7.830   5.313
16477TIP3   OH249315   2.693   7.378   5.189
16477TIP3    H149316   2.643   7.392   5.109
16477TIP3    H249317   2.705   7.283   5.193
16478TIP3   OH249318   2.718   7.698   5.739
16478TIP3    H149319   2.724   7.604   5.720
16478TIP3    H249320   2.703   7.702   5.833
16479TIP3   OH249321   1.352   7.780   6.510
16479TIP3    H149322   1.346   7.747   6.421
16479TIP3    H249323   1.445   7.771   6.533
16480TIP3   OH249324   3.005   8.113   6.608
16480TIP3    H149325   3.071   8.046   6.594
16480TIP3    H249326   3.022   8.178   6.539
16481TIP3   OH249327   3.183   7.904   6.600
16481TIP3    H149328   3.109   7.861   6.642
16481TIP3    H249329   3.258   7.847   6.619
16482TIP3   OH249330   2.687   7.100   5.165
16482TIP3    H149331   2.746   7.059   5.228
16482TIP3    H249332   2.599   7.076   5.194
16483TIP3   OH249333   2.712   7.429   5.620
16483TIP3    H149334   2.754   7.346   5.643
16483TIP3    H249335   2.759   7.459   5.543
16484TIP3   OH249336   2.872   7.593   6.151
16484TIP3    H149337   2.953   7.609   6.102
16484TIP3    H249338   2.889   7.630   6.237
16485TIP3   OH249339   2.947   7.737   6.382
16485TIP3    H149340   2.874   7.766   6.438
16485TIP3    H249341   2.978   7.817   6.340
16486TIP3   OH249342   1.569   7.405   7.109
16486TIP3    H149343   1.653   7.423   7.152
16486TIP3    H249344   1.526   7.342   7.167
16487TIP3   OH249345   3.401   7.340   6.914
16487TIP3    H149346   3.469   7.282   6.880
16487TIP3    H249347   3.367   7.385   6.836
16488TIP3   OH249348   2.807   7.189   5.708
16488TIP3    H149349   2.868   7.169   5.778
16488TIP3    H249350   2.756   7.108   5.697
16489TIP3   OH249351   1.537   7.190   6.592
16489TIP3    H149352   1.568   7.100   6.581
16489TIP3    H249353   1.596   7.242   6.537
16490TIP3   OH249354   1.401   7.459   6.599
16490TIP3    H149355   1.433   7.473   6.510
16490TIP3    H249356   1.378   7.546   6.631
16491TIP3   OH249357   3.253   7.446   6.708
16491TIP3    H149358   3.165   7.483   6.720
16491TIP3    H249359   3.238   7.364   6.661
16492TIP3   OH249360   1.324   6.909   6.050
16492TIP3    H149361   1.242   6.910   6.099
16492TIP3    H249362   1.314   6.978   5.984
16493TIP3   OH249363   2.445   8.649   5.590
16493TIP3    H149364   2.506   8.638   5.517
16493TIP3    H249365   2.487   8.714   5.646
16494TIP3   OH249366   1.526   7.045   6.937
16494TIP3    H149367   1.472   7.005   7.005
16494TIP3    H249368   1.486   7.132   6.924
16495TIP3   OH249369   1.568   8.449   6.961
16495TIP3    H149370   1.476   8.424   6.952
16495TIP3    H249371   1.584   8.445   7.056
16496TIP3   OH249372   1.774   8.479   6.518
16496TIP3    H149373   1.720   8.550   6.486
16496TIP3    H249374   1.859   8.491   6.475
16497TIP3   OH249375   2.176   8.714   6.660
16497TIP3    H149376   2.214   8.706   6.748
16497TIP3    H249377   2.240   8.765   6.611
16498TIP3   OH249378   2.365   8.860   6.526
16498TIP3    H149379   2.420   8.806   6.468
16498TIP3    H249380   2.427   8.908   6.580
16499TIP3   OH249381   3.172   7.194   6.614
16499TIP3    H149382   3.084   7.183   6.580
16499TIP3    H249383   3.211   7.106   6.609
16500TIP3   OH249384   1.416   8.723   6.567
16500TIP3    H149385   1.333   8.763   6.544
16500TIP3    H249386   1.452   8.780   6.636
16501TIP3   OH249387   1.651   8.699   6.418
16501TIP3    H149388   1.565   8.710   6.460
16501TIP3    H249389   1.636   8.726   6.327
16502TIP3   OH249390   2.080   8.725   6.204
16502TIP3    H149391   2.014   8.737   6.135
16502TIP3    H249392   2.087   8.811   6.245
16503TIP3   OH249393   2.347   8.682   6.259
16503TIP3    H149394   2.255   8.692   6.233
16503TIP3    H249395   2.394   8.747   6.205
16504TIP3   OH249396   2.551   8.857   6.161
16504TIP3    H149397   2.539   8.943   6.119
16504TIP3    H249398   2.577   8.800   6.089
16505TIP3   OH249399   1.343   8.507   6.288
16505TIP3    H149400   1.368   8.481   6.377
16505TIP3    H249401   1.413   8.474   6.232
16506TIP3   OH249402   1.547   8.391   6.151
16506TIP3    H149403   1.559   8.304   6.189
16506TIP3    H249404   1.634   8.430   6.152
16507TIP3   OH249405   1.815   8.471   6.169
16507TIP3    H149406   1.835   8.379   6.155
16507TIP3    H249407   1.873   8.497   6.242
16508TIP3   OH249408   2.354   7.115   6.245
16508TIP3    H149409   2.324   7.040   6.296
16508TIP3    H249410   2.430   7.083   6.197
16509TIP3   OH249411   2.875   7.043   6.145
16509TIP3    H149412   2.916   7.087   6.071
16509TIP3    H249413   2.783   7.069   6.141
16510TIP3   OH249414   2.989   7.120   5.910
16510TIP3    H149415   3.058   7.064   5.875
16510TIP3    H249416   3.024   7.209   5.903
16511TIP3   OH249417   1.606   6.833   6.267
16511TIP3    H149418   1.516   6.800   6.272
16511TIP3    H249419   1.660   6.755   6.256
16512TIP3   OH249420   1.430   6.712   5.883
16512TIP3    H149421   1.466   6.762   5.810
16512TIP3    H249422   1.399   6.778   5.945
16513TIP3   OH249423   2.090   6.867   6.146
16513TIP3    H149424   2.140   6.911   6.076
16513TIP3    H249425   2.133   6.895   6.227
16514TIP3   OH249426   2.586   7.029   6.120
16514TIP3    H149427   2.603   7.004   6.029
16514TIP3    H249428   2.592   6.947   6.169
16515TIP3   OH249429   2.646   6.969   5.739
16515TIP3    H149430   2.556   7.000   5.743
16515TIP3    H249431   2.639   6.874   5.746
16516TIP3   OH249432   1.126   8.291   5.695
16516TIP3    H149433   1.036   8.292   5.729
16516TIP3    H249434   1.130   8.364   5.634
16517TIP3   OH249435   1.550   6.856   5.668
16517TIP3    H149436   1.597   6.799   5.608
16517TIP3    H249437   1.617   6.914   5.703
16518TIP3   OH249438   2.026   7.062   5.768
16518TIP3    H149439   2.088   7.010   5.820
16518TIP3    H249440   2.043   7.152   5.795
16519TIP3   OH249441   1.917   8.453   5.261
16519TIP3    H149442   2.001   8.478   5.224
16519TIP3    H249443   1.887   8.381   5.206
16520TIP3   OH249444   2.601   8.594   5.362
16520TIP3    H149445   2.596   8.499   5.355
16520TIP3    H249446   2.563   8.627   5.280
16521TIP3   OH249447   1.849   7.118   7.114
16521TIP3    H149448   1.815   7.049   7.171
16521TIP3    H249449   1.941   7.127   7.140
16522TIP3   OH249450   2.090   7.121   7.246
16522TIP3    H149451   2.169   7.100   7.195
16522TIP3    H249452   2.085   7.051   7.312
16523TIP3   OH249453   1.220   8.288   5.318
16523TIP3    H149454   1.223   8.306   5.412
16523TIP3    H249455   1.302   8.243   5.299
16524TIP3   OH249456   2.916   7.212   7.046
16524TIP3    H149457   2.933   7.180   7.135
16524TIP3    H249458   3.001   7.205   7.002
16525TIP3   OH249459   2.831   8.733   6.550
16525TIP3    H149460   2.758   8.705   6.495
16525TIP3    H249461   2.821   8.828   6.557
16526TIP3   OH249462   4.103   8.120   5.716
16526TIP3    H149463   4.158   8.100   5.792
16526TIP3    H249464   4.058   8.038   5.696
16527TIP3   OH249465   3.402   7.975   6.060
16527TIP3    H149466   3.443   7.922   6.129
16527TIP3    H249467   3.474   7.998   6.002
16528TIP3   OH249468   4.384   8.435   5.383
16528TIP3    H149469   4.366   8.368   5.449
16528TIP3    H249470   4.400   8.515   5.434
16529TIP3   OH249471   3.388   8.408   5.754
16529TIP3    H149472   3.374   8.313   5.750
16529TIP3    H249473   3.482   8.419   5.741
16530TIP3   OH249474   3.081   7.631   5.530
16530TIP3    H149475   3.027   7.708   5.548
16530TIP3    H249476   3.020   7.568   5.490
16531TIP3   OH249477   3.152   7.916   5.754
16531TIP3    H149478   3.201   7.837   5.776
16531TIP3    H249479   3.218   7.976   5.718
16532TIP3   OH249480   4.050   8.839   5.401
16532TIP3    H149481   4.056   8.774   5.331
16532TIP3    H249482   4.046   8.787   5.481
16533TIP3   OH249483   3.910   8.343   5.717
16533TIP3    H149484   3.954   8.263   5.687
16533TIP3    H249485   3.980   8.400   5.746
16534TIP3   OH249486   4.941   7.667   5.737
16534TIP3    H149487   4.962   7.748   5.784
16534TIP3    H249488   4.948   7.690   5.644
16535TIP3   OH249489   4.311   7.828   5.749
16535TIP3    H149490   4.340   7.741   5.776
16535TIP3    H249491   4.281   7.818   5.659
16536TIP3   OH249492   3.678   7.484   5.706
16536TIP3    H149493   3.653   7.556   5.649
16536TIP3    H249494   3.623   7.411   5.677
16537TIP3   OH249495   4.383   7.593   5.363
16537TIP3    H149496   4.446   7.585   5.434
16537TIP3    H249497   4.434   7.626   5.289
16538TIP3   OH249498   3.299   7.696   5.837
16538TIP3    H149499   3.383   7.676   5.879
16538TIP3    H249500   3.300   7.646   5.756
16539TIP3   OH249501   3.713   7.899   5.660
16539TIP3    H149502   3.807   7.885   5.664
16539TIP3    H249503   3.678   7.817   5.625
16540TIP3   OH249504   5.004   7.884   5.899
16540TIP3    H149505   4.915   7.918   5.896
16540TIP3    H249506   5.040   7.917   5.981
16541TIP3   OH249507   3.657   7.490   6.161
16541TIP3    H149508   3.606   7.523   6.086
16541TIP3    H249509   3.600   7.505   6.237
16542TIP3   OH249510   3.748   8.260   5.925
16542TIP3    H149511   3.695   8.332   5.960
16542TIP3    H249512   3.796   8.300   5.853
16543TIP3   OH249513   4.540   7.600   5.586
16543TIP3    H149514   4.488   7.587   5.665
16543TIP3    H249515   4.588   7.682   5.602
16544TIP3   OH249516   3.548   7.594   5.927
16544TIP3    H149517   3.604   7.669   5.950
16544TIP3    H249518   3.594   7.551   5.856
16545TIP3   OH249519   3.594   8.460   6.037
16545TIP3    H149520   3.583   8.550   6.006
16545TIP3    H249521   3.515   8.442   6.088
16546TIP3   OH249522   2.972   8.167   5.286
16546TIP3    H149523   2.943   8.191   5.198
16546TIP3    H249524   2.999   8.250   5.326
16547TIP3   OH249525   4.408   8.676   5.535
16547TIP3    H149526   4.320   8.668   5.570
16547TIP3    H249527   4.408   8.760   5.489
16548TIP3   OH249528   4.741   7.557   5.901
16548TIP3    H149529   4.656   7.577   5.860
16548TIP3    H249530   4.806   7.584   5.836
16549TIP3   OH249531   4.002   7.181   5.905
16549TIP3    H149532   3.997   7.090   5.934
16549TIP3    H249533   3.923   7.222   5.940
16550TIP3   OH249534   4.098   8.675   5.175
16550TIP3    H149535   4.142   8.591   5.167
16550TIP3    H249536   4.165   8.740   5.151
16551TIP3   OH249537   4.232   8.437   5.148
16551TIP3    H149538   4.211   8.346   5.126
16551TIP3    H249539   4.293   8.431   5.222
16552TIP3   OH249540   4.654   8.553   5.877
16552TIP3    H149541   4.632   8.480   5.819
16552TIP3    H249542   4.640   8.632   5.824
16553TIP3   OH249543   3.931   7.951   5.099
16553TIP3    H149544   3.856   8.011   5.096
16553TIP3    H249545   4.008   8.009   5.097
16554TIP3   OH249546   3.872   7.806   4.865
16554TIP3    H149547   3.904   7.851   4.943
16554TIP3    H249548   3.945   7.751   4.837
16555TIP3   OH249549   4.823   8.223   5.739
16555TIP3    H149550   4.738   8.267   5.736
16555TIP3    H249551   4.859   8.235   5.651
16556TIP3   OH249552   4.522   8.084   6.044
16556TIP3    H149553   4.517   8.167   6.091
16556TIP3    H249554   4.440   8.080   5.994
16557TIP3   OH249555   3.517   8.032   5.505
16557TIP3    H149556   3.481   7.972   5.440
16557TIP3    H249557   3.589   7.985   5.545
16558TIP3   OH249558   3.652   8.456   5.652
16558TIP3    H149559   3.628   8.443   5.561
16558TIP3    H249560   3.740   8.419   5.660
16559TIP3   OH249561   3.612   8.027   5.883
16559TIP3    H149562   3.650   7.989   5.803
16559TIP3    H249563   3.662   8.107   5.897
16560TIP3   OH249564   4.167   8.673   5.662
16560TIP3    H149565   4.159   8.751   5.718
16560TIP3    H249566   4.154   8.599   5.721
16561TIP3   OH249567   3.792   8.564   6.203
16561TIP3    H149568   3.730   8.621   6.249
16561TIP3    H249569   3.736   8.510   6.146
16562TIP3   OH249570   4.179   7.851   4.917
16562TIP3    H149571   4.185   7.931   4.970
16562TIP3    H249572   4.177   7.882   4.827
16563TIP3   OH249573   3.546   8.110   6.354
16563TIP3    H149574   3.549   8.205   6.368
16563TIP3    H249575   3.453   8.090   6.343
16564TIP3   OH249576   3.820   8.660   5.241
16564TIP3    H149577   3.913   8.644   5.224
16564TIP3    H249578   3.787   8.697   5.159
16565TIP3   OH249579   3.581   8.722   6.289
16565TIP3    H149580   3.559   8.729   6.196
16565TIP3    H249581   3.497   8.709   6.333
16566TIP3   OH249582   4.625   7.141   4.989
16566TIP3    H149583   4.548   7.158   5.043
16566TIP3    H249584   4.636   7.220   4.937
16567TIP3   OH249585   3.394   7.872   5.305
16567TIP3    H149586   3.313   7.913   5.275
16567TIP3    H249587   3.370   7.781   5.321
16568TIP3   OH249588   4.454   8.511   4.545
16568TIP3    H149589   4.450   8.604   4.528
16568TIP3    H249590   4.542   8.485   4.519
16569TIP3   OH249591   3.177   8.281   6.237
16569TIP3    H149592   3.109   8.261   6.173
16569TIP3    H249593   3.212   8.195   6.262
16570TIP3   OH249594   3.073   8.452   5.880
16570TIP3    H149595   3.162   8.434   5.848
16570TIP3    H249596   3.083   8.527   5.939
16571TIP3   OH249597   4.888   8.939   5.942
16571TIP3    H149598   4.895   8.843   5.949
16571TIP3    H249599   4.807   8.960   5.987
16572TIP3   OH249600   3.983   8.703   6.064
16572TIP3    H149601   3.975   8.794   6.094
16572TIP3    H249602   3.915   8.656   6.112
16573TIP3   OH249603   3.753   8.792   5.003
16573TIP3    H149604   3.713   8.784   4.916
16573TIP3    H249605   3.723   8.877   5.035
16574TIP3   OH249606   3.199   8.648   5.403
16574TIP3    H149607   3.244   8.646   5.487
16574TIP3    H249608   3.154   8.564   5.398
16575TIP3   OH249609   3.966   8.734   4.643
16575TIP3    H149610   4.017   8.660   4.610
16575TIP3    H249611   3.996   8.745   4.733
16576TIP3   OH249612   4.010   8.763   4.914
16576TIP3    H149613   3.923   8.769   4.952
16576TIP3    H249614   4.063   8.721   4.982
16577TIP3   OH249615   4.767   8.037   6.202
16577TIP3    H149616   4.685   8.044   6.152
16577TIP3    H249617   4.786   7.943   6.204
16578TIP3   OH249618   3.375   8.470   6.206
16578TIP3    H149619   3.427   8.455   6.285
16578TIP3    H249620   3.303   8.407   6.212
16579TIP3   OH249621   3.761   7.271   6.023
16579TIP3    H149622   3.677   7.235   5.992
16579TIP3    H249623   3.737   7.351   6.070
16580TIP3   OH249624   4.309   7.396   6.236
16580TIP3    H149625   4.381   7.363   6.291
16580TIP3    H249626   4.230   7.376   6.286
16581TIP3   OH249627   4.526   7.819   6.131
16581TIP3    H149628   4.484   7.816   6.217
16581TIP3    H249629   4.509   7.908   6.099
16582TIP3   OH249630   4.179   7.888   4.639
16582TIP3    H149631   4.155   7.879   4.547
16582TIP3    H249632   4.258   7.942   4.639
16583TIP3   OH249633   3.929   7.301   4.998
16583TIP3    H149634   3.891   7.312   5.085
16583TIP3    H249635   3.884   7.225   4.962
16584TIP3   OH249636   3.700   7.806   6.028
16584TIP3    H149637   3.654   7.811   6.112
16584TIP3    H249638   3.676   7.887   5.983
16585TIP3   OH249639   3.575   7.685   5.550
16585TIP3    H149640   3.486   7.657   5.574
16585TIP3    H249641   3.586   7.652   5.461
16586TIP3   OH249642   4.056   7.765   5.267
16586TIP3    H149643   4.013   7.835   5.219
16586TIP3    H249644   4.117   7.727   5.204
16587TIP3   OH249645   4.240   8.017   6.358
16587TIP3    H149646   4.220   7.950   6.423
16587TIP3    H249647   4.333   8.036   6.371
16588TIP3   OH249648   4.230   7.788   5.490
16588TIP3    H149649   4.162   7.809   5.426
16588TIP3    H249650   4.277   7.714   5.452
16589TIP3   OH249651   3.539   7.820   6.251
16589TIP3    H149652   3.552   7.881   6.323
16589TIP3    H249653   3.520   7.736   6.295
16590TIP3   OH249654   3.580   7.299   4.965
16590TIP3    H149655   3.572   7.302   5.061
16590TIP3    H249656   3.503   7.346   4.933
16591TIP3   OH249657   3.102   7.360   5.860
16591TIP3    H149658   3.188   7.386   5.893
16591TIP3    H249659   3.118   7.336   5.769
16592TIP3   OH249660   3.100   7.366   5.362
16592TIP3    H149661   3.128   7.386   5.273
16592TIP3    H249662   3.010   7.398   5.367
16593TIP3   OH249663   4.269   8.028   5.927
16593TIP3    H149664   4.292   7.962   5.861
16593TIP3    H249665   4.226   7.978   5.996
16594TIP3   OH249666   3.946   7.476   5.600
16594TIP3    H149667   3.866   7.474   5.652
16594TIP3    H249668   4.016   7.466   5.664
16595TIP3   OH249669   3.337   7.558   5.605
16595TIP3    H149670   3.249   7.568   5.568
16595TIP3    H249671   3.358   7.466   5.591
16596TIP3   OH249672   3.594   7.564   5.305
16596TIP3    H149673   3.688   7.576   5.292
16596TIP3    H249674   3.556   7.580   5.218
16597TIP3   OH249675   4.379   7.568   5.814
16597TIP3    H149676   4.362   7.583   5.907
16597TIP3    H249677   4.312   7.505   5.787
16598TIP3   OH249678   3.473   7.586   5.060
16598TIP3    H149679   3.408   7.536   5.010
16598TIP3    H249680   3.521   7.635   4.994
16599TIP3   OH249681   7.860   0.024   6.034
16599TIP3    H149682   7.856   0.037   5.940
16599TIP3    H249683   7.937   0.073   6.062
16600TIP3   OH249684   3.528   8.381   6.437
16600TIP3    H149685   3.609   8.399   6.484
16600TIP3    H249686   3.459   8.390   6.503
16601TIP3   OH249687   3.988   7.852   5.705
16601TIP3    H149688   4.054   7.804   5.655
16601TIP3    H249689   3.987   7.810   5.791
16602TIP3   OH249690   3.486   7.307   5.598
16602TIP3    H149691   3.454   7.234   5.651
16602TIP3    H249692   3.495   7.271   5.510
16603TIP3   OH249693   3.965   7.750   5.967
16603TIP3    H149694   3.878   7.779   5.993
16603TIP3    H249695   4.025   7.801   6.022
16604TIP3   OH249696   3.702   8.114   5.069
16604TIP3    H149697   3.629   8.056   5.050
16604TIP3    H249698   3.682   8.152   5.155
16605TIP3   OH249699   4.587   8.359   5.695
16605TIP3    H149700   4.622   8.408   5.621
16605TIP3    H249701   4.506   8.320   5.662
16606TIP3   OH249702   4.128   7.456   4.894
16606TIP3    H149703   4.055   7.409   4.935
16606TIP3    H249704   4.160   7.515   4.963
16607TIP3   OH249705   4.113   8.442   6.101
16607TIP3    H149706   4.164   8.433   6.182
16607TIP3    H249707   4.072   8.528   6.107
16608TIP3   OH249708   4.229   7.639   5.077
16608TIP3    H149709   4.323   7.644   5.094
16608TIP3    H249710   4.210   7.714   5.019
16609TIP3   OH249711   3.388   8.126   5.732
16609TIP3    H149712   3.424   8.104   5.646
16609TIP3    H249713   3.452   8.092   5.794
16610TIP3   OH249714   3.854   8.264   4.871
16610TIP3    H149715   3.814   8.347   4.896
16610TIP3    H249716   3.829   8.204   4.941
16611TIP3   OH249717   3.269   8.050   6.371
16611TIP3    H149718   3.272   8.022   6.463
16611TIP3    H249719   3.195   8.002   6.334
16612TIP3   OH249720   4.013   8.183   6.392
16612TIP3    H149721   3.942   8.125   6.364
16612TIP3    H249722   4.093   8.138   6.362
16613TIP3   OH249723   4.253   8.735   5.989
16613TIP3    H149724   4.159   8.717   5.993
16613TIP3    H249725   4.274   8.769   6.076
16614TIP3   OH249726   4.644   7.766   4.878
16614TIP3    H149727   4.589   7.719   4.815
16614TIP3    H249728   4.643   7.857   4.847
16615TIP3   OH249729   4.897   8.663   5.955
16615TIP3    H149730   4.805   8.636   5.960
16615TIP3    H249731   4.928   8.625   5.873
16616TIP3   OH249732   4.374   8.570   4.814
16616TIP3    H149733   4.350   8.494   4.868
16616TIP3    H249734   4.396   8.533   4.728
16617TIP3   OH249735   4.356   8.231   5.595
16617TIP3    H149736   4.266   8.207   5.618
16617TIP3    H249737   4.394   8.152   5.557
16618TIP3   OH249738   3.532   8.461   5.401
16618TIP3    H149739   3.554   8.536   5.346
16618TIP3    H249740   3.436   8.456   5.399
16619TIP3   OH249741   3.056   7.738   5.109
16619TIP3    H149742   3.106   7.816   5.133
16619TIP3    H249743   2.980   7.739   5.167
16620TIP3   OH249744   3.601   8.210   5.303
16620TIP3    H149745   3.592   8.299   5.337
16620TIP3    H249746   3.574   8.154   5.376
16621TIP3   OH249747   3.799   8.779   5.858
16621TIP3    H149748   3.835   8.851   5.805
16621TIP3    H249749   3.874   8.745   5.906
16622TIP3   OH249750   3.424   8.683   5.249
16622TIP3    H149751   3.340   8.683   5.295
16622TIP3    H249752   3.457   8.772   5.259
16623TIP3   OH249753   4.147   8.447   5.826
16623TIP3    H149754   4.138   8.440   5.921
16623TIP3    H249755   4.218   8.387   5.805
16624TIP3   OH249756   4.112   8.320   4.723
16624TIP3    H149757   4.186   8.308   4.784
16624TIP3    H249758   4.035   8.295   4.774
16625TIP3   OH249759   4.413   8.937   5.871
16625TIP3    H149760   4.343   8.876   5.893
16625TIP3    H249761   4.376   8.992   5.802
16626TIP3   OH249762   4.466   8.784   4.511
16626TIP3    H149763   4.517   8.856   4.473
16626TIP3    H249764   4.388   8.826   4.547
16627TIP3   OH249765   3.484   7.566   6.367
16627TIP3    H149766   3.388   7.574   6.370
16627TIP3    H249767   3.505   7.505   6.438
16628TIP3   OH249768   4.342   8.285   4.869
16628TIP3    H149769   4.298   8.235   4.937
16628TIP3    H249770   4.434   8.262   4.878
16629TIP3   OH249771   3.209   8.672   6.022
16629TIP3    H149772   3.268   8.617   6.075
16629TIP3    H249773   3.225   8.761   6.053
16630TIP3   OH249774   3.480   8.285   4.717
16630TIP3    H149775   3.501   8.196   4.689
16630TIP3    H249776   3.474   8.279   4.813
16631TIP3   OH249777   3.444   8.295   4.991
16631TIP3    H149778   3.520   8.265   5.042
16631TIP3    H249779   3.446   8.390   4.999
16632TIP3   OH249780   3.164   7.985   5.194
16632TIP3    H149781   3.101   8.034   5.246
16632TIP3    H249782   3.189   8.044   5.123
16633TIP3   OH249783   4.330   7.624   6.081
16633TIP3    H149784   4.412   7.666   6.107
16633TIP3    H249785   4.324   7.546   6.137
16634TIP3   OH249786   4.223   7.393   5.263
16634TIP3    H149787   4.186   7.443   5.190
16634TIP3    H249788   4.277   7.456   5.310
16635TIP3   OH249789   3.714   8.490   4.928
16635TIP3    H149790   3.631   8.511   4.969
16635TIP3    H249791   3.742   8.572   4.886
16636TIP3   OH249792   3.875   7.571   5.346
16636TIP3    H149793   3.933   7.642   5.319
16636TIP3    H249794   3.900   7.553   5.437
16637TIP3   OH249795   4.172   7.860   6.122
16637TIP3    H149796   4.197   7.900   6.206
16637TIP3    H249797   4.221   7.778   6.120
16638TIP3   OH249798   4.041   7.268   5.438
16638TIP3    H149799   4.015   7.343   5.490
16638TIP3    H249800   4.109   7.302   5.379
16639TIP3   OH249801   3.460   8.567   5.006
16639TIP3    H149802   3.443   8.639   4.945
16639TIP3    H249803   3.448   8.606   5.093
16640TIP3   OH249804   3.552   7.289   5.243
16640TIP3    H149805   3.536   7.378   5.274
16640TIP3    H249806   3.646   7.276   5.252
16641TIP3   OH249807   4.788   7.754   6.113
16641TIP3    H149808   4.694   7.770   6.124
16641TIP3    H249809   4.794   7.690   6.043
16642TIP3   OH249810   4.450   7.981   5.508
16642TIP3    H149811   4.375   7.922   5.503
16642TIP3    H249812   4.516   7.931   5.557
16643TIP3   OH249813   3.196   8.170   4.983
16643TIP3    H149814   3.271   8.228   4.997
16643TIP3    H249815   3.226   8.108   4.917
16644TIP3   OH249816   3.104   7.462   5.103
16644TIP3    H149817   3.095   7.557   5.104
16644TIP3    H249818   3.033   7.432   5.046
16645TIP3   OH249819   4.434   8.941   5.452
16645TIP3    H149820   4.390   8.985   5.379
16645TIP3    H249821   4.527   8.950   5.433
16646TIP3   OH249822   3.499   7.183   5.983
16646TIP3    H149823   3.469   7.153   5.897
16646TIP3    H249824   3.492   7.106   6.039
16647TIP3   OH249825   3.026   8.427   5.386
16647TIP3    H149826   2.987   8.463   5.465
16647TIP3    H249827   2.982   8.473   5.314
16648TIP3   OH249828   3.229   8.974   6.449
16648TIP3    H149829   3.311   8.982   6.497
16648TIP3    H249830   3.219   8.880   6.434
16649TIP3   OH249831   3.692   8.883   6.483
16649TIP3    H149832   3.782   8.851   6.492
16649TIP3    H249833   3.657   8.831   6.410
16650TIP3   OH249834   3.650   8.472   4.609
16650TIP3    H149835   3.592   8.412   4.656
16650TIP3    H249836   3.724   8.418   4.582
16651TIP3   OH249837   4.308   8.827   6.241
16651TIP3    H149838   4.324   8.757   6.304
16651TIP3    H249839   4.382   8.886   6.252
16652TIP3   OH249840   4.095   8.520   4.535
16652TIP3    H149841   4.111   8.455   4.604
16652TIP3    H249842   4.166   8.505   4.472
16653TIP3   OH249843   3.322   8.384   6.627
16653TIP3    H149844   3.344   8.292   6.640
16653TIP3    H249845   3.235   8.383   6.587
16654TIP3   OH249846   3.315   7.982   4.824
16654TIP3    H149847   3.365   7.960   4.902
16654TIP3    H249848   3.381   7.996   4.756
16655TIP3   OH249849   3.947   8.460   6.407
16655TIP3    H149850   3.903   8.482   6.325
16655TIP3    H249851   3.983   8.372   6.393
16656TIP3   OH249852   3.805   8.206   4.611
16656TIP3    H149853   3.819   8.227   4.703
16656TIP3    H249854   3.817   8.111   4.606
16657TIP3   OH249855   4.425   8.513   6.030
16657TIP3    H149856   4.503   8.537   5.980
16657TIP3    H249857   4.360   8.580   6.008
16658TIP3   OH249858   3.435   8.132   6.635
16658TIP3    H149859   3.509   8.110   6.578
16658TIP3    H249860   3.475   8.145   6.722
16659TIP3   OH249861   3.487   7.934   5.041
16659TIP3    H149862   3.469   7.906   5.131
16659TIP3    H249863   3.530   7.859   5.000
16660TIP3   OH249864   3.806   8.008   6.301
16660TIP3    H149865   3.719   8.047   6.311
16660TIP3    H249866   3.835   8.036   6.214
16661TIP3   OH249867   3.607   7.743   4.882
16661TIP3    H149868   3.583   7.745   4.789
16661TIP3    H249869   3.701   7.761   4.883
16662TIP3   OH249870   4.305   8.379   6.373
16662TIP3    H149871   4.374   8.343   6.318
16662TIP3    H249872   4.303   8.322   6.450
16663TIP3   OH249873   4.413   8.026   4.568
16663TIP3    H149874   4.405   7.993   4.479
16663TIP3    H249875   4.384   8.117   4.562
16664TIP3   OH249876   3.926   7.777   6.395
16664TIP3    H149877   3.920   7.706   6.331
16664TIP3    H249878   3.885   7.852   6.352
16665TIP3   OH249879   3.915   7.577   6.197
16665TIP3    H149880   3.943   7.609   6.111
16665TIP3    H249881   3.825   7.548   6.184
16666TIP3   OH249882   3.917   8.103   6.073
16666TIP3    H149883   4.006   8.134   6.054
16666TIP3    H249884   3.861   8.160   6.020
16667TIP3   OH249885   4.515   8.063   6.446
16667TIP3    H149886   4.560   7.979   6.442
16667TIP3    H249887   4.585   8.128   6.436
16668TIP3   OH249888   4.538   8.327   6.191
16668TIP3    H149889   4.488   8.391   6.141
16668TIP3    H249890   4.628   8.338   6.160
16669TIP3   OH249891   3.811   7.846   6.648
16669TIP3    H149892   3.738   7.787   6.666
16669TIP3    H249893   3.837   7.826   6.558
16670TIP3   OH249894   4.040   7.353   6.316
16670TIP3    H149895   3.997   7.428   6.275
16670TIP3    H249896   3.980   7.280   6.302
16671TIP3   OH249897   4.173   7.793   6.520
16671TIP3    H149898   4.133   7.785   6.607
16671TIP3    H249899   4.101   7.779   6.459
16672TIP3   OH249900   4.415   7.775   6.372
16672TIP3    H149901   4.337   7.755   6.423
16672TIP3    H249902   4.488   7.745   6.427
16673TIP3   OH249903   4.639   7.728   6.528
16673TIP3    H149904   4.660   7.635   6.534
16673TIP3    H249905   4.647   7.761   6.617
16674TIP3   OH249906   3.623   7.641   6.707
16674TIP3    H149907   3.629   7.553   6.671
16674TIP3    H249908   3.659   7.632   6.796
16675TIP3   OH249909   4.108   7.345   6.583
16675TIP3    H149910   4.180   7.283   6.576
16675TIP3    H249911   4.076   7.354   6.494
16676TIP3   OH249912   4.195   7.527   6.769
16676TIP3    H149913   4.172   7.453   6.712
16676TIP3    H249914   4.122   7.588   6.760
16677TIP3   OH249915   3.462   8.778   4.827
16677TIP3    H149916   3.547   8.750   4.794
16677TIP3    H249917   3.418   8.816   4.751
16678TIP3   OH249918   2.922   8.171   4.990
16678TIP3    H149919   3.018   8.181   4.990
16678TIP3    H249920   2.907   8.085   4.951
16679TIP3   OH249921   2.822   8.722   5.461
16679TIP3    H149922   2.754   8.672   5.417
16679TIP3    H249923   2.865   8.659   5.520
16680TIP3   OH249924   2.971   8.566   5.633
16680TIP3    H149925   2.970   8.501   5.703
16680TIP3    H249926   3.016   8.641   5.670
16681TIP3   OH249927   4.705   8.982   5.432
16681TIP3    H149928   4.729   9.009   5.521
16681TIP3    H249929   4.760   9.036   5.375
16682TIP3   OH249930   4.735   9.003   5.712
16682TIP3    H149931   4.688   8.920   5.709
16682TIP3    H249932   4.805   8.989   5.776
16683TIP3   OH249933   4.780   8.725   6.284
16683TIP3    H149934   4.708   8.732   6.346
16683TIP3    H249935   4.824   8.810   6.288
16684TIP3   OH249936   4.615   8.227   4.891
16684TIP3    H149937   4.670   8.301   4.866
16684TIP3    H249938   4.655   8.192   4.971
16685TIP3   OH249939   4.749   8.097   5.097
16685TIP3    H149940   4.685   8.056   5.156
16685TIP3    H249941   4.813   8.138   5.155
16686TIP3   OH249942   4.771   8.496   5.535
16686TIP3    H149943   4.821   8.427   5.492
16686TIP3    H249944   4.774   8.570   5.474
16687TIP3   OH249945   4.584   8.773   5.727
16687TIP3    H149946   4.519   8.823   5.776
16687TIP3    H249947   4.535   8.734   5.655
16688TIP3   OH249948   4.631   8.003   4.736
16688TIP3    H149949   4.555   8.005   4.679
16688TIP3    H249950   4.621   8.081   4.791
16689TIP3   OH249951   4.514   7.648   4.666
16689TIP3    H149952   4.458   7.698   4.606
16689TIP3    H249953   4.490   7.557   4.651
16690TIP3   OH249954   4.566   7.963   5.252
16690TIP3    H149955   4.492   7.925   5.204
16690TIP3    H249956   4.530   7.987   5.337
16691TIP3   OH249957   3.140   8.018   6.007
16691TIP3    H149958   3.129   7.982   5.919
16691TIP3    H249959   3.234   8.012   6.025
16692TIP3   OH249960   4.793   8.368   6.089
16692TIP3    H149961   4.864   8.305   6.073
16692TIP3    H249962   4.787   8.418   6.008
16693TIP3   OH249963   4.980   8.162   6.084
16693TIP3    H149964   4.906   8.119   6.127
16693TIP3    H249965   5.056   8.107   6.107
16694TIP3   OH249966   4.448   7.378   4.639
16694TIP3    H149967   4.494   7.361   4.721
16694TIP3    H249968   4.359   7.346   4.653
16695TIP3   OH249969   4.505   7.657   5.115
16695TIP3    H149970   4.560   7.579   5.126
16695TIP3    H249971   4.552   7.710   5.050
16696TIP3   OH249972   4.664   7.844   5.640
16696TIP3    H149973   4.744   7.858   5.589
16696TIP3    H249974   4.682   7.884   5.725
16697TIP3   OH249975   4.742   7.993   5.867
16697TIP3    H149976   4.667   8.021   5.921
16697TIP3    H249977   4.772   8.073   5.825
16698TIP3   OH249978   3.358   7.695   6.646
16698TIP3    H149979   3.452   7.692   6.662
16698TIP3    H249980   3.324   7.613   6.681
16699TIP3   OH249981   5.197   7.597   6.402
16699TIP3    H149982   5.264   7.538   6.368
16699TIP3    H249983   5.163   7.642   6.325
16700TIP3   OH249984   4.638   7.418   5.165
16700TIP3    H149985   4.678   7.406   5.251
16700TIP3    H249986   4.568   7.352   5.162
16701TIP3   OH249987   3.339   7.411   6.000
16701TIP3    H149988   3.390   7.330   6.004
16701TIP3    H249989   3.403   7.478   5.976
16702TIP3   OH249990   3.118   7.677   6.056
16702TIP3    H149991   3.163   7.659   5.973
16702TIP3    H249992   3.162   7.754   6.092
16703TIP3   OH249993   5.051   7.702   6.194
16703TIP3    H149994   4.963   7.740   6.206
16703TIP3    H249995   5.035   7.619   6.148
16704TIP3   OH249996   4.669   7.346   4.811
16704TIP3    H149997   4.716   7.292   4.748
16704TIP3    H249998   4.717   7.428   4.814
16705TIP3   OH249999   3.111   7.246   5.607
16705TIP3    H150000   3.037   7.186   5.598
16705TIP3    H250001   3.122   7.284   5.520
16706TIP3   OH250002   4.250   8.884   5.083
16706TIP3    H150003   4.309   8.876   5.008
16706TIP3    H250004   4.291   8.950   5.139
16707TIP3   OH250005   3.336   7.255   6.389
16707TIP3    H150006   3.281   7.237   6.466
16707TIP3    H250007   3.277   7.297   6.327
16708TIP3   OH250008   3.353   8.701   6.453
16708TIP3    H150009   3.261   8.675   6.446
16708TIP3    H250010   3.376   8.686   6.544
16709TIP3   OH250011   3.575   8.733   6.008
16709TIP3    H150012   3.519   8.802   5.973
16709TIP3    H250013   3.659   8.744   5.964
16710TIP3   OH250014   3.971   8.966   6.146
16710TIP3    H150015   4.011   8.962   6.233
16710TIP3    H250016   4.030   9.022   6.095
16711TIP3   OH250017   4.152   9.122   6.010
16711TIP3    H150018   4.202   9.068   5.948
16711TIP3    H250019   4.218   9.165   6.063
16712TIP3   OH250020   4.968   7.447   6.106
16712TIP3    H150021   4.878   7.427   6.079
16712TIP3    H250022   5.013   7.362   6.103
16713TIP3   OH250023   3.228   8.955   6.055
16713TIP3    H150024   3.138   8.982   6.035
16713TIP3    H250025   3.258   9.020   6.119
16714TIP3   OH250026   3.455   8.949   5.899
16714TIP3    H150027   3.371   8.956   5.943
16714TIP3    H250028   3.437   8.976   5.809
16715TIP3   OH250029   3.878   8.985   5.689
16715TIP3    H150030   3.810   8.993   5.622
16715TIP3    H250031   3.882   9.071   5.730
16716TIP3   OH250032   4.143   8.940   5.753
16716TIP3    H150033   4.052   8.949   5.725
16716TIP3    H250034   4.192   8.999   5.695
16717TIP3   OH250035   4.352   9.109   5.653
16717TIP3    H150036   4.341   9.193   5.609
16717TIP3    H250037   4.378   9.049   5.583
16718TIP3   OH250038   3.132   8.762   5.770
16718TIP3    H150039   3.159   8.738   5.858
16718TIP3    H250040   3.205   8.735   5.714
16719TIP3   OH250041   3.343   8.653   5.637
16719TIP3    H150042   3.356   8.568   5.679
16719TIP3    H250043   3.430   8.694   5.638
16720TIP3   OH250044   3.612   8.734   5.654
16720TIP3    H150045   3.631   8.642   5.637
16720TIP3    H250046   3.667   8.756   5.729
16721TIP3   OH250047   4.169   7.383   5.746
16721TIP3    H150048   4.133   7.312   5.799
16721TIP3    H250049   4.236   7.341   5.693
16722TIP3   OH250050   4.672   7.297   5.626
16722TIP3    H150051   4.709   7.349   5.555
16722TIP3    H250052   4.581   7.326   5.632
16723TIP3   OH250053   4.789   7.379   5.392
16723TIP3    H150054   4.858   7.317   5.369
16723TIP3    H250055   4.827   7.465   5.378
16724TIP3   OH250056   3.410   7.080   5.743
16724TIP3    H150057   3.320   7.049   5.749
16724TIP3    H250058   3.463   7.000   5.737
16725TIP3   OH250059   3.200   6.943   5.325
16725TIP3    H150060   3.237   7.014   5.272
16725TIP3    H250061   3.108   6.965   5.335
16726TIP3   OH250062   3.902   7.119   5.640
16726TIP3    H150063   3.950   7.170   5.575
16726TIP3    H250064   3.940   7.145   5.724
16727TIP3   OH250065   4.380   7.269   5.607
16727TIP3    H150066   4.400   7.234   5.520
16727TIP3    H250067   4.386   7.194   5.665
16728TIP3   OH250068   4.434   7.226   5.172
16728TIP3    H150069   4.356   7.276   5.196
16728TIP3    H250070   4.421   7.140   5.214
16729TIP3   OH250071   2.907   8.550   5.174
16729TIP3    H150072   2.825   8.515   5.141
16729TIP3    H250073   2.915   8.636   5.132
16730TIP3   OH250074   3.346   7.115   5.148
16730TIP3    H150075   3.396   7.060   5.086
16730TIP3    H250076   3.413   7.172   5.188
16731TIP3   OH250077   3.827   7.317   5.256
16731TIP3    H150078   3.885   7.267   5.314
16731TIP3    H250079   3.840   7.408   5.282
16732TIP3   OH250080   3.709   8.707   4.737
16732TIP3    H150081   3.794   8.731   4.699
16732TIP3    H250082   3.683   8.628   4.690
16733TIP3   OH250083   4.404   8.840   4.852
16733TIP3    H150084   4.396   8.745   4.846
16733TIP3    H250085   4.364   8.873   4.771
16734TIP3   OH250086   3.640   7.371   6.620
16734TIP3    H150087   3.606   7.304   6.679
16734TIP3    H250088   3.732   7.381   6.644
16735TIP3   OH250089   3.886   7.387   6.748
16735TIP3    H150090   3.963   7.365   6.696
16735TIP3    H250091   3.879   7.317   6.813
16736TIP3   OH250092   3.020   8.556   4.805
16736TIP3    H150093   3.023   8.563   4.901
16736TIP3    H250094   3.100   8.508   4.782
16737TIP3   OH250095   4.714   7.464   6.543
16737TIP3    H150096   4.728   7.433   6.632
16737TIP3    H250097   4.800   7.455   6.500
16738TIP3   OH250098   4.633   8.991   6.035
16738TIP3    H150099   4.559   8.961   5.982
16738TIP3    H250100   4.619   9.086   6.044
16739TIP3   OH250101   5.879   8.369   5.209
16739TIP3    H150102   5.937   8.353   5.283
16739TIP3    H250103   5.839   8.284   5.191
16740TIP3   OH250104   5.200   8.235   5.544
16740TIP3    H150105   5.238   8.183   5.615
16740TIP3    H250106   5.274   8.261   5.491
16741TIP3   OH250107   5.198   8.658   5.223
16741TIP3    H150108   5.178   8.565   5.233
16741TIP3    H250109   5.293   8.662   5.216
16742TIP3   OH250110   4.884   7.875   5.000
16742TIP3    H150111   4.847   7.956   5.033
16742TIP3    H250112   4.808   7.823   4.973
16743TIP3   OH250113   4.971   8.189   5.239
16743TIP3    H150114   5.019   8.110   5.263
16743TIP3    H250115   5.038   8.254   5.222
16744TIP3   OH250116   5.844   9.096   4.886
16744TIP3    H150117   5.869   9.028   4.822
16744TIP3    H250118   5.850   9.052   4.970
16745TIP3   OH250119   5.712   8.598   5.203
16745TIP3    H150120   5.755   8.514   5.185
16745TIP3    H250121   5.783   8.657   5.226
16746TIP3   OH250122   6.737   7.924   5.187
16746TIP3    H150123   6.716   8.017   5.179
16746TIP3    H250124   6.791   7.905   5.110
16747TIP3   OH250125   6.108   8.079   5.240
16747TIP3    H150126   6.145   7.995   5.269
16747TIP3    H250127   6.075   8.061   5.152
16748TIP3   OH250128   5.483   7.758   5.204
16748TIP3    H150129   5.457   7.823   5.138
16748TIP3    H250130   5.443   7.676   5.173
16749TIP3   OH250131   6.153   7.829   4.847
16749TIP3    H150132   6.219   7.826   4.916
16749TIP3    H250133   6.199   7.866   4.772
16750TIP3   OH250134   5.101   7.957   5.317
16750TIP3    H150135   5.181   7.936   5.365
16750TIP3    H250136   5.106   7.906   5.236
16751TIP3   OH250137   5.515   8.158   5.145
16751TIP3    H150138   5.609   8.143   5.155
16751TIP3    H250139   5.482   8.075   5.112
16752TIP3   OH250140   6.726   8.187   5.421
16752TIP3    H150141   6.647   8.213   5.374
16752TIP3    H250142   6.702   8.106   5.466
16753TIP3   OH250143   5.452   7.746   5.649
16753TIP3    H150144   5.402   7.784   5.577
16753TIP3    H250145   5.397   7.760   5.727
16754TIP3   OH250146   5.810   8.622   4.600
16754TIP3    H150147   5.758   8.580   4.531
16754TIP3    H250148   5.750   8.686   4.638
16755TIP3   OH250149   5.547   8.522   5.412
16755TIP3    H150150   5.494   8.593   5.449
16755TIP3    H250151   5.595   8.563   5.341
16756TIP3   OH250152   6.323   7.861   5.059
16756TIP3    H150153   6.283   7.843   5.144
16756TIP3    H250154   6.381   7.936   5.075
16757TIP3   OH250155   5.346   7.860   5.420
16757TIP3    H150156   5.398   7.935   5.447
16757TIP3    H250157   5.396   7.819   5.349
16758TIP3   OH250158   5.393   8.721   5.526
16758TIP3    H150159   5.383   8.812   5.499
16758TIP3    H250160   5.312   8.702   5.574
16759TIP3   OH250161   4.776   8.425   4.776
16759TIP3    H150162   4.731   8.452   4.696
16759TIP3    H250163   4.800   8.507   4.819
16760TIP3   OH250164   6.221   8.949   5.037
16760TIP3    H150165   6.131   8.922   5.055
16760TIP3    H250166   6.211   9.026   4.980
16761TIP3   OH250167   6.514   7.804   5.355
16761TIP3    H150168   6.427   7.817   5.318
16761TIP3    H250169   6.574   7.831   5.285
16762TIP3   OH250170   5.784   7.436   5.369
16762TIP3    H150171   5.783   7.344   5.396
16762TIP3    H250172   5.710   7.475   5.416
16763TIP3   OH250173   5.925   8.945   4.663
16763TIP3    H150174   5.979   8.867   4.647
16763TIP3    H250175   5.981   9.018   4.638
16764TIP3   OH250176   6.067   8.721   4.579
16764TIP3    H150177   5.985   8.673   4.591
16764TIP3    H250178   6.135   8.661   4.612
16765TIP3   OH250179   6.444   8.828   5.362
16765TIP3    H150180   6.423   8.757   5.302
16765TIP3    H250181   6.429   8.908   5.312
16766TIP3   OH250182   5.729   8.171   4.565
16766TIP3    H150183   5.663   8.240   4.573
16766TIP3    H250184   5.806   8.215   4.529
16767TIP3   OH250185   5.664   8.041   4.327
16767TIP3    H150186   5.693   8.079   4.410
16767TIP3    H250187   5.738   7.986   4.299
16768TIP3   OH250188   6.623   8.496   5.232
16768TIP3    H150189   6.546   8.551   5.223
16768TIP3    H250190   6.663   8.496   5.145
16769TIP3   OH250191   6.295   8.355   5.524
16769TIP3    H150192   6.287   8.436   5.574
16769TIP3    H250193   6.211   8.346   5.479
16770TIP3   OH250194   5.324   8.294   4.988
16770TIP3    H150195   5.285   8.229   4.930
16770TIP3    H250196   5.396   8.247   5.031
16771TIP3   OH250197   5.460   8.707   5.132
16771TIP3    H150198   5.439   8.696   5.039
16771TIP3    H250199   5.548   8.671   5.141
16772TIP3   OH250200   5.414   8.287   5.369
16772TIP3    H150201   5.455   8.250   5.290
16772TIP3    H250202   5.463   8.369   5.384
16773TIP3   OH250203   5.962   8.923   5.129
16773TIP3    H150204   5.953   9.001   5.184
16773TIP3    H250205   5.954   8.849   5.191
16774TIP3   OH250206   5.593   8.820   5.693
16774TIP3    H150207   5.535   8.880   5.740
16774TIP3    H250208   5.534   8.770   5.636
16775TIP3   OH250209   5.969   8.199   4.416
16775TIP3    H150210   6.013   8.284   4.421
16775TIP3    H250211   5.972   8.175   4.323
16776TIP3   OH250212   5.341   8.366   5.830
16776TIP3    H150213   5.345   8.460   5.849
16776TIP3    H250214   5.248   8.347   5.824
16777TIP3   OH250215   5.664   8.846   4.678
16777TIP3    H150216   5.750   8.888   4.686
16777TIP3    H250217   5.612   8.909   4.628
16778TIP3   OH250218   5.399   8.993   5.790
16778TIP3    H150219   5.374   9.001   5.698
16778TIP3    H250220   5.317   8.975   5.836
16779TIP3   OH250221   6.425   7.400   4.474
16779TIP3    H150222   6.351   7.418   4.532
16779TIP3    H250223   6.434   7.479   4.420
16780TIP3   OH250224   5.180   8.126   4.805
16780TIP3    H150225   5.113   8.181   4.764
16780TIP3    H250226   5.130   8.058   4.851
16781TIP3   OH250227   6.259   8.765   4.031
16781TIP3    H150228   6.250   8.860   4.018
16781TIP3    H250229   6.347   8.746   4.000
16782TIP3   OH250230   4.974   8.537   5.726
16782TIP3    H150231   4.904   8.519   5.664
16782TIP3    H250232   5.008   8.451   5.750
16783TIP3   OH250233   4.819   8.730   5.386
16783TIP3    H150234   4.908   8.758   5.408
16783TIP3    H250235   4.764   8.806   5.409
16784TIP3   OH250236   5.780   8.963   5.551
16784TIP3    H150237   5.774   9.054   5.580
16784TIP3    H250238   5.713   8.917   5.600
16785TIP3   OH250239   5.563   9.043   4.503
16785TIP3    H150240   5.519   9.031   4.419
16785TIP3    H250241   5.533   9.129   4.533
16786TIP3   OH250242   4.995   8.906   4.886
16786TIP3    H150243   5.041   8.903   4.970
16786TIP3    H250244   4.949   8.823   4.880
16787TIP3   OH250245   5.764   8.996   4.131
16787TIP3    H150246   5.815   8.922   4.098
16787TIP3    H250247   5.796   9.009   4.221
16788TIP3   OH250248   5.817   9.027   4.402
16788TIP3    H150249   5.731   9.029   4.443
16788TIP3    H250250   5.874   8.988   4.468
16789TIP3   OH250251   6.533   8.303   5.720
16789TIP3    H150252   6.461   8.310   5.657
16789TIP3    H250253   6.541   8.210   5.738
16790TIP3   OH250254   5.170   8.727   5.690
16790TIP3    H150255   5.221   8.715   5.771
16790TIP3    H250256   5.100   8.663   5.697
16791TIP3   OH250257   5.555   7.530   5.504
16791TIP3    H150258   5.470   7.494   5.477
16791TIP3    H250259   5.533   7.610   5.552
16792TIP3   OH250260   6.098   7.640   5.707
16792TIP3    H150261   6.171   7.619   5.766
16792TIP3    H250262   6.020   7.626   5.760
16793TIP3   OH250263   6.358   8.103   5.633
16793TIP3    H150264   6.300   8.077   5.705
16793TIP3    H250265   6.310   8.172   5.588
16794TIP3   OH250266   6.001   8.126   4.148
16794TIP3    H150267   5.957   8.133   4.063
16794TIP3    H250268   6.080   8.179   4.138
16795TIP3   OH250269   5.668   7.597   4.448
16795TIP3    H150270   5.633   7.630   4.531
16795TIP3    H250271   5.673   7.502   4.460
16796TIP3   OH250272   5.497   8.068   5.519
16796TIP3    H150273   5.451   8.074   5.603
16796TIP3    H250274   5.475   8.150   5.474
16797TIP3   OH250275   5.386   7.942   5.024
16797TIP3    H150276   5.297   7.911   5.039
16797TIP3    H250277   5.398   7.935   4.929
16798TIP3   OH250278   5.837   7.997   4.755
16798TIP3    H150279   5.787   8.064   4.707
16798TIP3    H250280   5.905   7.970   4.693
16799TIP3   OH250281   6.040   8.274   5.838
16799TIP3    H150282   6.014   8.204   5.897
16799TIP3    H250283   6.133   8.288   5.856
16800TIP3   OH250284   6.015   8.028   4.985
16800TIP3    H150285   5.945   8.048   4.923
16800TIP3    H250286   6.060   7.953   4.947
16801TIP3   OH250287   5.333   8.078   5.738
16801TIP3    H150288   5.344   8.142   5.809
16801TIP3    H250289   5.315   7.996   5.783
16802TIP3   OH250290   4.927   7.593   5.306
16802TIP3    H150291   5.000   7.627   5.357
16802TIP3    H250292   4.967   7.559   5.226
16803TIP3   OH250293   4.830   7.573   4.814
16803TIP3    H150294   4.874   7.613   4.738
16803TIP3    H250295   4.768   7.640   4.843
16804TIP3   OH250296   6.048   8.280   5.413
16804TIP3    H150297   6.076   8.216   5.348
16804TIP3    H250298   6.012   8.227   5.485
16805TIP3   OH250299   5.743   7.735   5.088
16805TIP3    H150300   5.667   7.744   5.146
16805TIP3    H250301   5.817   7.724   5.147
16806TIP3   OH250302   5.142   7.821   5.072
16806TIP3    H150303   5.052   7.837   5.044
16806TIP3    H250304   5.152   7.726   5.071
16807TIP3   OH250305   6.201   7.824   5.309
16807TIP3    H150306   6.191   7.841   5.402
16807TIP3    H250307   6.132   7.760   5.289
16808TIP3   OH250308   9.648   0.297   5.505
16808TIP3    H150309   9.636   0.316   5.411
16808TIP3    H250310   9.719   0.355   5.532
16809TIP3   OH250311   5.326   8.634   5.921
16809TIP3    H150312   5.406   8.652   5.969
16809TIP3    H250313   5.256   8.642   5.986
16810TIP3   OH250314   5.784   8.100   5.197
16810TIP3    H150315   5.852   8.052   5.150
16810TIP3    H250316   5.782   8.061   5.284
16811TIP3   OH250317   5.370   7.528   5.102
16811TIP3    H150318   5.308   7.465   5.138
16811TIP3    H250319   5.453   7.480   5.096
16812TIP3   OH250320   5.762   8.008   5.460
16812TIP3    H150321   5.676   8.041   5.486
16812TIP3    H250322   5.824   8.056   5.516
16813TIP3   OH250323   5.505   8.343   4.570
16813TIP3    H150324   5.429   8.290   4.548
16813TIP3    H250325   5.479   8.392   4.648
16814TIP3   OH250326   6.385   8.627   5.184
16814TIP3    H150327   6.400   8.673   5.101
16814TIP3    H250328   6.308   8.572   5.168
16815TIP3   OH250329   5.928   7.708   4.421
16815TIP3    H150330   5.836   7.689   4.439
16815TIP3    H250331   5.944   7.792   4.464
16816TIP3   OH250332   5.908   8.702   5.575
16816TIP3    H150333   5.951   8.690   5.660
16816TIP3    H250334   5.864   8.787   5.582
16817TIP3   OH250335   6.009   7.947   4.537
16817TIP3    H150336   6.101   7.940   4.560
16817TIP3    H250337   5.999   8.035   4.501
16818TIP3   OH250338   5.188   8.369   5.219
16818TIP3    H150339   5.228   8.355   5.133
16818TIP3    H250340   5.255   8.342   5.281
16819TIP3   OH250341   5.641   8.509   4.400
16819TIP3    H150342   5.592   8.591   4.403
16819TIP3    H250343   5.594   8.449   4.458
16820TIP3   OH250344   5.067   8.302   5.854
16820TIP3    H150345   5.069   8.276   5.946
16820TIP3    H250346   4.992   8.255   5.817
16821TIP3   OH250347   5.811   8.433   5.876
16821TIP3    H150348   5.740   8.374   5.850
16821TIP3    H250349   5.891   8.389   5.846
16822TIP3   OH250350   6.052   8.985   5.471
16822TIP3    H150351   5.957   8.973   5.474
16822TIP3    H250352   6.074   9.022   5.556
16823TIP3   OH250353   6.476   8.035   4.341
16823TIP3    H150354   6.411   7.986   4.292
16823TIP3    H250355   6.464   8.125   4.314
16824TIP3   OH250356   6.710   8.803   5.426
16824TIP3    H150357   6.620   8.835   5.415
16824TIP3    H250358   6.743   8.797   5.336
16825TIP3   OH250359   6.170   8.849   4.317
16825TIP3    H150360   6.143   8.795   4.392
16825TIP3    H250361   6.191   8.785   4.249
16826TIP3   OH250362   6.170   8.456   5.129
16826TIP3    H150363   6.075   8.446   5.126
16826TIP3    H250364   6.203   8.386   5.072
16827TIP3   OH250365   5.315   8.713   4.889
16827TIP3    H150366   5.309   8.789   4.831
16827TIP3    H250367   5.230   8.711   4.933
16828TIP3   OH250368   4.876   7.992   4.608
16828TIP3    H150369   4.916   8.077   4.629
16828TIP3    H250370   4.793   7.993   4.656
16829TIP3   OH250371   5.388   8.471   4.780
16829TIP3    H150372   5.375   8.560   4.812
16829TIP3    H250373   5.368   8.416   4.855
16830TIP3   OH250374   5.596   9.041   5.343
16830TIP3    H150375   5.628   9.115   5.292
16830TIP3    H250376   5.674   9.010   5.391
16831TIP3   OH250377   5.225   8.932   4.739
16831TIP3    H150378   5.139   8.937   4.780
16831TIP3    H250379   5.260   9.021   4.745
16832TIP3   OH250380   5.953   8.701   5.303
16832TIP3    H150381   5.939   8.698   5.398
16832TIP3    H250382   6.028   8.644   5.287
16833TIP3   OH250383   5.931   8.573   4.200
16833TIP3    H150384   5.978   8.537   4.275
16833TIP3    H250385   5.841   8.541   4.210
16834TIP3   OH250386   6.196   9.205   5.369
16834TIP3    H150387   6.131   9.136   5.383
16834TIP3    H250388   6.163   9.253   5.293
16835TIP3   OH250389   6.249   9.039   3.990
16835TIP3    H150390   6.266   9.100   3.919
16835TIP3    H250391   6.177   9.080   4.039
16836TIP3   OH250392   5.280   7.825   5.856
16836TIP3    H150393   5.185   7.833   5.862
16836TIP3    H250394   5.304   7.772   5.932
16837TIP3   OH250395   6.099   8.445   4.382
16837TIP3    H150396   6.119   8.462   4.474
16837TIP3    H250397   6.182   8.457   4.337
16838TIP3   OH250398   5.023   8.924   5.504
16838TIP3    H150399   5.077   8.870   5.562
16838TIP3    H250400   5.035   9.013   5.536
16839TIP3   OH250401   5.291   8.545   4.206
16839TIP3    H150402   5.299   8.454   4.178
16839TIP3    H250403   5.279   8.539   4.301
16840TIP3   OH250404   5.233   8.555   4.480
16840TIP3    H150405   5.287   8.529   4.554
16840TIP3    H250406   5.232   8.651   4.483
16841TIP3   OH250407   4.966   8.249   4.679
16841TIP3    H150408   4.902   8.297   4.731
16841TIP3    H250409   4.984   8.307   4.605
16842TIP3   OH250410   6.148   7.875   5.579
16842TIP3    H150411   6.199   7.915   5.650
16842TIP3    H250412   6.122   7.790   5.613
16843TIP3   OH250413   6.007   7.629   4.729
16843TIP3    H150414   5.992   7.666   4.642
16843TIP3    H250415   6.052   7.698   4.777
16844TIP3   OH250416   5.501   8.738   4.408
16844TIP3    H150417   5.418   8.763   4.449
16844TIP3    H250418   5.531   8.817   4.363
16845TIP3   OH250419   5.654   7.792   4.826
16845TIP3    H150420   5.711   7.864   4.799
16845TIP3    H250421   5.677   7.775   4.917
16846TIP3   OH250422   5.972   8.111   5.614
16846TIP3    H150423   5.993   8.157   5.696
16846TIP3    H250424   6.024   8.030   5.619
16847TIP3   OH250425   5.826   7.526   4.922
16847TIP3    H150426   5.804   7.603   4.973
16847TIP3    H250427   5.886   7.557   4.854
16848TIP3   OH250428   5.253   8.828   4.489
16848TIP3    H150429   5.236   8.902   4.430
16848TIP3    H250430   5.243   8.865   4.577
16849TIP3   OH250431   6.592   7.989   5.548
16849TIP3    H150432   6.508   8.020   5.582
16849TIP3    H250433   6.570   7.913   5.495
16850TIP3   OH250434   6.244   8.214   4.989
16850TIP3    H150435   6.167   8.157   4.994
16850TIP3    H250436   6.311   8.169   5.040
16851TIP3   OH250437   4.986   8.427   4.463
16851TIP3    H150438   5.058   8.489   4.474
16851TIP3    H250439   5.020   8.364   4.399
16852TIP3   OH250440   4.905   7.714   4.588
16852TIP3    H150441   4.917   7.808   4.605
16852TIP3    H250442   4.830   7.710   4.530
16853TIP3   OH250443   6.223   9.203   4.926
16853TIP3    H150444   6.178   9.252   4.857
16853TIP3    H250445   6.316   9.216   4.908
16854TIP3   OH250446   5.298   7.436   5.467
16854TIP3    H150447   5.267   7.402   5.383
16854TIP3    H250448   5.290   7.363   5.528
16855TIP3   OH250449   4.825   8.683   4.874
16855TIP3    H150450   4.786   8.720   4.953
16855TIP3    H250451   4.779   8.726   4.802
16856TIP3   OH250452   5.002   9.223   5.929
16856TIP3    H150453   5.085   9.224   5.977
16856TIP3    H250454   4.976   9.130   5.929
16857TIP3   OH250455   5.485   9.170   5.998
16857TIP3    H150456   5.563   9.222   5.980
16857TIP3    H250457   5.478   9.110   5.923
16858TIP3   OH250458   5.452   8.740   4.094
16858TIP3    H150459   5.403   8.672   4.141
16858TIP3    H250460   5.526   8.693   4.055
16859TIP3   OH250461   6.118   9.082   5.717
16859TIP3    H150462   6.120   9.006   5.776
16859TIP3    H250463   6.192   9.136   5.745
16860TIP3   OH250464   5.896   8.783   4.022
16860TIP3    H150465   5.925   8.719   4.088
16860TIP3    H250466   5.959   8.774   3.951
16861TIP3   OH250467   5.122   8.635   6.113
16861TIP3    H150468   5.140   8.541   6.123
16861TIP3    H250469   5.036   8.638   6.070
16862TIP3   OH250470   5.115   8.235   4.316
16862TIP3    H150471   5.166   8.212   4.393
16862TIP3    H250472   5.180   8.252   4.248
16863TIP3   OH250473   5.743   8.706   5.894
16863TIP3    H150474   5.700   8.731   5.813
16863TIP3    H250475   5.775   8.617   5.878
16864TIP3   OH250476   5.662   8.462   4.133
16864TIP3    H150477   5.643   8.472   4.226
16864TIP3    H250478   5.647   8.369   4.116
16865TIP3   OH250479   6.225   8.765   5.521
16865TIP3    H150480   6.300   8.792   5.468
16865TIP3    H250481   6.156   8.828   5.498
16866TIP3   OH250482   5.238   8.381   6.123
16866TIP3    H150483   5.315   8.359   6.070
16866TIP3    H250484   5.273   8.399   6.210
16867TIP3   OH250485   5.284   8.173   4.534
16867TIP3    H150486   5.261   8.145   4.623
16867TIP3    H250487   5.323   8.095   4.493
16868TIP3   OH250488   5.603   8.266   5.779
16868TIP3    H150489   5.516   8.305   5.788
16868TIP3    H250490   5.632   8.293   5.692
16869TIP3   OH250491   5.401   7.978   4.380
16869TIP3    H150492   5.370   7.984   4.290
16869TIP3    H250493   5.496   7.994   4.374
16870TIP3   OH250494   6.108   8.620   5.865
16870TIP3    H150495   6.179   8.586   5.810
16870TIP3    H250496   6.110   8.565   5.943
16871TIP3   OH250497   6.209   8.280   4.055
16871TIP3    H150498   6.197   8.243   3.967
16871TIP3    H250499   6.185   8.372   4.046
16872TIP3   OH250500   5.704   8.034   5.889
16872TIP3    H150501   5.705   7.963   5.825
16872TIP3    H250502   5.669   8.109   5.841
16873TIP3   OH250503   5.709   7.835   5.687
16873TIP3    H150504   5.736   7.869   5.602
16873TIP3    H250505   5.620   7.804   5.674
16874TIP3   OH250506   5.716   8.354   5.547
16874TIP3    H150507   5.806   8.381   5.527
16874TIP3    H250508   5.661   8.417   5.501
16875TIP3   OH250509   6.301   8.304   5.931
16875TIP3    H150510   6.329   8.246   6.001
16875TIP3    H250511   6.379   8.317   5.878
16876TIP3   OH250512   6.332   8.587   5.693
16876TIP3    H150513   6.285   8.651   5.640
16876TIP3    H250514   6.422   8.589   5.658
16877TIP3   OH250515   5.593   8.111   6.135
16877TIP3    H150516   5.524   8.049   6.156
16877TIP3    H250517   5.621   8.087   6.047
16878TIP3   OH250518   5.833   7.603   5.790
16878TIP3    H150519   5.792   7.683   5.759
16878TIP3    H250520   5.766   7.535   5.779
16879TIP3   OH250521   5.964   8.059   5.985
16879TIP3    H150522   5.959   8.042   6.079
16879TIP3    H250523   5.876   8.042   5.953
16880TIP3   OH250524   6.202   8.002   5.832
16880TIP3    H150525   6.128   8.004   5.893
16880TIP3    H250526   6.277   7.980   5.887
16881TIP3   OH250527   6.443   7.972   5.975
16881TIP3    H150528   6.454   7.881   6.002
16881TIP3    H250529   6.425   8.019   6.056
16882TIP3   OH250530   5.422   7.894   6.197
16882TIP3    H150531   5.429   7.807   6.159
16882TIP3    H250532   5.461   7.886   6.284
16883TIP3   OH250533   5.905   7.582   6.055
16883TIP3    H150534   5.975   7.517   6.052
16883TIP3    H250535   5.875   7.590   5.964
16884TIP3   OH250536   6.015   7.797   6.187
16884TIP3    H150537   5.983   7.722   6.138
16884TIP3    H250538   5.939   7.854   6.197
16885TIP3   OH250539   5.260   9.045   4.314
16885TIP3    H150540   5.347   9.018   4.284
16885TIP3    H250541   5.218   9.082   4.236
16886TIP3   OH250542   4.711   8.434   4.470
16886TIP3    H150543   4.806   8.443   4.475
16886TIP3    H250544   4.698   8.346   4.435
16887TIP3   OH250545   4.621   8.981   4.947
16887TIP3    H150546   4.553   8.929   4.903
16887TIP3    H250547   4.664   8.919   5.006
16888TIP3   OH250548   4.769   8.821   5.116
16888TIP3    H150549   4.763   8.756   5.186
16888TIP3    H250550   4.819   8.893   5.155
16889TIP3   OH250551   9.757   0.021   4.911
16889TIP3    H150552   9.772   0.049   5.001
16889TIP3    H250553   9.800   0.088   4.857
16890TIP3   OH250554   9.773   0.055   5.190
16890TIP3    H150555   9.726  -0.028   5.194
16890TIP3    H250556   9.850   0.042   5.246
16891TIP3   OH250557   6.373   8.510   4.336
16891TIP3    H150558   6.440   8.577   4.323
16891TIP3    H250559   6.355   8.512   4.430
16892TIP3   OH250560   6.554   8.331   4.637
16892TIP3    H150561   6.502   8.263   4.678
16892TIP3    H250562   6.493   8.404   4.623
16893TIP3   OH250563   6.566   8.757   4.990
16893TIP3    H150564   6.554   8.697   4.916
16893TIP3    H250565   6.561   8.845   4.951
16894TIP3   OH250566   6.381   9.056   5.224
16894TIP3    H150567   6.313   9.096   5.279
16894TIP3    H250568   6.333   9.013   5.153
16895TIP3   OH250569   6.429   8.273   4.218
16895TIP3    H150570   6.353   8.268   4.161
16895TIP3    H250571   6.416   8.354   4.268
16896TIP3   OH250572   6.319   7.917   4.149
16896TIP3    H150573   6.253   7.957   4.092
16896TIP3    H250574   6.298   7.824   4.148
16897TIP3   OH250575   6.325   8.190   4.721
16897TIP3    H150576   6.301   8.199   4.813
16897TIP3    H250577   6.298   8.274   4.682
16898TIP3   OH250578   4.936   8.274   5.496
16898TIP3    H150579   4.927   8.245   5.405
16898TIP3    H250580   5.030   8.270   5.514
16899TIP3   OH250581   6.588   8.612   5.590
16899TIP3    H150582   6.650   8.540   5.581
16899TIP3    H250583   6.613   8.674   5.522
16900TIP3   OH250584   6.772   8.397   5.634
16900TIP3    H150585   6.685   8.361   5.654
16900TIP3    H250586   6.816   8.403   5.719
16901TIP3   OH250587   6.234   7.649   4.128
16901TIP3    H150588   6.297   7.627   4.197
16901TIP3    H250589   6.152   7.610   4.158
16902TIP3   OH250590   6.274   7.927   4.620
16902TIP3    H150591   6.349   7.868   4.610
16902TIP3    H250592   6.312   8.012   4.639
16903TIP3   OH250593   6.462   8.094   5.121
16903TIP3    H150594   6.542   8.120   5.076
16903TIP3    H250595   6.461   8.147   5.201
16904TIP3   OH250596   6.485   8.276   5.328
16904TIP3    H150597   6.415   8.303   5.388
16904TIP3    H250598   6.519   8.358   5.292
16905TIP3   OH250599   5.157   7.953   6.137
16905TIP3    H150600   5.251   7.950   6.155
16905TIP3    H250601   5.123   7.871   6.171
16906TIP3   OH250602   7.000   7.845   5.892
16906TIP3    H150603   7.064   7.786   5.852
16906TIP3    H250604   6.961   7.891   5.818
16907TIP3   OH250605   6.433   7.678   4.646
16907TIP3    H150606   6.474   7.668   4.732
16907TIP3    H250607   6.364   7.613   4.645
16908TIP3   OH250608   5.143   7.666   5.459
16908TIP3    H150609   5.194   7.587   5.476
16908TIP3    H250610   5.207   7.736   5.455
16909TIP3   OH250611   4.915   7.918   5.540
16909TIP3    H150612   4.961   7.909   5.457
16909TIP3    H250613   4.941   8.003   5.573
16910TIP3   OH250614   6.851   7.979   5.699
16910TIP3    H150615   6.784   8.013   5.758
16910TIP3    H250616   6.806   7.911   5.649
16911TIP3   OH250617   6.461   7.602   4.284
16911TIP3    H150618   6.511   7.538   4.234
16911TIP3    H250619   6.522   7.676   4.295
16912TIP3   OH250620   4.896   7.440   5.046
16912TIP3    H150621   4.811   7.431   5.090
16912TIP3    H250622   4.878   7.497   4.971
16913TIP3   OH250623   6.056   9.158   4.562
16913TIP3    H150624   6.113   9.153   4.486
16913TIP3    H250625   6.094   9.227   4.617
16914TIP3   OH250626   5.123   7.504   5.872
16914TIP3    H150627   5.069   7.489   5.950
16914TIP3    H250628   5.065   7.552   5.812
16915TIP3   OH250629   5.169   8.947   5.942
16915TIP3    H150630   5.075   8.935   5.928
16915TIP3    H250631   5.180   8.939   6.037
16916TIP3   OH250632   5.380   8.995   5.506
16916TIP3    H150633   5.321   9.060   5.469
16916TIP3    H250634   5.462   9.007   5.458
16917TIP3   OH250635   9.038  -0.012   5.634
16917TIP3    H150636   9.078  -0.024   5.721
16917TIP3    H250637   9.099   0.044   5.587
16918TIP3   OH250638   9.227   0.144   5.506
16918TIP3    H150639   9.290   0.090   5.460
16918TIP3    H250640   9.280   0.201   5.561
16919TIP3   OH250641   6.759   7.706   5.581
16919TIP3    H150642   6.668   7.679   5.582
16919TIP3    H250643   6.808   7.625   5.594
16920TIP3   OH250644   5.026   9.208   5.539
16920TIP3    H150645   4.935   9.227   5.519
16920TIP3    H250646   5.052   9.275   5.602
16921TIP3   OH250647   5.255   9.202   5.386
16921TIP3    H150648   5.171   9.211   5.431
16921TIP3    H250649   5.237   9.229   5.295
16922TIP3   OH250650   8.938   0.007   5.174
16922TIP3    H150651   8.874   0.016   5.103
16922TIP3    H250652   8.946   0.095   5.210
16923TIP3   OH250653   5.931   9.179   5.232
16923TIP3    H150654   5.840   9.199   5.210
16923TIP3    H250655   5.982   9.246   5.187
16924TIP3   OH250656   9.400   0.111   5.138
16924TIP3    H150657   9.396   0.198   5.099
16924TIP3    H250658   9.427   0.054   5.066
16925TIP3   OH250659   4.937   9.010   5.253
16925TIP3    H150660   4.962   8.987   5.342
16925TIP3    H250661   5.010   8.981   5.199
16926TIP3   OH250662   5.144   8.901   5.116
16926TIP3    H150663   5.155   8.817   5.160
16926TIP3    H250664   5.230   8.943   5.122
16927TIP3   OH250665   5.410   8.983   5.144
16927TIP3    H150666   5.431   8.890   5.131
16927TIP3    H250667   5.465   9.010   5.217
16928TIP3   OH250668   5.965   7.640   5.233
16928TIP3    H150669   5.920   7.567   5.277
16928TIP3    H250670   6.035   7.598   5.183
16929TIP3   OH250671   6.469   7.555   5.110
16929TIP3    H150672   6.502   7.608   5.037
16929TIP3    H250673   6.376   7.576   5.115
16930TIP3   OH250674   6.584   7.636   4.874
16930TIP3    H150675   6.654   7.575   4.852
16930TIP3    H250676   6.623   7.723   4.860
16931TIP3   OH250677   5.210   7.333   5.224
16931TIP3    H150678   5.120   7.303   5.238
16931TIP3    H250679   5.262   7.253   5.219
16932TIP3   OH250680   5.004   7.239   4.889
16932TIP3    H150681   4.940   7.254   4.819
16932TIP3    H250682   4.981   7.303   4.956
16933TIP3   OH250683   5.636   7.418   5.110
16933TIP3    H150684   5.696   7.447   5.041
16933TIP3    H250685   5.685   7.429   5.191
16934TIP3   OH250686   6.181   7.522   5.104
16934TIP3    H150687   6.188   7.484   5.016
16934TIP3    H250688   6.190   7.448   5.163
16935TIP3   OH250689   6.234   7.476   4.659
16935TIP3    H150690   6.154   7.522   4.683
16935TIP3    H250691   6.226   7.390   4.702
16936TIP3   OH250692   4.703   8.798   4.660
16936TIP3    H150693   4.618   8.764   4.631
16936TIP3    H250694   4.712   8.882   4.616
16937TIP3   OH250695   5.269   7.402   4.646
16937TIP3    H150696   5.257   7.319   4.600
16937TIP3    H250697   5.241   7.384   4.736
16938TIP3   OH250698   5.509   7.600   4.675
16938TIP3    H150699   5.559   7.523   4.702
16938TIP3    H250700   5.542   7.670   4.732
16939TIP3   OH250701   5.509   8.966   4.235
16939TIP3    H150702   5.592   8.993   4.196
16939TIP3    H250703   5.481   8.892   4.181
16940TIP3   OH250704   6.206   9.119   4.330
16940TIP3    H150705   6.199   9.023   4.328
16940TIP3    H250706   6.162   9.148   4.251
16941TIP3   OH250707   5.439   7.626   6.107
16941TIP3    H150708   5.404   7.561   6.168
16941TIP3    H250709   5.531   7.633   6.129
16942TIP3   OH250710   5.687   7.628   6.228
16942TIP3    H150711   5.766   7.612   6.177
16942TIP3    H250712   5.687   7.560   6.295
16943TIP3   OH250713   4.808   8.805   4.282
16943TIP3    H150714   4.805   8.825   4.376
16943TIP3    H250715   4.891   8.759   4.270
16944TIP3   OH250716   6.482   7.709   6.055
16944TIP3    H150717   6.476   7.684   6.147
16944TIP3    H250718   6.576   7.708   6.036
16945TIP3   OH250719   9.675   0.027   5.542
16945TIP3    H150720   9.608  -0.009   5.485
16945TIP3    H250721   9.667   0.122   5.532
16946TIP3   OH250722   7.711   8.634   4.270
16946TIP3    H150723   7.674   8.717   4.302
16946TIP3    H250724   7.636   8.587   4.233
16947TIP3   OH250725   7.678   8.611   4.669
16947TIP3    H150726   7.725   8.600   4.751
16947TIP3    H250727   7.638   8.526   4.652
16948TIP3   OH250728   7.015   8.575   5.041
16948TIP3    H150729   7.071   8.589   5.117
16948TIP3    H250730   7.077   8.558   4.969
16949TIP3   OH250731   7.954   8.889   4.332
16949TIP3    H150732   7.940   8.830   4.406
16949TIP3    H250733   7.990   8.968   4.371
16950TIP3   OH250734   7.012   8.932   4.748
16950TIP3    H150735   6.987   8.840   4.741
16950TIP3    H250736   7.100   8.936   4.711
16951TIP3   OH250737   6.689   8.126   4.499
16951TIP3    H150738   6.651   8.202   4.543
16951TIP3    H250739   6.616   8.087   4.452
16952TIP3   OH250740   6.793   8.444   4.727
16952TIP3    H150741   6.834   8.362   4.753
16952TIP3    H250742   6.711   8.417   4.684
16953TIP3   OH250743   1.041   0.130   4.333
16953TIP3    H150744   1.085   0.058   4.288
16953TIP3    H250745   0.995   0.088   4.405
16954TIP3   OH250746   7.493   8.827   4.677
16954TIP3    H150747   7.532   8.745   4.649
16954TIP3    H250748   7.567   8.879   4.708
16955TIP3   OH250749   7.906   8.348   4.725
16955TIP3    H150750   7.932   8.261   4.755
16955TIP3    H250751   7.868   8.334   4.639
16956TIP3   OH250752   7.270   8.000   4.694
16956TIP3    H150753   7.247   8.073   4.636
16956TIP3    H250754   7.215   7.928   4.664
16957TIP3   OH250755   7.955   8.103   4.313
16957TIP3    H150756   8.014   8.085   4.386
16957TIP3    H250757   8.013   8.129   4.241
16958TIP3   OH250758   6.897   8.204   4.822
16958TIP3    H150759   6.979   8.183   4.867
16958TIP3    H250760   6.900   8.154   4.741
16959TIP3   OH250761   7.311   8.411   4.623
16959TIP3    H150762   7.405   8.392   4.629
16959TIP3    H250763   7.272   8.330   4.592
16960TIP3   OH250764   8.578   8.355   4.866
16960TIP3    H150765   8.503   8.367   4.809
16960TIP3    H250766   8.613   8.443   4.879
16961TIP3   OH250767   7.263   7.967   5.147
16961TIP3    H150768   7.185   8.003   5.105
16961TIP3    H250769   7.229   7.913   5.218
16962TIP3   OH250770   7.353   8.773   4.908
16962TIP3    H150771   7.288   8.841   4.920
16962TIP3    H250772   7.398   8.797   4.827
16963TIP3   OH250773   8.099   8.097   4.544
16963TIP3    H150774   8.053   8.089   4.627
16963TIP3    H250775   8.161   8.168   4.557
16964TIP3   OH250776   7.136   8.096   4.922
16964TIP3    H150777   7.193   8.165   4.957
16964TIP3    H250778   7.186   8.058   4.850
16965TIP3   OH250779   6.568   8.694   4.256
16965TIP3    H150780   6.528   8.723   4.175
16965TIP3    H250781   6.593   8.774   4.301
16966TIP3   OH250782   8.006   9.144   4.434
16966TIP3    H150783   7.927   9.141   4.489
16966TIP3    H250784   7.990   9.217   4.374
16967TIP3   OH250785   7.603   7.684   4.863
16967TIP3    H150786   7.595   7.593   4.889
16967TIP3    H250787   7.525   7.727   4.899
16968TIP3   OH250788   7.715   9.191   4.185
16968TIP3    H150789   7.750   9.106   4.160
16968TIP3    H250790   7.767   9.254   4.135
16969TIP3   OH250791   7.841   8.967   4.097
16969TIP3    H150792   7.861   8.902   4.030
16969TIP3    H250793   7.884   8.934   4.176
16970TIP3   OH250794   8.288   9.039   4.768
16970TIP3    H150795   8.305   8.963   4.711
16970TIP3    H250796   8.194   9.056   4.757
16971TIP3   OH250797   7.538   8.485   4.114
16971TIP3    H150798   7.454   8.525   4.092
16971TIP3    H250799   7.583   8.477   4.029
16972TIP3   OH250800   7.493   8.292   3.802
16972TIP3    H150801   7.561   8.339   3.852
16972TIP3    H250802   7.541   8.223   3.757
16973TIP3   OH250803   8.354   8.633   4.621
16973TIP3    H150804   8.274   8.685   4.633
16973TIP3    H250805   8.410   8.688   4.566
16974TIP3   OH250806   7.882   8.572   4.068
16974TIP3    H150807   7.829   8.599   4.142
16974TIP3    H250808   7.962   8.536   4.107
16975TIP3   OH250809   8.081   8.582   5.008
16975TIP3    H150810   8.082   8.655   5.069
16975TIP3    H250811   7.999   8.592   4.960
16976TIP3   OH250812   7.111   8.547   4.481
16976TIP3    H150813   7.072   8.484   4.421
16976TIP3    H250814   7.181   8.499   4.525
16977TIP3   OH250815   7.253   8.963   4.611
16977TIP3    H150816   7.229   8.950   4.519
16977TIP3    H250817   7.336   8.916   4.621
16978TIP3   OH250818   7.237   8.522   4.870
16978TIP3    H150819   7.252   8.495   4.779
16978TIP3    H250820   7.278   8.608   4.876
16979TIP3   OH250821   7.809   9.138   4.622
16979TIP3    H150822   7.749   9.212   4.629
16979TIP3    H250823   7.760   9.065   4.659
16980TIP3   OH250824   7.718   8.427   3.902
16980TIP3    H150825   7.778   8.486   3.949
16980TIP3    H250826   7.749   8.428   3.812
16981TIP3   OH250827   7.118   8.584   5.305
16981TIP3    H150828   7.125   8.626   5.391
16981TIP3    H250829   7.039   8.531   5.311
16982TIP3   OH250830   7.140   9.199   5.280
16982TIP3    H150831   7.155   9.190   5.186
16982TIP3    H250832   7.098   9.285   5.290
16983TIP3   OH250833   8.228   7.624   3.959
16983TIP3    H150834   8.194   7.590   4.041
16983TIP3    H250835   8.190   7.712   3.952
16984TIP3   OH250836   6.982   8.390   4.279
16984TIP3    H150837   6.905   8.439   4.251
16984TIP3    H250838   6.947   8.305   4.307
16985TIP3   OH250839   8.039   9.029   3.513
16985TIP3    H150840   8.033   9.122   3.491
16985TIP3    H250841   8.127   9.003   3.483
16986TIP3   OH250842   6.784   8.761   5.167
16986TIP3    H150843   6.705   8.763   5.113
16986TIP3    H250844   6.851   8.722   5.110
16987TIP3   OH250845   6.597   9.008   4.868
16987TIP3    H150846   6.685   9.036   4.895
16987TIP3    H250847   6.542   9.084   4.885
16988TIP3   OH250848   1.953   0.255   4.968
16988TIP3    H150849   1.910   0.170   4.957
16988TIP3    H250850   1.938   0.276   5.060
16989TIP3   OH250851   0.991  -0.012   5.040
16989TIP3    H150852   0.993   0.080   5.067
16989TIP3    H250853   0.967  -0.060   5.119
16990TIP3   OH250854   0.756   0.137   3.949
16990TIP3    H150855   0.803   0.138   3.865
16990TIP3    H250856   0.772   0.224   3.986
16991TIP3   OH250857   6.785   9.178   4.364
16991TIP3    H150858   6.836   9.164   4.443
16991TIP3    H250859   6.741   9.094   4.348
16992TIP3   OH250860   7.557   9.254   3.623
16992TIP3    H150861   7.608   9.182   3.586
16992TIP3    H250862   7.578   9.253   3.716
16993TIP3   OH250863   1.039   0.029   3.904
16993TIP3    H150864   0.970  -0.023   3.946
16993TIP3    H250865   1.112   0.026   3.966
16994TIP3   OH250866   8.330   8.513   5.214
16994TIP3    H150867   8.263   8.457   5.175
16994TIP3    H250868   8.373   8.458   5.279
16995TIP3   OH250869   7.365   7.774   4.976
16995TIP3    H150870   7.280   7.741   4.949
16995TIP3    H250871   7.345   7.855   5.024
16996TIP3   OH250872   7.895   7.906   5.191
16996TIP3    H150873   7.966   7.883   5.252
16996TIP3    H250874   7.815   7.887   5.240
16997TIP3   OH250875   8.139   8.335   5.110
16997TIP3    H150876   8.084   8.319   5.188
16997TIP3    H250877   8.098   8.411   5.068
16998TIP3   OH250878   7.797   8.396   3.641
16998TIP3    H150879   7.751   8.403   3.557
16998TIP3    H250880   7.880   8.441   3.627
16999TIP3   OH250881   7.475   7.847   3.946
16999TIP3    H150882   7.453   7.853   4.039
16999TIP3    H250883   7.453   7.758   3.921
17000TIP3   OH250884   7.303   8.298   5.011
17000TIP3    H150885   7.314   8.337   5.098
17000TIP3    H250886   7.274   8.371   4.956
17001TIP3   OH250887   7.173   8.195   4.524
17001TIP3    H150888   7.085   8.169   4.552
17001TIP3    H250889   7.181   8.160   4.435
17002TIP3   OH250890   7.649   8.274   4.252
17002TIP3    H150891   7.606   8.349   4.212
17002TIP3    H250892   7.707   8.240   4.184
17003TIP3   OH250893   7.853   8.535   5.329
17003TIP3    H150894   7.820   8.466   5.386
17003TIP3    H250895   7.944   8.548   5.358
17004TIP3   OH250896   7.817   8.287   4.473
17004TIP3    H150897   7.749   8.308   4.409
17004TIP3    H250898   7.863   8.212   4.435
17005TIP3   OH250899   7.152   7.802   3.929
17005TIP3    H150900   7.153   7.804   4.024
17005TIP3    H250901   7.079   7.859   3.904
17006TIP3   OH250902   6.722   7.854   4.796
17006TIP3    H150903   6.795   7.885   4.850
17006TIP3    H250904   6.762   7.831   4.712
17007TIP3   OH250905   6.639   7.819   4.298
17007TIP3    H150906   6.686   7.850   4.221
17007TIP3    H250907   6.586   7.894   4.326
17008TIP3   OH250908   7.825   8.543   4.894
17008TIP3    H150909   7.862   8.480   4.832
17008TIP3    H250910   7.798   8.490   4.969
17009TIP3   OH250911   7.535   7.987   4.577
17009TIP3    H150912   7.458   7.987   4.633
17009TIP3    H250913   7.608   7.971   4.637
17010TIP3   OH250914   6.940   8.066   4.589
17010TIP3    H150915   6.854   8.073   4.549
17010TIP3    H250916   6.968   7.976   4.573
17011TIP3   OH250917   7.185   8.070   4.279
17011TIP3    H150918   7.280   8.081   4.271
17011TIP3    H250919   7.150   8.090   4.192
17012TIP3   OH250920   7.947   8.082   4.779
17012TIP3    H150921   7.939   8.095   4.874
17012TIP3    H250922   7.881   8.017   4.758
17013TIP3   OH250923   7.075   8.098   4.029
17013TIP3    H150924   7.007   8.057   3.975
17013TIP3    H250925   7.129   8.147   3.967
17014TIP3   OH250926   1.771   0.541   5.031
17014TIP3    H150927   1.777   0.584   4.946
17014TIP3    H250928   1.840   0.582   5.084
17015TIP3   OH250929   7.582   8.348   4.666
17015TIP3    H150930   7.645   8.294   4.617
17015TIP3    H250931   7.581   8.310   4.754
17016TIP3   OH250932   7.083   7.820   4.579
17016TIP3    H150933   7.053   7.746   4.632
17016TIP3    H250934   7.115   7.780   4.498
17017TIP3   OH250935   7.567   8.259   4.930
17017TIP3    H150936   7.478   8.276   4.961
17017TIP3    H250937   7.623   8.303   4.995
17018TIP3   OH250938   7.301   8.607   4.052
17018TIP3    H150939   7.226   8.553   4.028
17018TIP3    H250940   7.276   8.648   4.135
17019TIP3   OH250941   8.156   8.822   4.630
17019TIP3    H150942   8.177   8.881   4.557
17019TIP3    H250943   8.068   8.789   4.609
17020TIP3   OH250944   7.736   7.941   3.952
17020TIP3    H150945   7.641   7.926   3.948
17020TIP3    H250946   7.744   8.035   3.970
17021TIP3   OH250947   7.667   8.942   5.185
17021TIP3    H150948   7.736   8.905   5.241
17021TIP3    H250949   7.715   8.995   5.121
17022TIP3   OH250950   7.811   8.197   4.034
17022TIP3    H150951   7.906   8.196   4.045
17022TIP3    H250952   7.793   8.276   3.983
17023TIP3   OH250953   6.973   8.662   4.696
17023TIP3    H150954   7.020   8.631   4.619
17023TIP3    H250955   6.905   8.596   4.712
17024TIP3   OH250956   7.399   8.806   3.884
17024TIP3    H150957   7.366   8.886   3.924
17024TIP3    H250958   7.371   8.736   3.944
17025TIP3   OH250959   6.864   8.468   5.369
17025TIP3    H150960   6.857   8.555   5.409
17025TIP3    H250961   6.793   8.466   5.305
17026TIP3   OH250962   7.609   8.670   5.354
17026TIP3    H150963   7.571   8.666   5.267
17026TIP3    H250964   7.697   8.635   5.344
17027TIP3   OH250965   7.763   9.106   4.984
17027TIP3    H150966   7.673   9.137   4.988
17027TIP3    H250967   7.816   9.184   4.998
17028TIP3   OH250968   8.228   8.285   3.847
17028TIP3    H150969   8.170   8.240   3.785
17028TIP3    H250970   8.234   8.374   3.812
17029TIP3   OH250971   8.530   9.088   4.946
17029TIP3    H150972   8.435   9.095   4.939
17029TIP3    H250973   8.563   9.154   4.885
17030TIP3   OH250974   7.961   9.098   3.773
17030TIP3    H150975   7.936   9.024   3.829
17030TIP3    H250976   7.983   9.058   3.689
17031TIP3   OH250977   7.918   8.709   4.546
17031TIP3    H150978   7.830   8.681   4.573
17031TIP3    H250979   7.959   8.629   4.514
17032TIP3   OH250980   7.148   8.974   4.352
17032TIP3    H150981   7.180   9.004   4.267
17032TIP3    H250982   7.056   9.001   4.354
17033TIP3   OH250983   6.669   8.261   4.089
17033TIP3    H150984   6.712   8.343   4.109
17033TIP3    H250985   6.587   8.264   4.139
17034TIP3   OH250986   7.200   8.712   4.278
17034TIP3    H150987   7.188   8.803   4.305
17034TIP3    H250988   7.168   8.661   4.353
17035TIP3   OH250989   0.821   0.031   4.828
17035TIP3    H150990   0.861   0.094   4.769
17035TIP3    H250991   0.889   0.012   4.893
17036TIP3   OH250992   7.729   8.924   4.777
17036TIP3    H150993   7.746   8.976   4.856
17036TIP3    H250994   7.792   8.852   4.782
17037TIP3   OH250995   7.728   8.838   3.689
17037TIP3    H150996   7.779   8.821   3.769
17037TIP3    H250997   7.638   8.813   3.712
17038TIP3   OH250998   1.523   0.114   4.867
17038TIP3    H150999   1.448   0.110   4.926
17038TIP3    H251000   1.535   0.207   4.849
17039TIP3   OH251001   1.491   0.065   3.471
17039TIP3    H151002   1.491   0.105   3.383
17039TIP3    H251003   1.422   0.112   3.518
17040TIP3   OH251004   7.906   8.785   3.895
17040TIP3    H151005   7.892   8.710   3.953
17040TIP3    H251006   7.998   8.781   3.872
17041TIP3   OH251007   6.814   9.198   4.964
17041TIP3    H151008   6.898   9.154   4.979
17041TIP3    H251009   6.822   9.282   5.008
17042TIP3   OH251010   7.080   8.805   3.700
17042TIP3    H151011   7.096   8.715   3.672
17042TIP3    H251012   7.075   8.800   3.795
17043TIP3   OH251013   7.052   8.798   3.975
17043TIP3    H151014   7.087   8.739   4.042
17043TIP3    H251015   7.095   8.882   3.991
17044TIP3   OH251016   6.760   8.514   4.167
17044TIP3    H151017   6.695   8.560   4.219
17044TIP3    H251018   6.780   8.573   4.095
17045TIP3   OH251019   7.924   8.140   5.049
17045TIP3    H151020   8.008   8.173   5.081
17045TIP3    H251021   7.908   8.060   5.100
17046TIP3   OH251022   7.782   7.902   4.228
17046TIP3    H151023   7.767   7.917   4.134
17046TIP3    H251024   7.833   7.978   4.256
17047TIP3   OH251025   7.464   8.081   4.325
17047TIP3    H151026   7.526   8.150   4.300
17047TIP3    H251027   7.487   8.059   4.415
17048TIP3   OH251028   7.765   8.372   5.100
17048TIP3    H151029   7.794   8.412   5.182
17048TIP3    H251030   7.814   8.290   5.095
17049TIP3   OH251031   7.623   7.775   4.411
17049TIP3    H151032   7.599   7.849   4.466
17049TIP3    H251033   7.687   7.810   4.349
17050TIP3   OH251034   7.145   7.799   4.208
17050TIP3    H151035   7.133   7.888   4.242
17050TIP3    H251036   7.240   7.784   4.215
17051TIP3   OH251037   8.400   8.249   5.076
17051TIP3    H151038   8.306   8.266   5.078
17051TIP3    H251039   8.430   8.285   4.993
17052TIP3   OH251040   8.043   8.465   4.470
17052TIP3    H151041   7.969   8.406   4.483
17052TIP3    H251042   8.115   8.423   4.516
17053TIP3   OH251043   6.790   8.693   3.954
17053TIP3    H151044   6.862   8.755   3.967
17053TIP3    H251045   6.822   8.633   3.888
17054TIP3   OH251046   6.679   7.980   4.071
17054TIP3    H151047   6.701   8.072   4.085
17054TIP3    H251048   6.583   7.979   4.067
17055TIP3   OH251049   1.474   0.161   4.314
17055TIP3    H151050   1.432   0.229   4.262
17055TIP3    H251051   1.568   0.174   4.300
17056TIP3   OH251052   7.099   7.694   4.960
17056TIP3    H151053   7.067   7.658   4.877
17056TIP3    H251054   7.091   7.621   5.022
17057TIP3   OH251055   6.613   8.955   4.344
17057TIP3    H151056   6.575   8.993   4.423
17057TIP3    H251057   6.567   8.998   4.272
17058TIP3   OH251058   0.281   0.257   5.448
17058TIP3    H151059   0.364   0.291   5.482
17058TIP3    H251060   0.307   0.182   5.394
17059TIP3   OH251061   0.738   0.162   5.472
17059TIP3    H151062   0.815   0.146   5.527
17059TIP3    H251063   0.773   0.168   5.383
17060TIP3   OH251064   7.244   8.994   3.584
17060TIP3    H151065   7.190   8.932   3.633
17060TIP3    H251066   7.319   8.943   3.554
17061TIP3   OH251067   7.834   9.241   5.280
17061TIP3    H151068   7.809   9.171   5.340
17061TIP3    H251069   7.924   9.221   5.257
17062TIP3   OH251070   7.684   9.042   3.507
17062TIP3    H151071   7.716   8.976   3.568
17062TIP3    H251072   7.740   9.032   3.430
17063TIP3   OH251073   6.887   8.815   5.637
17063TIP3    H151074   6.961   8.767   5.601
17063TIP3    H251075   6.830   8.832   5.562
17064TIP3   OH251076   6.910   8.500   3.799
17064TIP3    H151077   6.958   8.477   3.879
17064TIP3    H251078   6.978   8.518   3.734
17065TIP3   OH251079   7.463   8.912   5.362
17065TIP3    H151080   7.521   8.944   5.294
17065TIP3    H251081   7.498   8.827   5.387
17066TIP3   OH251082   7.442   8.733   3.624
17066TIP3    H151083   7.418   8.752   3.714
17066TIP3    H251084   7.433   8.638   3.615
17067TIP3   OH251085   7.964   8.918   4.994
17067TIP3    H151086   8.014   8.951   4.920
17067TIP3    H251087   7.894   8.983   5.007
17068TIP3   OH251088   7.119   8.632   5.587
17068TIP3    H151089   7.181   8.559   5.589
17068TIP3    H251090   7.111   8.659   5.678
17069TIP3   OH251091   7.080   8.442   4.017
17069TIP3    H151092   7.055   8.416   4.105
17069TIP3    H251093   7.126   8.367   3.981
17070TIP3   OH251094   7.352   8.462   5.225
17070TIP3    H151095   7.275   8.511   5.255
17070TIP3    H251096   7.408   8.528   5.184
17071TIP3   OH251097   7.224   8.258   3.863
17071TIP3    H151098   7.197   8.272   3.772
17071TIP3    H251099   7.319   8.265   3.861
17072TIP3   OH251100   7.874   8.850   5.356
17072TIP3    H151101   7.947   8.821   5.301
17072TIP3    H251102   7.879   8.796   5.434
17073TIP3   OH251103   8.010   8.538   3.538
17073TIP3    H151104   8.000   8.499   3.452
17073TIP3    H251105   7.983   8.629   3.527
17074TIP3   OH251106   7.496   8.287   5.379
17074TIP3    H151107   7.504   8.207   5.326
17074TIP3    H251108   7.449   8.349   5.322
17075TIP3   OH251109   7.507   8.084   5.182
17075TIP3    H151110   7.533   8.108   5.093
17075TIP3    H251111   7.418   8.050   5.172
17076TIP3   OH251112   7.515   8.641   5.093
17076TIP3    H151113   7.596   8.629   5.042
17076TIP3    H251114   7.459   8.694   5.037
17077TIP3   OH251115   8.114   8.558   5.452
17077TIP3    H151116   8.144   8.485   5.506
17077TIP3    H251117   8.187   8.576   5.393
17078TIP3   OH251118   8.104   8.812   5.197
17078TIP3    H151119   8.043   8.849   5.133
17078TIP3    H251120   8.191   8.835   5.164
17079TIP3   OH251121   7.368   8.381   5.614
17079TIP3    H151122   7.313   8.306   5.637
17079TIP3    H251123   7.408   8.357   5.530
17080TIP3   OH251124   7.632   7.845   5.266
17080TIP3    H151125   7.588   7.927   5.244
17080TIP3    H251126   7.564   7.779   5.260
17081TIP3   OH251127   7.756   8.325   5.473
17081TIP3    H151128   7.746   8.312   5.568
17081TIP3    H251129   7.668   8.308   5.438
17082TIP3   OH251130   7.995   8.269   5.330
17082TIP3    H151131   7.918   8.270   5.387
17082TIP3    H251132   8.068   8.247   5.389
17083TIP3   OH251133   8.226   8.231   5.482
17083TIP3    H151134   8.244   8.138   5.495
17083TIP3    H251135   8.218   8.267   5.571
17084TIP3   OH251136   7.241   8.140   5.673
17084TIP3    H151137   7.246   8.054   5.633
17084TIP3    H251138   7.278   8.128   5.761
17085TIP3   OH251139   7.726   7.855   5.526
17085TIP3    H151140   7.767   7.771   5.544
17085TIP3    H251141   7.689   7.845   5.438
17086TIP3   OH251142   7.790   8.057   5.695
17086TIP3    H151143   7.771   7.985   5.634
17086TIP3    H251144   7.713   8.114   5.688
17087TIP3   OH251145   0.522   0.039   3.816
17087TIP3    H151146   0.598   0.030   3.758
17087TIP3    H251147   0.453   0.073   3.760
17088TIP3   OH251148   6.514   8.692   3.940
17088TIP3    H151149   6.609   8.703   3.953
17088TIP3    H251150   6.504   8.601   3.912
17089TIP3   OH251151   6.418   9.265   4.423
17089TIP3    H151152   6.350   9.214   4.378
17089TIP3    H251153   6.461   9.201   4.481
17090TIP3   OH251154   6.552   9.089   4.589
17090TIP3    H151155   6.542   9.025   4.659
17090TIP3    H251156   6.606   9.159   4.628
17091TIP3   OH251157   1.752   0.204   4.317
17091TIP3    H151158   1.783   0.221   4.406
17091TIP3    H251159   1.787   0.275   4.264
17092TIP3   OH251160   1.846   0.223   4.582
17092TIP3    H151161   1.801   0.139   4.590
17092TIP3    H251162   1.828   0.268   4.664
17093TIP3   OH251163   1.865   0.079   5.355
17093TIP3    H151164   1.837   0.008   5.298
17093TIP3    H251165   1.911   0.140   5.297
17094TIP3   OH251166   8.174   8.757   3.852
17094TIP3    H151167   8.245   8.815   3.825
17094TIP3    H251168   8.209   8.709   3.926
17095TIP3   OH251169   8.269   8.591   4.042
17095TIP3    H151170   8.207   8.547   4.100
17095TIP3    H251171   8.339   8.621   4.100
17096TIP3   OH251172   8.271   8.985   4.441
17096TIP3    H151173   8.335   8.915   4.427
17096TIP3    H251174   8.284   9.045   4.367
17097TIP3   OH251175   1.661   0.024   4.600
17097TIP3    H151176   1.590   0.082   4.629
17097TIP3    H251177   1.618  -0.039   4.542
17098TIP3   OH251178   8.223   8.525   3.709
17098TIP3    H151179   8.151   8.520   3.647
17098TIP3    H251180   8.206   8.603   3.761
17099TIP3   OH251181   8.069   8.171   3.656
17099TIP3    H151182   8.022   8.199   3.577
17099TIP3    H251183   8.068   8.075   3.650
17100TIP3   OH251184   8.093   8.454   4.200
17100TIP3    H151185   8.102   8.360   4.187
17100TIP3    H251186   8.081   8.465   4.294
17101TIP3   OH251187   6.764   8.476   4.999
17101TIP3    H151188   6.755   8.476   4.904
17101TIP3    H251189   6.853   8.507   5.015
17102TIP3   OH251190   8.559   8.904   5.182
17102TIP3    H151191   8.580   8.811   5.177
17102TIP3    H251192   8.554   8.933   5.091
17103TIP3   OH251193   8.586   8.634   5.215
17103TIP3    H151194   8.503   8.587   5.207
17103TIP3    H251195   8.652   8.572   5.181
17104TIP3   OH251196   8.034   7.897   3.620
17104TIP3    H151197   8.101   7.878   3.686
17104TIP3    H251198   7.954   7.861   3.656
17105TIP3   OH251199   8.106   8.193   4.086
17105TIP3    H151200   8.159   8.114   4.101
17105TIP3    H251201   8.144   8.233   4.008
17106TIP3   OH251202   8.258   8.316   4.583
17106TIP3    H151203   8.346   8.326   4.546
17106TIP3    H251204   8.266   8.348   4.673
17107TIP3   OH251205   8.307   8.448   4.820
17107TIP3    H151206   8.240   8.486   4.877
17107TIP3    H251207   8.328   8.517   4.758
17108TIP3   OH251208   6.986   8.194   5.585
17108TIP3    H151209   7.077   8.189   5.614
17108TIP3    H251210   6.944   8.116   5.620
17109TIP3   OH251211   8.789   8.110   5.380
17109TIP3    H151212   8.852   8.044   5.351
17109TIP3    H251213   8.758   8.150   5.299
17110TIP3   OH251214   8.244   7.958   4.133
17110TIP3    H151215   8.278   7.934   4.219
17110TIP3    H251216   8.168   7.901   4.120
17111TIP3   OH251217   6.930   7.912   4.974
17111TIP3    H151218   6.985   7.834   4.978
17111TIP3    H251219   6.991   7.984   4.957
17112TIP3   OH251220   6.709   8.197   5.038
17112TIP3    H151221   6.762   8.173   4.962
17112TIP3    H251222   6.714   8.293   5.041
17113TIP3   OH251223   8.654   8.204   5.161
17113TIP3    H151224   8.564   8.236   5.155
17113TIP3    H251225   8.649   8.114   5.129
17114TIP3   OH251226   8.258   7.864   3.772
17114TIP3    H151227   8.312   7.787   3.755
17114TIP3    H251228   8.320   7.936   3.781
17115TIP3   OH251229   6.697   7.690   4.532
17115TIP3    H151230   6.611   7.683   4.574
17115TIP3    H251231   6.682   7.745   4.455
17116TIP3   OH251232   1.288   0.139   4.022
17116TIP3    H151233   1.351   0.134   3.950
17116TIP3    H251234   1.315   0.216   4.072
17117TIP3   OH251235   6.909   7.783   5.361
17117TIP3    H151236   6.859   7.760   5.439
17117TIP3    H251237   6.847   7.829   5.305
17118TIP3   OH251238   0.614   0.011   5.011
17118TIP3    H151239   0.566   0.082   4.969
17118TIP3    H251240   0.689  -0.005   4.954
17119TIP3   OH251241   1.021   0.241   5.136
17119TIP3    H151242   1.052   0.226   5.225
17119TIP3    H251243   1.073   0.316   5.105
17120TIP3   OH251244   1.240   0.392   5.068
17120TIP3    H151245   1.276   0.357   4.986
17120TIP3    H251246   1.303   0.364   5.135
17121TIP3   OH251247   8.568   7.949   5.105
17121TIP3    H151248   8.483   7.960   5.063
17121TIP3    H251249   8.601   7.865   5.072
17122TIP3   OH251250   0.279   0.239   5.036
17122TIP3    H151251   0.189   0.254   5.009
17122TIP3    H251252   0.303   0.319   5.084
17123TIP3   OH251253   0.496   0.215   4.870
17123TIP3    H151254   0.412   0.225   4.914
17123TIP3    H251255   0.479   0.239   4.779
17124TIP3   OH251256   0.892   0.194   4.607
17124TIP3    H151257   0.818   0.227   4.555
17124TIP3    H251258   0.904   0.260   4.675
17125TIP3   OH251259   1.155   0.143   4.626
17125TIP3    H151260   1.060   0.138   4.633
17125TIP3    H251261   1.171   0.217   4.567
17126TIP3   OH251262   1.453   0.445   4.626
17126TIP3    H151263   1.417   0.497   4.554
17126TIP3    H251264   1.442   0.354   4.598
17127TIP3   OH251265   0.190   0.037   4.716
17127TIP3    H151266   0.208   0.011   4.807
17127TIP3    H251267   0.261  -0.003   4.666
17128TIP3   OH251268   6.928   9.146   4.597
17128TIP3    H151269   6.942   9.067   4.651
17128TIP3    H251270   7.014   9.189   4.596
17129TIP3   OH251271   7.187   9.238   4.606
17129TIP3    H151272   7.214   9.147   4.590
17129TIP3    H251273   7.230   9.262   4.688
17130TIP3   OH251274   7.759   7.883   4.714
17130TIP3    H151275   7.720   7.810   4.762
17130TIP3    H251276   7.831   7.843   4.665
17131TIP3   OH251277   8.288   7.866   4.607
17131TIP3    H151278   8.311   7.887   4.516
17131TIP3    H251279   8.195   7.889   4.613
17132TIP3   OH251280   8.393   7.893   4.361
17132TIP3    H151281   8.453   7.828   4.325
17132TIP3    H251282   8.431   7.977   4.337
17133TIP3   OH251283   7.006   7.593   4.719
17133TIP3    H151284   6.917   7.560   4.730
17133TIP3    H251285   7.060   7.515   4.710
17134TIP3   OH251286   6.801   7.495   4.355
17134TIP3    H151287   6.836   7.547   4.283
17134TIP3    H251288   6.773   7.559   4.420
17135TIP3   OH251289   7.477   7.629   4.607
17135TIP3    H151290   7.527   7.671   4.537
17135TIP3    H251291   7.522   7.655   4.687
17136TIP3   OH251292   7.986   7.777   4.590
17136TIP3    H151293   7.997   7.748   4.500
17136TIP3    H251294   8.016   7.703   4.643
17137TIP3   OH251295   8.024   7.803   4.123
17137TIP3    H151296   7.936   7.820   4.157
17137TIP3    H251297   8.045   7.715   4.155
17138TIP3   OH251298   6.493   9.071   4.125
17138TIP3    H151299   6.407   9.041   4.093
17138TIP3    H251300   6.501   9.160   4.092
17139TIP3   OH251301   6.931   7.634   4.125
17139TIP3    H151302   6.978   7.570   4.071
17139TIP3    H251303   7.000   7.689   4.163
17140TIP3   OH251304   7.421   7.833   4.217
17140TIP3    H151305   7.477   7.776   4.270
17140TIP3    H251306   7.436   7.921   4.252
17141TIP3   OH251307   7.289   9.248   3.678
17141TIP3    H151308   7.380   9.261   3.652
17141TIP3    H251309   7.268   9.159   3.648
17142TIP3   OH251310   1.458   0.127   3.806
17142TIP3    H151311   1.457   0.032   3.797
17142TIP3    H251312   1.411   0.159   3.729
17143TIP3   OH251313   7.266   7.870   5.604
17143TIP3    H151314   7.223   7.803   5.656
17143TIP3    H251315   7.357   7.870   5.635
17144TIP3   OH251316   7.505   7.860   5.749
17144TIP3    H151317   7.584   7.824   5.709
17144TIP3    H251318   7.485   7.802   5.822
17145TIP3   OH251319   6.607   9.072   3.774
17145TIP3    H151320   6.603   9.082   3.869
17145TIP3    H251321   6.688   9.024   3.758
17146TIP3   OH251322   8.301   7.969   5.510
17146TIP3    H151323   8.316   7.940   5.600
17146TIP3    H251324   8.388   7.965   5.469
17147TIP3   OH251325   1.678   0.265   5.111
17147TIP3    H151326   1.609   0.307   5.059
17147TIP3    H251327   1.749   0.330   5.114
17148TIP3   OH251328   8.953   8.731   4.529
17148TIP3    H151329   8.918   8.657   4.579
17148TIP3    H251330   8.930   8.808   4.581
17149TIP3   OH251331   8.790   9.124   4.153
17149TIP3    H151332   8.733   9.061   4.109
17149TIP3    H251333   8.830   9.074   4.225
17150TIP3   OH251334   8.466   8.378   3.982
17150TIP3    H151335   8.428   8.461   4.010
17150TIP3    H251336   8.393   8.329   3.943
17151TIP3   OH251337   8.491   8.650   4.180
17151TIP3    H151338   8.553   8.587   4.216
17151TIP3    H251339   8.546   8.719   4.143
17152TIP3   OH251340   9.053   8.242   4.157
17152TIP3    H151341   9.024   8.315   4.103
17152TIP3    H251342   8.999   8.167   4.129
17153TIP3   OH251343   8.660   8.469   4.297
17153TIP3    H151344   8.746   8.511   4.303
17153TIP3    H251345   8.672   8.400   4.231
17154TIP3   OH251346   9.076   8.654   4.085
17154TIP3    H151347   9.170   8.657   4.068
17154TIP3    H251348   9.047   8.572   4.046
17155TIP3   OH251349   9.035   8.223   4.640
17155TIP3    H151350   8.997   8.265   4.563
17155TIP3    H251351   8.966   8.226   4.706
17156TIP3   OH251352   8.955   8.327   4.401
17156TIP3    H151353   8.936   8.417   4.374
17156TIP3    H251354   9.000   8.288   4.326
17157TIP3   OH251355   8.362   8.920   3.726
17157TIP3    H151356   8.293   8.944   3.664
17157TIP3    H251357   8.382   9.000   3.773
17158TIP3   OH251358   9.373   7.939   4.353
17158TIP3    H151359   9.368   7.848   4.383
17158TIP3    H251360   9.299   7.982   4.396
17159TIP3   OH251361   8.882   8.809   3.976
17159TIP3    H151362   8.849   8.764   3.899
17159TIP3    H251363   8.955   8.755   4.006
17160TIP3   OH251364   9.168   8.717   4.346
17160TIP3    H151365   9.132   8.732   4.259
17160TIP3    H251366   9.119   8.776   4.403
17161TIP3   OH251367   9.025   8.778   4.869
17161TIP3    H151368   9.051   8.864   4.903
17161TIP3    H251369   8.963   8.798   4.798
17162TIP3   OH251370   8.773   8.637   3.784
17162TIP3    H151371   8.694   8.671   3.743
17162TIP3    H251372   8.751   8.547   3.810
17163TIP3   OH251373   8.630   8.989   4.620
17163TIP3    H151374   8.564   9.051   4.591
17163TIP3    H251375   8.581   8.918   4.662
17164TIP3   OH251376   8.396   9.199   4.286
17164TIP3    H151377   8.481   9.231   4.256
17164TIP3    H251378   8.344   9.278   4.301
17165TIP3   OH251379   8.806   9.193   4.566
17165TIP3    H151380   8.846   9.199   4.653
17165TIP3    H251381   8.750   9.116   4.571
17166TIP3   OH251382   9.149   8.030   4.480
17166TIP3    H151383   9.065   7.997   4.449
17166TIP3    H251384   9.126   8.108   4.530
17167TIP3   OH251385   9.672   8.129   4.659
17167TIP3    H151386   9.744   8.129   4.722
17167TIP3    H251387   9.594   8.116   4.712
17168TIP3   OH251388   9.218   8.101   3.436
17168TIP3    H151389   9.223   8.098   3.532
17168TIP3    H251390   9.207   8.009   3.411
17169TIP3   OH251391   9.163   8.533   4.559
17169TIP3    H151392   9.077   8.492   4.573
17169TIP3    H251393   9.151   8.585   4.479
17170TIP3   OH251394   8.952   8.433   3.989
17170TIP3    H151395   8.865   8.406   4.019
17170TIP3    H251396   8.958   8.400   3.899
17171TIP3   OH251397   8.890   8.487   4.664
17171TIP3    H151398   8.948   8.491   4.740
17171TIP3    H251399   8.834   8.412   4.681
17172TIP3   OH251400   8.899   8.021   3.436
17172TIP3    H151401   8.907   8.045   3.529
17172TIP3    H251402   8.927   8.099   3.389
17173TIP3   OH251403   8.508   8.116   4.266
17173TIP3    H151404   8.585   8.143   4.317
17173TIP3    H251405   8.544   8.092   4.181
17174TIP3   OH251406   8.422   8.091   3.792
17174TIP3    H151407   8.470   8.131   3.719
17174TIP3    H251408   8.356   8.156   3.815
17175TIP3   OH251409   9.309   8.299   4.064
17175TIP3    H151410   9.228   8.279   4.110
17175TIP3    H251411   9.376   8.248   4.110
17176TIP3   OH251412   8.720   8.315   4.071
17176TIP3    H151413   8.632   8.321   4.034
17176TIP3    H251414   8.746   8.224   4.057
17177TIP3   OH251415   8.977   8.330   3.737
17177TIP3    H151416   9.072   8.337   3.732
17177TIP3    H251417   8.946   8.353   3.650
17178TIP3   OH251418   8.867   8.370   3.485
17178TIP3    H151419   8.781   8.334   3.460
17178TIP3    H251420   8.927   8.338   3.417
17179TIP3   OH251421   9.055   9.026   4.968
17179TIP3    H151422   9.111   9.103   4.959
17179TIP3    H251423   8.977   9.058   5.015
17180TIP3   OH251424   8.861   8.069   4.040
17180TIP3    H151425   8.836   7.995   4.095
17180TIP3    H251426   8.877   8.031   3.953
17181TIP3   OH251427   9.436   8.369   4.503
17181TIP3    H151428   9.407   8.429   4.435
17181TIP3    H251429   9.523   8.400   4.528
17182TIP3   OH251430   8.655   8.865   4.115
17182TIP3    H151431   8.734   8.844   4.065
17182TIP3    H251432   8.682   8.856   4.206
17183TIP3   OH251433   8.660   8.623   4.890
17183TIP3    H151434   8.724   8.592   4.954
17183TIP3    H251435   8.672   8.718   4.887
17184TIP3   OH251436   8.459   8.509   3.567
17184TIP3    H151437   8.504   8.591   3.587
17184TIP3    H251438   8.379   8.512   3.620
17185TIP3   OH251439   8.834   8.242   4.832
17185TIP3    H151440   8.742   8.263   4.846
17185TIP3    H251441   8.876   8.264   4.915
17186TIP3   OH251442   2.113   0.205   4.503
17186TIP3    H151443   2.024   0.181   4.526
17186TIP3    H251444   2.148   0.246   4.583
17187TIP3   OH251445   8.566   8.754   3.645
17187TIP3    H151446   8.499   8.810   3.685
17187TIP3    H251447   8.626   8.815   3.604
17188TIP3   OH251448   9.256   8.335   3.799
17188TIP3    H151449   9.316   8.405   3.771
17188TIP3    H251450   9.272   8.327   3.893
17189TIP3   OH251451   9.433   8.017   3.914
17189TIP3    H151452   9.460   8.056   3.998
17189TIP3    H251453   9.486   8.063   3.849
17190TIP3   OH251454   8.928   8.055   3.714
17190TIP3    H151455   8.924   8.149   3.734
17190TIP3    H251456   9.022   8.035   3.716
17191TIP3   OH251457   8.519   8.239   3.582
17191TIP3    H151458   8.504   8.334   3.584
17191TIP3    H251459   8.536   8.220   3.490
17192TIP3   OH251460   8.894   7.936   4.437
17192TIP3    H151461   8.864   7.905   4.352
17192TIP3    H251462   8.877   7.863   4.496
17193TIP3   OH251463   8.384   9.170   3.819
17193TIP3    H151464   8.377   9.230   3.893
17193TIP3    H251465   8.345   9.219   3.746
17194TIP3   OH251466   8.828   9.137   5.075
17194TIP3    H151467   8.850   9.100   5.161
17194TIP3    H251468   8.751   9.192   5.092
17195TIP3   OH251469   8.872   8.836   5.160
17195TIP3    H151470   8.959   8.797   5.149
17195TIP3    H251471   8.884   8.903   5.227
17196TIP3   OH251472   8.866   8.652   3.517
17196TIP3    H151473   8.856   8.652   3.613
17196TIP3    H251474   8.872   8.560   3.494
17197TIP3   OH251475   9.294   8.719   4.708
17197TIP3    H151476   9.244   8.801   4.707
17197TIP3    H251477   9.243   8.659   4.654
17198TIP3   OH251478   9.351   8.509   4.875
17198TIP3    H151479   9.342   8.435   4.814
17198TIP3    H251480   9.348   8.587   4.819
17199TIP3   OH251481   9.287   8.298   4.718
17199TIP3    H151482   9.328   8.323   4.635
17199TIP3    H251483   9.196   8.278   4.695
17200TIP3   OH251484   9.241   8.486   5.128
17200TIP3    H151485   9.160   8.434   5.126
17200TIP3    H251486   9.282   8.470   5.043
17201TIP3   OH251487   9.424   8.070   4.775
17201TIP3    H151488   9.379   8.153   4.759
17201TIP3    H251489   9.357   8.004   4.759
17202TIP3   OH251490   9.595   8.519   5.007
17202TIP3    H151491   9.563   8.548   5.092
17202TIP3    H251492   9.515   8.505   4.955
17203TIP3   OH251493   8.998   8.358   5.173
17203TIP3    H151494   9.003   8.268   5.140
17203TIP3    H251495   9.023   8.350   5.265
17204TIP3   OH251496   9.529   8.054   5.026
17204TIP3    H151497   9.603   7.996   5.007
17204TIP3    H251498   9.482   8.060   4.943
17205TIP3   OH251499   9.522   8.286   5.164
17205TIP3    H151500   9.537   8.202   5.121
17205TIP3    H251501   9.573   8.349   5.113
17206TIP3   OH251502   8.287   8.920   3.443
17206TIP3    H151503   8.377   8.922   3.477
17206TIP3    H251504   8.277   8.832   3.406
17207TIP3   OH251505   1.659   0.290   3.890
17207TIP3    H151506   1.588   0.234   3.857
17207TIP3    H251507   1.717   0.230   3.937
17208TIP3   OH251508   1.808   0.101   4.033
17208TIP3    H151509   1.796   0.029   4.095
17208TIP3    H251510   1.850   0.170   4.084
17209TIP3   OH251511   8.454   8.789   4.413
17209TIP3    H151512   8.445   8.736   4.334
17209TIP3    H251513   8.546   8.816   4.414
17210TIP3   OH251514   8.757   8.455   5.102
17210TIP3    H151515   8.849   8.444   5.125
17210TIP3    H251516   8.718   8.369   5.118
17211TIP3   OH251517   8.735   8.159   4.409
17211TIP3    H151518   8.788   8.082   4.429
17211TIP3    H251519   8.797   8.232   4.412
17212TIP3   OH251520   8.518   8.418   4.537
17212TIP3    H151521   8.560   8.426   4.451
17212TIP3    H251522   8.470   8.500   4.547
17213TIP3   OH251523   8.503   7.960   4.015
17213TIP3    H151524   8.417   7.950   4.057
17213TIP3    H251525   8.485   8.012   3.937
17214TIP3   OH251526   2.255   0.255   4.974
17214TIP3    H151527   2.168   0.238   5.011
17214TIP3    H251528   2.311   0.268   5.051
17215TIP3   OH251529   9.494   8.113   4.170
17215TIP3    H151530   9.454   8.056   4.236
17215TIP3    H251531   9.579   8.137   4.208
17216TIP3   OH251532   8.798   7.847   4.194
17216TIP3    H151533   8.708   7.815   4.202
17216TIP3    H251534   8.850   7.767   4.187
17217TIP3   OH251535   8.638   7.761   3.866
17217TIP3    H151536   8.657   7.802   3.781
17217TIP3    H251537   8.596   7.830   3.917
17218TIP3   OH251538   9.257   7.889   4.095
17218TIP3    H151539   9.310   7.935   4.029
17218TIP3    H251540   9.297   7.914   4.179
17219TIP3   OH251541   0.110   7.936   4.041
17219TIP3    H151542   0.080   8.023   4.013
17219TIP3    H251543   0.059   7.918   4.120
17220TIP3   OH251544   1.728   0.072   3.619
17220TIP3    H151545   1.649   0.060   3.567
17220TIP3    H251546   1.732   0.166   3.637
17221TIP3   OH251547   8.723   7.878   3.624
17221TIP3    H151548   8.770   7.833   3.553
17221TIP3    H251549   8.787   7.939   3.660
17222TIP3   OH251550   9.208   8.076   3.719
17222TIP3    H151551   9.259   8.019   3.777
17222TIP3    H251552   9.227   8.165   3.749
17223TIP3   OH251553   9.028   8.100   5.083
17223TIP3    H151554   8.995   8.035   5.146
17223TIP3    H251555   9.118   8.117   5.111
17224TIP3   OH251556   9.263   8.164   5.212
17224TIP3    H151557   9.353   8.190   5.193
17224TIP3    H251558   9.271   8.087   5.268
17225TIP3   OH251559   1.007   8.988   6.371
17225TIP3    H151560   1.007   9.081   6.350
17225TIP3    H251561   1.041   8.946   6.292
17226TIP3   OH251562   1.222   8.881   7.069
17226TIP3    H151563   1.293   8.828   7.031
17226TIP3    H251564   1.178   8.921   6.994
17227TIP3   OH251565   1.079   9.001   6.861
17227TIP3    H151566   0.990   9.025   6.887
17227TIP3    H251567   1.068   8.918   6.813
17228TIP3   OH251568   0.701   8.706   5.405
17228TIP3    H151569   0.739   8.619   5.394
17228TIP3    H251570   0.764   8.753   5.460
17229TIP3   OH251571   1.025   8.754   6.742
17229TIP3    H151572   0.939   8.727   6.711
17229TIP3    H251573   1.074   8.672   6.750
17230TIP3   OH251574   0.816   8.666   6.060
17230TIP3    H151575   0.877   8.595   6.039
17230TIP3    H251576   0.852   8.743   6.016
17231TIP3   OH251577   0.959   9.057   5.738
17231TIP3    H151578   0.898   9.130   5.748
17231TIP3    H251579   0.940   8.998   5.811
17232TIP3   OH251580   2.781   9.194   5.902
17232TIP3    H151581   2.809   9.273   5.947
17232TIP3    H251582   2.827   9.196   5.818
17233TIP3   OH251583   5.313   0.063   5.981
17233TIP3    H151584   5.403   0.073   6.014
17233TIP3    H251585   5.323   0.031   5.892
17234TIP3   OH251586   1.533   8.962   5.889
17234TIP3    H151587   1.519   9.036   5.831
17234TIP3    H251588   1.487   8.889   5.846
17235TIP3   OH251589   2.207   9.115   5.510
17235TIP3    H151590   2.274   9.098   5.576
17235TIP3    H251591   2.257   9.133   5.430
17236TIP3   OH251592   4.470   0.087   6.042
17236TIP3    H151593   4.535   0.022   6.065
17236TIP3    H251594   4.435   0.058   5.958
17237TIP3   OH251595   4.852   0.272   5.760
17237TIP3    H151596   4.912   0.346   5.750
17237TIP3    H251597   4.894   0.200   5.712
17238TIP3   OH251598   6.145   0.170   6.042
17238TIP3    H151599   6.101   0.237   5.989
17238TIP3    H251600   6.150   0.208   6.129
17239TIP3   OH251601   1.493   9.015   6.315
17239TIP3    H151602   1.445   9.060   6.246
17239TIP3    H251603   1.442   9.031   6.394
17240TIP3   OH251604   2.375   9.090   5.726
17240TIP3    H151605   2.326   9.083   5.808
17240TIP3    H251606   2.439   9.159   5.742
17241TIP3   OH251607   1.384   9.112   6.077
17241TIP3    H151608   1.435   9.184   6.040
17241TIP3    H251609   1.413   9.034   6.030
17242TIP3   OH251610   2.566   9.123   6.064
17242TIP3    H151611   2.493   9.179   6.038
17242TIP3    H251612   2.632   9.136   5.995
17243TIP3   OH251613   1.843   8.728   6.041
17243TIP3    H151614   1.838   8.636   6.069
17243TIP3    H251615   1.768   8.770   6.082
17244TIP3   OH251616   4.996   0.021   5.118
17244TIP3    H151617   5.037   0.105   5.139
17244TIP3    H251618   5.064  -0.027   5.070
17245TIP3   OH251619   5.689   0.455   6.183
17245TIP3    H151620   5.684   0.547   6.156
17245TIP3    H251621   5.625   0.410   6.129
17246TIP3   OH251622   2.467   8.685   5.133
17246TIP3    H151623   2.393   8.704   5.190
17246TIP3    H251624   2.477   8.763   5.079
17247TIP3   OH251625   5.919   0.353   6.287
17247TIP3    H151626   5.830   0.374   6.261
17247TIP3    H251627   5.920   0.257   6.297
17248TIP3   OH251628   1.608   8.809   6.170
17248TIP3    H151629   1.526   8.782   6.127
17248TIP3    H251630   1.586   8.892   6.213
17249TIP3   OH251631   2.141   8.932   6.377
17249TIP3    H151632   2.213   8.906   6.435
17249TIP3    H251633   2.062   8.904   6.423
17250TIP3   OH251634   5.692   0.155   6.337
17250TIP3    H151635   5.623   0.142   6.402
17250TIP3    H251636   5.647   0.153   6.253
17251TIP3   OH251637   1.745   8.843   5.142
17251TIP3    H151638   1.711   8.843   5.232
17251TIP3    H251639   1.717   8.759   5.106
17252TIP3   OH251640   4.838   0.082   6.234
17252TIP3    H151641   4.758   0.070   6.286
17252TIP3    H251642   4.807   0.090   6.144
17253TIP3   OH251643   1.461   9.153   5.709
17253TIP3    H151644   1.373   9.129   5.739
17253TIP3    H251645   1.460   9.131   5.615
17254TIP3   OH251646   5.202  -0.007   5.347
17254TIP3    H151647   5.177   0.084   5.330
17254TIP3    H251648   5.261  -0.030   5.275
17255TIP3   OH251649   5.371   0.342   6.521
17255TIP3    H151650   5.398   0.256   6.554
17255TIP3    H251651   5.453   0.382   6.490
17256TIP3   OH251652   5.336   0.010   5.709
17256TIP3    H151653   5.270   0.058   5.659
17256TIP3    H251654   5.374  -0.051   5.646
17257TIP3   OH251655   4.616   0.059   6.396
17257TIP3    H151656   4.565   0.123   6.445
17257TIP3    H251657   4.626  -0.015   6.456
17258TIP3   OH251658   1.392   8.792   5.081
17258TIP3    H151659   1.375   8.854   5.152
17258TIP3    H251660   1.349   8.830   5.005
17259TIP3   OH251661   0.978   8.858   5.936
17259TIP3    H151662   0.967   8.930   5.998
17259TIP3    H251663   1.069   8.830   5.948
17260TIP3   OH251664   0.894   8.878   5.532
17260TIP3    H151665   0.889   8.914   5.443
17260TIP3    H251666   0.921   8.953   5.586
17261TIP3   OH251667   5.422   0.325   6.188
17261TIP3    H151668   5.476   0.267   6.135
17261TIP3    H251669   5.388   0.269   6.258
17262TIP3   OH251670   1.784   8.994   5.735
17262TIP3    H151671   1.712   8.982   5.797
17262TIP3    H251672   1.862   8.994   5.789
17263TIP3   OH251673   1.223   9.072   5.815
17263TIP3    H151674   1.134   9.077   5.779
17263TIP3    H251675   1.254   8.985   5.791
17264TIP3   OH251676   1.488   9.133   5.440
17264TIP3    H151677   1.579   9.104   5.437
17264TIP3    H251678   1.449   9.096   5.361
17265TIP3   OH251679   2.234   9.059   5.959
17265TIP3    H151680   2.212   9.111   6.036
17265TIP3    H251681   2.152   9.014   5.937
17266TIP3   OH251682   1.338   9.017   5.241
17266TIP3    H151683   1.248   9.042   5.260
17266TIP3    H251684   1.353   9.045   5.151
17267TIP3   OH251685   5.040   0.011   5.899
17267TIP3    H151686   5.105   0.080   5.883
17267TIP3    H251687   5.078  -0.040   5.970
17268TIP3   OH251688   1.335   8.837   5.725
17268TIP3    H151689   1.300   8.757   5.765
17268TIP3    H251690   1.340   8.817   5.632
17269TIP3   OH251691   1.813   9.182   6.171
17269TIP3    H151692   1.741   9.243   6.183
17269TIP3    H251693   1.891   9.237   6.164
17270TIP3   OH251694   2.001   8.947   5.164
17270TIP3    H151695   1.909   8.921   5.152
17270TIP3    H251696   2.007   9.035   5.127
17271TIP3   OH251697   2.112   9.213   5.139
17271TIP3    H151698   2.191   9.173   5.176
17271TIP3    H251699   2.139   9.302   5.118
17272TIP3   OH251700   5.139   0.456   6.588
17272TIP3    H151701   5.115   0.495   6.504
17272TIP3    H251702   5.223   0.413   6.571
17273TIP3   OH251703   5.852   0.081   5.038
17273TIP3    H151704   5.769   0.052   5.000
17273TIP3    H251705   5.877   0.158   4.988
17274TIP3   OH251706   1.369   9.068   6.554
17274TIP3    H151707   1.292   9.011   6.553
17274TIP3    H251708   1.422   9.034   6.626
17275TIP3   OH251709   2.195   9.158   6.237
17275TIP3    H151710   2.290   9.159   6.227
17275TIP3    H251711   2.177   9.076   6.283
17276TIP3   OH251712   2.066   8.897   5.424
17276TIP3    H151713   2.043   8.920   5.334
17276TIP3    H251714   2.108   8.975   5.458
17277TIP3   OH251715   1.755   9.057   5.464
17277TIP3    H151716   1.826   9.111   5.427
17277TIP3    H251717   1.773   9.055   5.558
17278TIP3   OH251718   5.302   0.116   6.332
17278TIP3    H151719   5.292   0.103   6.427
17278TIP3    H251720   5.357   0.043   6.304
17279TIP3   OH251721   1.875   8.783   5.583
17279TIP3    H151722   1.846   8.860   5.631
17279TIP3    H251723   1.950   8.813   5.531
17280TIP3   OH251724   1.367   8.814   5.437
17280TIP3    H151725   1.350   8.893   5.385
17280TIP3    H251726   1.461   8.799   5.427
17281TIP3   OH251727   5.930   0.066   6.260
17281TIP3    H151728   5.844   0.086   6.298
17281TIP3    H251729   5.911   0.004   6.189
17282TIP3   OH251730   5.581   0.153   5.619
17282TIP3    H151731   5.519   0.104   5.673
17282TIP3    H251732   5.666   0.133   5.656
17283TIP3   OH251733   0.859   8.958   5.272
17283TIP3    H151734   0.815   9.039   5.245
17283TIP3    H251735   0.819   8.890   5.218
17284TIP3   OH251736   1.340   8.735   6.122
17284TIP3    H151737   1.311   8.699   6.038
17284TIP3    H251738   1.333   8.662   6.183
17285TIP3   OH251739   4.647   0.437   6.752
17285TIP3    H151740   4.695   0.355   6.747
17285TIP3    H251741   4.589   0.428   6.827
17286TIP3   OH251742   4.990   0.256   6.367
17286TIP3    H151743   4.939   0.190   6.319
17286TIP3    H251744   5.058   0.283   6.306
17287TIP3   OH251745   4.721   0.065   5.087
17287TIP3    H151746   4.709   0.068   4.992
17287TIP3    H251747   4.816   0.065   5.099
17288TIP3   OH251748   4.987   0.067   6.575
17288TIP3    H151749   4.989  -0.019   6.532
17288TIP3    H251750   5.002   0.129   6.504
17289TIP3   OH251751   1.738   9.082   6.412
17289TIP3    H151752   1.780   9.110   6.331
17289TIP3    H251753   1.650   9.056   6.385
17290TIP3   OH251754   5.612   0.302   6.741
17290TIP3    H151755   5.606   0.245   6.664
17290TIP3    H251756   5.656   0.380   6.709
17291TIP3   OH251757   4.786   0.181   6.735
17291TIP3    H151758   4.753   0.109   6.790
17291TIP3    H251759   4.867   0.146   6.697
17292TIP3   OH251760   1.883   8.855   6.456
17292TIP3    H151761   1.836   8.937   6.442
17292TIP3    H251762   1.817   8.787   6.441
17293TIP3   OH251763   5.269   0.064   6.609
17293TIP3    H151764   5.293   0.112   6.688
17293TIP3    H251765   5.175   0.046   6.619
17294TIP3   OH251766   5.540   0.101   6.558
17294TIP3    H151767   5.462   0.051   6.583
17294TIP3    H251768   5.612   0.053   6.599
17295TIP3   OH251769   2.499   9.251   6.692
17295TIP3    H151770   2.513   9.156   6.690
17295TIP3    H251771   2.493   9.273   6.785
17296TIP3   OH251772   1.450   9.191   6.886
17296TIP3    H151773   1.453   9.113   6.832
17296TIP3    H251774   1.509   9.173   6.960
17297TIP3   OH251775   1.950   8.863   6.719
17297TIP3    H151776   2.023   8.802   6.719
17297TIP3    H251777   1.919   8.865   6.628
17298TIP3   OH251778   2.026   9.084   6.865
17298TIP3    H151779   2.003   9.011   6.807
17298TIP3    H251780   1.949   9.141   6.863
17299TIP3   OH251781   2.403   9.234   4.854
17299TIP3    H151782   2.487   9.225   4.809
17299TIP3    H251783   2.366   9.146   4.854
17300TIP3   OH251784   5.580   0.376   5.371
17300TIP3    H151785   5.638   0.300   5.378
17300TIP3    H251786   5.573   0.410   5.460
17301TIP3   OH251787   6.053   0.588   6.238
17301TIP3    H151788   6.005   0.506   6.247
17301TIP3    H251789   6.126   0.568   6.180
17302TIP3   OH251790   2.282   8.983   4.841
17302TIP3    H151791   2.359   8.944   4.883
17302TIP3    H251792   2.211   8.922   4.861
17303TIP3   OH251793   2.341   9.147   5.269
17303TIP3    H151794   2.409   9.079   5.275
17303TIP3    H251795   2.389   9.229   5.278
17304TIP3   OH251796   5.793   0.077   5.782
17304TIP3    H151797   5.878   0.118   5.790
17304TIP3    H251798   5.747   0.099   5.864
17305TIP3   OH251799   5.740   0.374   5.875
17305TIP3    H151800   5.697   0.303   5.921
17305TIP3    H251801   5.821   0.389   5.923
17306TIP3   OH251802   1.197   9.251   6.784
17306TIP3    H151803   1.284   9.240   6.821
17306TIP3    H251804   1.153   9.167   6.798
17307TIP3   OH251805   3.047   9.148   6.555
17307TIP3    H151806   3.113   9.087   6.522
17307TIP3    H251807   3.013   9.191   6.476
17308TIP3   OH251808   2.507   8.935   5.330
17308TIP3    H151809   2.547   8.930   5.417
17308TIP3    H251810   2.437   8.870   5.333
17309TIP3   OH251811   1.165   8.945   6.147
17309TIP3    H151812   1.221   8.867   6.150
17309TIP3    H251813   1.223   9.016   6.119
17310TIP3   OH251814   4.295  -0.003   6.256
17310TIP3    H151815   4.373   0.016   6.204
17310TIP3    H251816   4.278   0.079   6.303
17311TIP3   OH251817   2.911   9.236   6.335
17311TIP3    H151818   2.824   9.272   6.323
17311TIP3    H251819   2.909   9.150   6.293
17312TIP3   OH251820   2.512   8.891   4.957
17312TIP3    H151821   2.554   8.828   4.899
17312TIP3    H251822   2.581   8.955   4.976
17313TIP3   OH251823   0.979   8.681   5.698
17313TIP3    H151824   0.959   8.716   5.785
17313TIP3    H251825   0.948   8.749   5.638
17314TIP3   OH251826   1.179   8.871   6.547
17314TIP3    H151827   1.125   8.829   6.613
17314TIP3    H251828   1.117   8.906   6.484
17315TIP3   OH251829   2.808   8.984   6.258
17315TIP3    H151830   2.719   8.967   6.228
17315TIP3    H251831   2.852   8.899   6.251
17316TIP3   OH251832   2.000   8.917   5.886
17316TIP3    H151833   1.960   8.848   5.939
17316TIP3    H251834   2.064   8.871   5.832
17317TIP3   OH251835   2.518   8.848   5.769
17317TIP3    H151836   2.579   8.885   5.705
17317TIP3    H251837   2.448   8.913   5.775
17318TIP3   OH251838   2.666   8.923   5.557
17318TIP3    H151839   2.724   8.852   5.530
17318TIP3    H251840   2.714   9.003   5.533
17319TIP3   OH251841   1.244   8.628   5.887
17319TIP3    H151842   1.157   8.591   5.898
17319TIP3    H251843   1.302   8.552   5.881
17320TIP3   OH251844   1.074   8.495   5.520
17320TIP3    H151845   1.102   8.546   5.444
17320TIP3    H251846   1.044   8.561   5.583
17321TIP3   OH251847   1.722   8.674   5.791
17321TIP3    H151848   1.777   8.704   5.719
17321TIP3    H251849   1.768   8.701   5.870
17322TIP3   OH251850   2.193   8.781   5.749
17322TIP3    H151851   2.255   8.763   5.678
17322TIP3    H251852   2.215   8.716   5.816
17323TIP3   OH251853   2.290   8.759   5.332
17323TIP3    H151854   2.212   8.807   5.359
17323TIP3    H251855   2.281   8.672   5.372
17324TIP3   OH251856   1.181   8.649   5.305
17324TIP3    H151857   1.233   8.600   5.240
17324TIP3    H251858   1.246   8.700   5.354
17325TIP3   OH251859   1.639   8.818   5.396
17325TIP3    H151860   1.681   8.739   5.430
17325TIP3    H251861   1.690   8.890   5.433
17326TIP3   OH251862   1.484   8.928   6.769
17326TIP3    H151863   1.446   8.866   6.832
17326TIP3    H251864   1.577   8.931   6.791
17327TIP3   OH251865   1.731   8.904   6.885
17327TIP3    H151866   1.810   8.891   6.833
17327TIP3    H251867   1.735   8.836   6.952
17328TIP3   OH251868   2.559   8.985   6.678
17328TIP3    H151869   2.577   8.960   6.769
17328TIP3    H251870   2.645   8.988   6.636
17329TIP3   OH251871   6.045   0.083   5.238
17329TIP3    H151872   6.007   0.159   5.282
17329TIP3    H251873   5.989   0.069   5.162
17330TIP3   OH251874   7.864   0.213   5.390
17330TIP3    H151875   7.900   0.289   5.435
17330TIP3    H251876   7.902   0.216   5.303
17331TIP3   OH251877   7.123   0.315   5.473
17331TIP3    H151878   7.155   0.255   5.541
17331TIP3    H251879   7.157   0.279   5.391
17332TIP3   OH251880   3.325   9.200   5.396
17332TIP3    H151881   3.318   9.276   5.338
17332TIP3    H251882   3.280   9.129   5.349
17333TIP3   OH251883   7.275   0.133   4.974
17333TIP3    H151884   7.340   0.114   5.042
17333TIP3    H251885   7.327   0.156   4.897
17334TIP3   OH251886   6.202   0.251   5.533
17334TIP3    H151887   6.285   0.203   5.538
17334TIP3    H251888   6.147   0.198   5.475
17335TIP3   OH251889   6.658   0.521   5.291
17335TIP3    H151890   6.753   0.515   5.276
17335TIP3    H251891   6.619   0.478   5.215
17336TIP3   OH251892   7.956   0.419   5.555
17336TIP3    H151893   7.869   0.449   5.529
17336TIP3    H251894   7.978   0.473   5.631
17337TIP3   OH251895   6.551   0.022   5.812
17337TIP3    H151896   6.501   0.059   5.739
17337TIP3    H251897   6.496   0.037   5.889
17338TIP3   OH251898   7.425   0.101   5.197
17338TIP3    H151899   7.378   0.080   5.277
17338TIP3    H251900   7.488   0.169   5.223
17339TIP3   OH251901   6.439   0.113   5.579
17339TIP3    H151902   6.487   0.187   5.541
17339TIP3    H251903   6.465   0.039   5.525
17340TIP3   OH251904   7.637   0.119   5.529
17340TIP3    H151905   7.557   0.135   5.479
17340TIP3    H251906   7.707   0.142   5.469
17341TIP3   OH251907   3.641   8.989   5.527
17341TIP3    H151908   3.635   8.897   5.552
17341TIP3    H251909   3.565   9.030   5.569
17342TIP3   OH251910   6.767   0.310   4.652
17342TIP3    H151911   6.821   0.386   4.671
17342TIP3    H251912   6.795   0.281   4.565
17343TIP3   OH251913   7.506   0.730   5.499
17343TIP3    H151914   7.494   0.815   5.542
17343TIP3    H251915   7.492   0.665   5.568
17344TIP3   OH251916   4.270   8.940   4.625
17344TIP3    H151917   4.194   8.957   4.681
17344TIP3    H251918   4.285   9.023   4.579
17345TIP3   OH251919   7.660   0.599   5.880
17345TIP3    H151920   7.698   0.638   5.801
17345TIP3    H251921   7.696   0.510   5.883
17346TIP3   OH251922   3.403   9.065   5.657
17346TIP3    H151923   3.333   9.049   5.593
17346TIP3    H251924   3.372   9.139   5.709
17347TIP3   OH251925   3.932   9.200   5.858
17347TIP3    H151926   4.005   9.177   5.915
17347TIP3    H251927   3.855   9.167   5.905
17348TIP3   OH251928   7.445   0.310   5.801
17348TIP3    H151929   7.418   0.328   5.891
17348TIP3    H251930   7.445   0.396   5.759
17349TIP3   OH251931   3.547   9.101   4.644
17349TIP3    H151932   3.515   9.097   4.734
17349TIP3    H251933   3.522   9.017   4.606
17350TIP3   OH251934   6.638   0.336   5.732
17350TIP3    H151935   6.559   0.313   5.781
17350TIP3    H251936   6.610   0.339   5.641
17351TIP3   OH251937   6.557   0.135   5.192
17351TIP3    H151938   6.468   0.144   5.226
17351TIP3    H251939   6.544   0.110   5.100
17352TIP3   OH251940   6.989   0.279   4.879
17352TIP3    H151941   6.942   0.359   4.857
17352TIP3    H251942   7.042   0.260   4.802
17353TIP3   OH251943   7.166   0.573   5.988
17353TIP3    H151944   7.175   0.513   6.062
17353TIP3    H251945   7.254   0.609   5.976
17354TIP3   OH251946   7.127   0.281   5.156
17354TIP3    H151947   7.043   0.291   5.111
17354TIP3    H251948   7.175   0.217   5.104
17355TIP3   OH251949   6.427   0.330   5.908
17355TIP3    H151950   6.364   0.385   5.954
17355TIP3    H251951   6.428   0.247   5.957
17356TIP3   OH251952   3.211   9.067   4.571
17356TIP3    H151953   3.185   9.095   4.658
17356TIP3    H251954   3.163   9.124   4.511
17357TIP3   OH251955   2.812   9.110   5.428
17357TIP3    H151956   2.790   9.196   5.392
17357TIP3    H251957   2.826   9.054   5.352
17358TIP3   OH251958   2.708   9.081   4.995
17358TIP3    H151959   2.722   9.095   4.901
17358TIP3    H251960   2.670   9.164   5.026
17359TIP3   OH251961   7.182   0.575   5.591
17359TIP3    H151962   7.200   0.549   5.501
17359TIP3    H251963   7.138   0.499   5.629
17360TIP3   OH251964   6.851   0.012   5.223
17360TIP3    H151965   6.771   0.001   5.275
17360TIP3    H251966   6.916   0.042   5.286
17361TIP3   OH251967   6.311   0.078   5.302
17361TIP3    H151968   6.223   0.085   5.266
17361TIP3    H251969   6.339  -0.011   5.280
17362TIP3   OH251970   6.539   0.092   4.921
17362TIP3    H151971   6.634   0.086   4.913
17362TIP3    H251972   6.507   0.092   4.831
17363TIP3   OH251973   7.322   0.076   5.450
17363TIP3    H151974   7.307   0.106   5.540
17363TIP3    H251975   7.245   0.024   5.429
17364TIP3   OH251976   6.400   0.085   4.687
17364TIP3    H151977   6.339   0.050   4.622
17364TIP3    H251978   6.447   0.154   4.641
17365TIP3   OH251979   6.854   0.251   5.394
17365TIP3    H151980   6.923   0.316   5.380
17365TIP3    H251981   6.872   0.215   5.481
17366TIP3   OH251982   3.145   9.071   5.223
17366TIP3    H151983   3.103   9.002   5.274
17366TIP3    H251984   3.165   9.031   5.139
17367TIP3   OH251985   6.879   0.221   5.665
17367TIP3    H151986   6.799   0.270   5.683
17367TIP3    H251987   6.949   0.276   5.699
17368TIP3   OH251988   7.063  -0.018   4.647
17368TIP3    H151989   6.971  -0.044   4.641
17368TIP3    H251990   7.063   0.075   4.628
17369TIP3   OH251991   7.151   0.258   4.636
17369TIP3    H151992   7.234   0.235   4.676
17369TIP3    H251993   7.173   0.279   4.545
17370TIP3   OH251994   6.961   0.736   6.071
17370TIP3    H151995   6.914   0.755   5.989
17370TIP3    H251996   7.038   0.687   6.043
17371TIP3   OH251997   7.671   0.359   4.553
17371TIP3    H151998   7.597   0.333   4.498
17371TIP3    H251999   7.635   0.425   4.612
17372TIP3   OH252000   6.412   0.085   6.041
17372TIP3    H152001   6.316   0.086   6.042
17372TIP3    H252002   6.436   0.018   6.105
17373TIP3   OH252003   7.237   0.175   5.695
17373TIP3    H152004   7.319   0.209   5.730
17373TIP3    H252005   7.218   0.098   5.750
17374TIP3   OH252006   3.864   9.153   4.902
17374TIP3    H152007   3.839   9.176   4.812
17374TIP3    H252008   3.908   9.232   4.935
17375TIP3   OH252009   6.816   0.074   4.954
17375TIP3    H152010   6.879   0.141   4.925
17375TIP3    H252011   6.826   0.071   5.049
17376TIP3   OH252012   7.072   0.391   5.777
17376TIP3    H152013   7.086   0.433   5.862
17376TIP3    H252014   7.132   0.316   5.776
17377TIP3   OH252015   3.680   9.046   5.073
17377TIP3    H152016   3.653   9.122   5.125
17377TIP3    H252017   3.749   9.079   5.016
17378TIP3   OH252018   3.170   9.066   4.869
17378TIP3    H152019   3.163   9.157   4.901
17378TIP3    H252020   3.263   9.046   4.875
17379TIP3   OH252021   7.709   0.323   5.739
17379TIP3    H152022   7.621   0.309   5.775
17379TIP3    H252023   7.709   0.275   5.657
17380TIP3   OH252024   7.395   0.416   5.088
17380TIP3    H152025   7.333   0.365   5.141
17380TIP3    H252026   7.449   0.463   5.152
17381TIP3   OH252027   2.665   9.188   4.753
17381TIP3    H152028   2.715   9.269   4.765
17381TIP3    H252029   2.653   9.182   4.658
17382TIP3   OH252030   3.116   9.001   5.607
17382TIP3    H152031   3.086   8.964   5.524
17382TIP3    H252032   3.116   8.926   5.667
17383TIP3   OH252033   6.410   0.627   6.237
17383TIP3    H152034   6.485   0.569   6.250
17383TIP3    H252035   6.403   0.676   6.319
17384TIP3   OH252036   6.785   0.496   5.901
17384TIP3    H152037   6.740   0.446   5.833
17384TIP3    H252038   6.823   0.571   5.855
17385TIP3   OH252039   6.504   0.310   4.576
17385TIP3    H152040   6.508   0.320   4.481
17385TIP3    H252041   6.595   0.313   4.605
17386TIP3   OH252042   6.808   0.273   6.077
17386TIP3    H152043   6.796   0.202   6.014
17386TIP3    H252044   6.794   0.353   6.026
17387TIP3   OH252045   6.805   0.079   5.883
17387TIP3    H152046   6.839   0.115   5.801
17387TIP3    H252047   6.714   0.057   5.863
17388TIP3   OH252048   7.420   0.561   6.220
17388TIP3    H152049   7.403   0.492   6.156
17388TIP3    H252050   7.503   0.600   6.193
17389TIP3   OH252051   6.597   0.433   6.267
17389TIP3    H152052   6.596   0.337   6.268
17389TIP3    H252053   6.686   0.456   6.240
17390TIP3   OH252054   3.686   9.102   5.941
17390TIP3    H152055   3.637   9.182   5.922
17390TIP3    H252056   3.623   9.031   5.926
17391TIP3   OH252057   7.086   0.293   6.090
17391TIP3    H152058   7.084   0.349   6.167
17391TIP3    H252059   6.996   0.266   6.077
17392TIP3   OH252060   7.352   0.350   6.052
17392TIP3    H152061   7.268   0.306   6.068
17392TIP3    H252062   7.415   0.300   6.104
17393TIP3   OH252063   7.568   0.264   6.196
17393TIP3    H152064   7.581   0.169   6.195
17393TIP3    H252065   7.562   0.286   6.289
17394TIP3   OH252066   6.512   0.177   6.352
17394TIP3    H152067   6.515   0.096   6.300
17394TIP3    H252068   6.568   0.158   6.428
17395TIP3   OH252069   3.738   9.105   6.208
17395TIP3    H152070   3.811   9.043   6.207
17395TIP3    H252071   3.709   9.111   6.117
17396TIP3   OH252072   7.096   0.076   6.358
17396TIP3    H152073   7.073   0.003   6.301
17396TIP3    H252074   7.020   0.133   6.354
17397TIP3   OH252075   7.461   0.279   4.402
17397TIP3    H152076   7.425   0.275   4.313
17397TIP3    H252077   7.445   0.192   4.438
17398TIP3   OH252078   7.402   0.667   4.908
17398TIP3    H152079   7.383   0.578   4.937
17398TIP3    H252080   7.492   0.684   4.939
17399TIP3   OH252081   7.947   0.877   5.736
17399TIP3    H152082   7.868   0.838   5.699
17399TIP3    H252083   8.016   0.857   5.674
17400TIP3   OH252084   4.093   9.201   4.313
17400TIP3    H152085   4.168   9.177   4.368
17400TIP3    H252086   4.020   9.151   4.349
17401TIP3   OH252087   7.406   0.185   4.728
17401TIP3    H152088   7.463   0.110   4.743
17401TIP3    H252089   7.458   0.260   4.755
17402TIP3   OH252090   7.584   0.295   5.298
17402TIP3    H152091   7.633   0.312   5.217
17402TIP3    H252092   7.628   0.349   5.364
17403TIP3   OH252093   7.717   0.497   5.447
17403TIP3    H152094   7.636   0.541   5.423
17403TIP3    H252095   7.779   0.522   5.378
17404TIP3   OH252096   6.238   0.264   6.301
17404TIP3    H152097   6.330   0.266   6.272
17404TIP3    H252098   6.224   0.173   6.328
17405TIP3   OH252099   8.102   0.172   6.044
17405TIP3    H152100   8.167   0.107   6.015
17405TIP3    H252101   8.066   0.207   5.963
17406TIP3   OH252102   4.284   9.203   4.815
17406TIP3    H152103   4.330   9.197   4.898
17406TIP3    H252104   4.220   9.132   4.817
17407TIP3   OH252105   2.958   9.214   5.696
17407TIP3    H152106   2.989   9.132   5.660
17407TIP3    H252107   3.020   9.280   5.664
17408TIP3   OH252108   6.024   0.243   5.754
17408TIP3    H152109   6.103   0.241   5.701
17408TIP3    H252110   5.962   0.296   5.704
17409TIP3   OH252111   7.954   0.249   5.829
17409TIP3    H152112   7.868   0.289   5.820
17409TIP3    H252113   7.946   0.165   5.785
17410TIP3   OH252114   4.323   9.154   4.455
17410TIP3    H152115   4.364   9.089   4.398
17410TIP3    H252116   4.393   9.214   4.478
17411TIP3   OH252117   2.763   8.937   5.212
17411TIP3    H152118   2.676   8.926   5.251
17411TIP3    H252119   2.750   8.998   5.140
17412TIP3   OH252120   2.975   9.055   6.042
17412TIP3    H152121   2.915   9.027   6.112
17412TIP3    H252122   2.918   9.092   5.975
17413TIP3   OH252123   4.601   9.239   5.747
17413TIP3    H152124   4.512   9.221   5.719
17413TIP3    H252125   4.646   9.154   5.742
17414TIP3   OH252126   3.818   9.181   5.390
17414TIP3    H152127   3.763   9.113   5.429
17414TIP3    H252128   3.874   9.134   5.328
17415TIP3   OH252129   4.318   9.094   5.257
17415TIP3    H152130   4.366   9.140   5.188
17415TIP3    H252131   4.233   9.138   5.259
17416TIP3   OH252132   4.452   9.176   5.035
17416TIP3    H152133   4.516   9.109   5.010
17416TIP3    H252134   4.489   9.257   5.000
17417TIP3   OH252135   3.041   8.870   5.373
17417TIP3    H152136   2.953   8.835   5.385
17417TIP3    H252137   3.098   8.792   5.374
17418TIP3   OH252138   2.849   8.767   5.005
17418TIP3    H152139   2.879   8.821   4.932
17418TIP3    H252140   2.829   8.829   5.074
17419TIP3   OH252141   3.516   8.938   5.275
17419TIP3    H152142   3.576   8.965   5.206
17419TIP3    H252143   3.561   8.962   5.357
17420TIP3   OH252144   4.013   9.056   5.240
17420TIP3    H152145   4.046   9.022   5.157
17420TIP3    H252146   4.028   8.985   5.302
17421TIP3   OH252147   4.086   9.009   4.820
17421TIP3    H152148   4.007   9.057   4.845
17421TIP3    H252149   4.076   8.923   4.858
17422TIP3   OH252150   2.960   8.913   4.777
17422TIP3    H152151   3.007   8.853   4.719
17422TIP3    H252152   3.028   8.967   4.816
17423TIP3   OH252153   3.443   9.067   4.896
17423TIP3    H152154   3.484   8.992   4.939
17423TIP3    H252155   3.490   9.143   4.931
17424TIP3   OH252156   3.271   9.158   6.247
17424TIP3    H152157   3.240   9.096   6.312
17424TIP3    H252158   3.364   9.170   6.268
17425TIP3   OH252159   3.516   9.169   6.371
17425TIP3    H152160   3.596   9.149   6.322
17425TIP3    H252161   3.515   9.104   6.441
17426TIP3   OH252162   4.352   9.236   6.166
17426TIP3    H152163   4.372   9.210   6.256
17426TIP3    H252164   4.438   9.241   6.124
17427TIP3   OH252165   7.855   0.401   4.766
17427TIP3    H152166   7.808   0.483   4.783
17427TIP3    H252167   7.807   0.360   4.694
17428TIP3   OH252168   9.652   0.479   4.855
17428TIP3    H152169   9.677   0.561   4.897
17428TIP3    H252170   9.689   0.484   4.767
17429TIP3   OH252171   9.041   0.642   4.848
17429TIP3    H152172   9.069   0.561   4.891
17429TIP3    H252173   9.011   0.615   4.762
17430TIP3   OH252174   8.402   0.225   4.868
17430TIP3    H152175   8.400   0.300   4.809
17430TIP3    H252176   8.348   0.159   4.825
17431TIP3   OH252177   9.107   0.380   4.462
17431TIP3    H152178   9.166   0.375   4.536
17431TIP3    H252179   9.156   0.427   4.395
17432TIP3   OH252180   8.004   0.486   4.996
17432TIP3    H152181   8.085   0.436   4.993
17432TIP3    H252182   7.954   0.457   4.920
17433TIP3   OH252183   8.457   0.776   4.785
17433TIP3    H152184   8.518   0.838   4.744
17433TIP3    H252185   8.424   0.723   4.713
17434TIP3   OH252186   9.737   0.691   5.027
17434TIP3    H152187   9.650   0.727   5.007
17434TIP3    H252188   9.761   0.733   5.110
17435TIP3   OH252189   8.342   0.263   5.295
17435TIP3    H152190   8.289   0.294   5.222
17435TIP3    H252191   8.291   0.285   5.373
17436TIP3   OH252192   9.248   0.401   4.694
17436TIP3    H152193   9.200   0.392   4.777
17436TIP3    H252194   9.299   0.481   4.704
17437TIP3   OH252195   8.237   0.352   5.059
17437TIP3    H152196   8.278   0.438   5.066
17437TIP3    H252197   8.291   0.305   4.995
17438TIP3   OH252198   9.444   0.368   5.021
17438TIP3    H152199   9.356   0.385   4.988
17438TIP3    H252200   9.502   0.397   4.950
17439TIP3   OH252201   5.429   9.237   5.012
17439TIP3    H152202   5.426   9.147   5.044
17439TIP3    H252203   5.353   9.280   5.051
17440TIP3   OH252204   8.545   0.584   4.085
17440TIP3    H152205   8.557   0.635   4.166
17440TIP3    H252206   8.622   0.605   4.032
17441TIP3   OH252207   9.327   0.979   5.021
17441TIP3    H152208   9.317   1.072   5.041
17441TIP3    H252209   9.237   0.946   5.016
17442TIP3   OH252210   6.063   9.204   4.106
17442TIP3    H152211   5.989   9.222   4.164
17442TIP3    H252212   6.074   9.284   4.055
17443TIP3   OH252213   9.473   0.879   5.327
17443TIP3    H152214   9.386   0.893   5.290
17443TIP3    H252215   9.498   0.791   5.300
17444TIP3   OH252216   8.457   0.067   5.141
17444TIP3    H152217   8.375   0.044   5.097
17444TIP3    H252218   8.436   0.147   5.189
17445TIP3   OH252219   9.004   0.216   5.351
17445TIP3    H152220   9.077   0.192   5.409
17445TIP3    H252221   8.926   0.182   5.394
17446TIP3   OH252222   9.245   0.618   5.290
17446TIP3    H152223   9.206   0.594   5.374
17446TIP3    H252224   9.223   0.711   5.279
17447TIP3   OH252225   8.606   0.139   4.118
17447TIP3    H152226   8.579   0.135   4.210
17447TIP3    H252227   8.583   0.053   4.082
17448TIP3   OH252228   8.322   0.604   5.116
17448TIP3    H152229   8.302   0.598   5.209
17448TIP3    H252230   8.304   0.695   5.093
17449TIP3   OH252231   8.372   0.413   4.679
17449TIP3    H152232   8.282   0.417   4.711
17449TIP3    H252233   8.363   0.398   4.585
17450TIP3   OH252234   8.798   0.570   4.378
17450TIP3    H152235   8.796   0.651   4.429
17450TIP3    H252236   8.824   0.597   4.290
17451TIP3   OH252237   9.009   0.870   5.506
17451TIP3    H152238   8.988   0.824   5.587
17451TIP3    H252239   9.096   0.839   5.482
17452TIP3   OH252240   8.936   0.524   4.626
17452TIP3    H152241   8.870   0.540   4.558
17452TIP3    H252242   9.001   0.468   4.583
17453TIP3   OH252243   8.266   0.590   5.388
17453TIP3    H152244   8.216   0.646   5.447
17453TIP3    H252245   8.268   0.505   5.432
17454TIP3   OH252246   8.263   0.069   4.073
17454TIP3    H152247   8.241   0.089   4.164
17454TIP3    H252248   8.229   0.144   4.024
17455TIP3   OH252249   7.800   0.161   4.910
17455TIP3    H152250   7.760   0.224   4.970
17455TIP3    H252251   7.853   0.214   4.851
17456TIP3   OH252252   7.783   0.118   4.490
17456TIP3    H152253   7.786   0.133   4.395
17456TIP3    H252254   7.752   0.201   4.526
17457TIP3   OH252255   9.077   0.841   5.036
17457TIP3    H152256   9.084   0.781   4.962
17457TIP3    H252257   8.994   0.819   5.077
17458TIP3   OH252258   8.646   0.253   4.713
17458TIP3    H152259   8.574   0.225   4.769
17458TIP3    H252260   8.683   0.330   4.758
17459TIP3   OH252261   8.127   0.347   4.774
17459TIP3    H152262   8.037   0.362   4.744
17459TIP3    H252263   8.145   0.256   4.749
17460TIP3   OH252264   8.369   0.386   4.409
17460TIP3    H152265   8.463   0.372   4.399
17460TIP3    H252266   8.333   0.368   4.322
17461TIP3   OH252267   9.119   0.391   4.942
17461TIP3    H152268   9.097   0.412   5.033
17461TIP3    H252269   9.054   0.325   4.917
17462TIP3   OH252270   8.192   0.321   4.213
17462TIP3    H152271   8.102   0.344   4.233
17462TIP3    H252272   8.202   0.338   4.120
17463TIP3   OH252273   8.716   0.486   4.827
17463TIP3    H152274   8.797   0.535   4.810
17463TIP3    H252275   8.678   0.530   4.903
17464TIP3   OH252276   8.210   0.094   4.705
17464TIP3    H152277   8.171   0.022   4.755
17464TIP3    H252278   8.222   0.058   4.617
17465TIP3   OH252279   8.686   0.470   5.175
17465TIP3    H152280   8.641   0.532   5.117
17465TIP3    H252281   8.747   0.525   5.224
17466TIP3   OH252282   8.871   0.246   4.125
17466TIP3    H152283   8.776   0.240   4.121
17466TIP3    H252284   8.890   0.338   4.105
17467TIP3   OH252285   9.004   0.490   4.074
17467TIP3    H152286   9.073   0.487   4.140
17467TIP3    H252287   9.050   0.506   3.992
17468TIP3   OH252288   8.761   0.985   5.560
17468TIP3    H152289   8.712   0.984   5.478
17468TIP3    H252290   8.850   0.963   5.535
17469TIP3   OH252291   9.359   0.614   4.019
17469TIP3    H152292   9.298   0.585   3.952
17469TIP3    H252293   9.342   0.707   4.028
17470TIP3   OH252294   8.218   0.341   5.524
17470TIP3    H152295   8.124   0.356   5.535
17470TIP3    H252296   8.241   0.279   5.593
17471TIP3   OH252297   9.052   0.440   5.201
17471TIP3    H152298   9.131   0.480   5.240
17471TIP3    H252299   9.037   0.361   5.253
17472TIP3   OH252300   8.935   0.181   4.385
17472TIP3    H152301   8.910   0.207   4.296
17472TIP3    H252302   8.987   0.255   4.418
17473TIP3   OH252303   8.642   0.338   4.441
17473TIP3    H152304   8.702   0.411   4.422
17473TIP3    H252305   8.645   0.329   4.536
17474TIP3   OH252306   8.874   0.617   5.314
17474TIP3    H152307   8.879   0.609   5.409
17474TIP3    H252308   8.940   0.556   5.281
17475TIP3   OH252309   8.756   0.062   4.556
17475TIP3    H152310   8.727   0.135   4.611
17475TIP3    H252311   8.822   0.100   4.498
17476TIP3   OH252312   8.239   0.086   4.364
17476TIP3    H152313   8.222   0.179   4.350
17476TIP3    H252314   8.334   0.081   4.374
17477TIP3   OH252315   9.505   0.618   5.228
17477TIP3    H152316   9.414   0.606   5.255
17477TIP3    H252317   9.507   0.589   5.137
17478TIP3   OH252318   9.178   0.740   4.553
17478TIP3    H152319   9.133   0.808   4.604
17478TIP3    H252320   9.232   0.694   4.617
17479TIP3   OH252321   7.726   0.208   4.238
17479TIP3    H152322   7.664   0.281   4.240
17479TIP3    H252323   7.697   0.154   4.165
17480TIP3   OH252324   4.912   9.244   5.097
17480TIP3    H152325   4.886   9.210   5.012
17480TIP3    H252326   4.913   9.167   5.154
17481TIP3   OH252327   8.296   0.926   5.738
17481TIP3    H152328   8.315   0.833   5.746
17481TIP3    H252329   8.221   0.940   5.796
17482TIP3   OH252330   8.572   0.733   5.338
17482TIP3    H152331   8.536   0.784   5.411
17482TIP3    H252332   8.628   0.795   5.291
17483TIP3   OH252333   8.275   0.577   4.049
17483TIP3    H152334   8.272   0.582   3.953
17483TIP3    H252335   8.368   0.584   4.070
17484TIP3   OH252336   8.593   0.535   5.532
17484TIP3    H152337   8.587   0.449   5.492
17484TIP3    H252338   8.581   0.596   5.459
17485TIP3   OH252339   8.595   0.315   5.371
17485TIP3    H152340   8.630   0.362   5.295
17485TIP3    H252341   8.505   0.294   5.347
17486TIP3   OH252342   9.305   0.830   5.564
17486TIP3    H152343   9.320   0.739   5.589
17486TIP3    H252344   9.370   0.847   5.496
17487TIP3   OH252345   8.383   0.668   5.737
17487TIP3    H152346   8.359   0.579   5.763
17487TIP3    H252347   8.465   0.659   5.689
17488TIP3   OH252348   8.758   0.113   5.435
17488TIP3    H152349   8.706   0.190   5.412
17488TIP3    H252350   8.699   0.039   5.419
17489TIP3   OH252351   8.861   0.565   5.587
17489TIP3    H152352   8.863   0.620   5.665
17489TIP3    H252353   8.769   0.542   5.575
17490TIP3   OH252354   9.123   0.550   5.515
17490TIP3    H152355   9.034   0.539   5.550
17490TIP3    H252356   9.180   0.533   5.589
17491TIP3   OH252357   9.370   0.563   5.660
17491TIP3    H152358   9.379   0.468   5.659
17491TIP3    H252359   9.358   0.586   5.753
17492TIP3   OH252360   8.306   0.425   5.838
17492TIP3    H152361   8.318   0.341   5.793
17492TIP3    H252362   8.359   0.418   5.917
17493TIP3   OH252363   8.810   0.128   5.704
17493TIP3    H152364   8.884   0.069   5.698
17493TIP3    H252365   8.776   0.135   5.615
17494TIP3   OH252366   8.920   0.343   5.839
17494TIP3    H152367   8.894   0.269   5.784
17494TIP3    H252368   8.842   0.400   5.841
17495TIP3   OH252369   9.180   0.520   3.837
17495TIP3    H152370   9.207   0.554   3.752
17495TIP3    H252371   9.165   0.426   3.822
17496TIP3   OH252372   9.349   0.726   4.334
17496TIP3    H152373   9.306   0.642   4.320
17496TIP3    H252374   9.301   0.766   4.406
17497TIP3   OH252375   9.717   1.018   5.328
17497TIP3    H152376   9.625   0.999   5.314
17497TIP3    H252377   9.762   0.937   5.304
17498TIP3   OH252378   9.146   0.251   3.798
17498TIP3    H152379   9.221   0.215   3.846
17498TIP3    H252380   9.073   0.195   3.822
17499TIP3   OH252381   9.243   0.481   4.234
17499TIP3    H152382   9.284   0.395   4.247
17499TIP3    H252383   9.293   0.521   4.163
17500TIP3   OH252384   9.374   0.642   4.733
17500TIP3    H152385   9.451   0.677   4.687
17500TIP3    H252386   9.385   0.669   4.824
17501TIP3   OH252387   9.497   0.783   4.944
17501TIP3    H152388   9.441   0.853   4.977
17501TIP3    H252389   9.528   0.815   4.859
17502TIP3   OH252390   8.047   0.505   5.804
17502TIP3    H152391   8.140   0.490   5.785
17502TIP3    H252392   8.013   0.418   5.825
17503TIP3   OH252393   0.091   0.444   5.527
17503TIP3    H152394   0.157   0.383   5.495
17503TIP3    H252395   0.056   0.485   5.448
17504TIP3   OH252396   9.349   0.233   4.285
17504TIP3    H152397   9.392   0.224   4.371
17504TIP3    H252398   9.281   0.166   4.286
17505TIP3   OH252399   8.013   0.223   5.162
17505TIP3    H152400   8.049   0.136   5.144
17505TIP3    H252401   8.080   0.283   5.128
17506TIP3   OH252402   7.889   0.553   5.239
17506TIP3    H152403   7.958   0.526   5.179
17506TIP3    H252404   7.828   0.603   5.186
17507TIP3   OH252405   9.747   0.535   5.321
17507TIP3    H152406   9.664   0.582   5.329
17507TIP3    H252407   9.727   0.459   5.267
17508TIP3   OH252408   9.376   0.172   3.929
17508TIP3    H152409   9.426   0.109   3.877
17508TIP3    H252410   9.432   0.249   3.935
17509TIP3   OH252411   4.543   9.163   4.677
17509TIP3    H152412   4.469   9.175   4.737
17509TIP3    H252413   4.547   9.244   4.627
17510TIP3   OH252414   8.031   0.039   5.519
17510TIP3    H152415   7.978   0.028   5.598
17510TIP3    H252416   7.977   0.092   5.461
17511TIP3   OH252417   9.650   0.304   5.212
17511TIP3    H152418   9.568   0.315   5.163
17511TIP3    H252419   9.668   0.210   5.208
17512TIP3   OH252420   8.928   0.202   4.890
17512TIP3    H152421   8.845   0.155   4.903
17512TIP3    H252422   8.972   0.154   4.820
17513TIP3   OH252423   9.373   0.127   4.744
17513TIP3    H152424   9.411   0.180   4.674
17513TIP3    H252425   9.281   0.150   4.744
17514TIP3   OH252426   9.499   0.207   4.514
17514TIP3    H152427   9.568   0.146   4.488
17514TIP3    H252428   9.536   0.294   4.498
17515TIP3   OH252429   4.839   9.130   4.855
17515TIP3    H152430   4.750   9.098   4.865
17515TIP3    H252431   4.894   9.051   4.855
17516TIP3   OH252432   4.651   9.006   4.480
17516TIP3    H152433   4.683   9.065   4.412
17516TIP3    H252434   4.618   9.063   4.549
17517TIP3   OH252435   5.324   9.184   4.757
17517TIP3    H152436   5.382   9.222   4.691
17517TIP3    H252437   5.362   9.211   4.841
17518TIP3   OH252438   9.093   0.069   4.714
17518TIP3    H152439   9.120   0.027   4.632
17518TIP3    H252440   9.098  -0.001   4.779
17519TIP3   OH252441   9.152   0.035   4.301
17519TIP3    H152442   9.074   0.084   4.328
17519TIP3    H252443   9.142  -0.051   4.342
17520TIP3   OH252444   4.768   9.163   4.272
17520TIP3    H152445   4.817   9.109   4.209
17520TIP3    H252446   4.835   9.217   4.314
17521TIP3   OH252447   8.516   0.101   4.376
17521TIP3    H152448   8.552   0.023   4.416
17521TIP3    H252449   8.567   0.173   4.413
17522TIP3   OH252450   8.333   0.169   5.734
17522TIP3    H152451   8.298   0.105   5.797
17522TIP3    H252452   8.425   0.178   5.757
17523TIP3   OH252453   8.578   0.188   5.859
17523TIP3    H152454   8.660   0.173   5.813
17523TIP3    H252455   8.574   0.118   5.925
17524TIP3   OH252456   9.414   0.291   5.655
17524TIP3    H152457   9.436   0.262   5.744
17524TIP3    H252458   9.497   0.287   5.608
17525TIP3   OH252459   9.579   0.670   4.191
17525TIP3    H152460   9.519   0.704   4.258
17525TIP3    H252461   9.522   0.644   4.119
17526TIP3   OH252462   1.036   0.933   4.335
17526TIP3    H152463   1.032   0.837   4.340
17526TIP3    H252464   1.014   0.953   4.244
17527TIP3   OH252465   0.365   0.569   4.311
17527TIP3    H152466   0.344   0.646   4.259
17527TIP3    H252467   0.307   0.500   4.277
17528TIP3   OH252468   1.081   0.670   3.951
17528TIP3    H152469   1.135   0.670   4.030
17528TIP3    H252470   1.139   0.639   3.882
17529TIP3   OH252471  -0.014   0.763   4.485
17529TIP3    H152472   0.076   0.737   4.506
17529TIP3    H252473  -0.023   0.745   4.392
17530TIP3   OH252474   0.443   0.935   4.333
17530TIP3    H152475   0.535   0.930   4.307
17530TIP3    H252476   0.395   0.895   4.261
17531TIP3   OH252477   0.339   0.544   4.775
17531TIP3    H152478   0.292   0.583   4.701
17531TIP3    H252479   0.286   0.568   4.852
17532TIP3   OH252480   1.257   0.673   4.159
17532TIP3    H152481   1.192   0.674   4.229
17532TIP3    H252482   1.308   0.753   4.172
17533TIP3   OH252483   0.238   0.655   4.544
17533TIP3    H152484   0.283   0.737   4.562
17533TIP3    H252485   0.284   0.617   4.469
17534TIP3   OH252486   1.387   0.587   4.403
17534TIP3    H152487   1.339   0.669   4.405
17534TIP3    H252488   1.405   0.571   4.311
17535TIP3   OH252489   0.658   0.253   4.469
17535TIP3    H152490   0.649   0.161   4.496
17535TIP3    H252491   0.587   0.297   4.515
17536TIP3   OH252492   0.612   0.795   3.483
17536TIP3    H152493   0.627   0.887   3.460
17536TIP3    H252494   0.665   0.746   3.421
17537TIP3   OH252495   1.311   0.236   3.597
17537TIP3    H152496   1.235   0.239   3.655
17537TIP3    H252497   1.308   0.318   3.548
17538TIP3   OH252498   0.444   0.337   4.626
17538TIP3    H152499   0.359   0.310   4.590
17538TIP3    H252500   0.425   0.418   4.673
17539TIP3   OH252501   0.939   0.319   4.837
17539TIP3    H152502   0.997   0.392   4.860
17539TIP3    H252503   0.859   0.335   4.888
17540TIP3   OH252504   1.224   0.799   4.795
17540TIP3    H152505   1.161   0.782   4.865
17540TIP3    H252506   1.184   0.867   4.742
17541TIP3   OH252507   0.592   0.380   3.607
17541TIP3    H152508   0.559   0.392   3.696
17541TIP3    H252509   0.560   0.293   3.581
17542TIP3   OH252510   0.351   0.900   4.591
17542TIP3    H152511   0.281   0.945   4.638
17542TIP3    H252512   0.356   0.945   4.507
17543TIP3   OH252513   0.285   0.779   4.154
17543TIP3    H152514   0.195   0.763   4.182
17543TIP3    H252515   0.289   0.745   4.065
17544TIP3   OH252516   0.754   0.850   3.852
17544TIP3    H152517   0.697   0.915   3.810
17544TIP3    H252518   0.816   0.825   3.784
17545TIP3   OH252519   0.973   1.170   5.163
17545TIP3    H152520   0.921   1.120   5.101
17545TIP3    H252521   1.057   1.184   5.119
17546TIP3   OH252522   0.917   0.872   4.075
17546TIP3    H152523   0.849   0.876   4.007
17546TIP3    H252524   0.977   0.803   4.045
17547TIP3   OH252525   0.202   0.871   4.854
17547TIP3    H152526   0.119   0.916   4.873
17547TIP3    H252527   0.192   0.784   4.894
17548TIP3   OH252528   0.263   0.375   3.577
17548TIP3    H152529   0.254   0.388   3.672
17548TIP3    H252530   0.193   0.427   3.539
17549TIP3   OH252531   9.625   0.431   4.437
17549TIP3    H152532   9.691   0.469   4.495
17549TIP3    H252533   9.666   0.430   4.350
17550TIP3   OH252534   9.525   0.405   3.941
17550TIP3    H152535   9.567   0.439   3.862
17550TIP3    H252536   9.471   0.477   3.972
17551TIP3   OH252537   0.974   1.163   4.472
17551TIP3    H152538   0.983   1.090   4.411
17551TIP3    H252539   0.896   1.142   4.523
17552TIP3   OH252540   0.630   0.590   4.214
17552TIP3    H152541   0.546   0.583   4.260
17552TIP3    H252542   0.696   0.579   4.282
17553TIP3   OH252543   0.048   0.656   4.228
17553TIP3    H152544  -0.044   0.660   4.202
17553TIP3    H252545   0.076   0.567   4.207
17554TIP3   OH252546   0.284   0.649   3.908
17554TIP3    H152547   0.375   0.665   3.882
17554TIP3    H252548   0.233   0.668   3.829
17555TIP3   OH252549   1.053   0.659   4.345
17555TIP3    H152550   1.085   0.651   4.434
17555TIP3    H252551   0.977   0.602   4.340
17556TIP3   OH252552   0.130   0.655   3.673
17556TIP3    H152553   0.087   0.606   3.603
17556TIP3    H252554   0.201   0.702   3.628
17557TIP3   OH252555   0.727   0.912   4.304
17557TIP3    H152556   0.781   0.894   4.228
17557TIP3    H252557   0.777   0.879   4.378
17558TIP3   OH252558   0.173   0.401   4.193
17558TIP3    H152559   0.146   0.324   4.243
17558TIP3    H252560   0.192   0.367   4.106
17559TIP3   OH252561   0.590   0.739   4.559
17559TIP3    H152562   0.521   0.798   4.530
17559TIP3    H252563   0.671   0.780   4.527
17560TIP3   OH252564   0.825   0.519   3.612
17560TIP3    H152565   0.738   0.480   3.608
17560TIP3    H252566   0.809   0.613   3.601
17561TIP3   OH252567   0.929   0.792   3.644
17561TIP3    H152568   1.001   0.730   3.650
17561TIP3    H252569   0.958   0.857   3.581
17562TIP3   OH252570   0.578   1.227   5.122
17562TIP3    H152571   0.530   1.264   5.048
17562TIP3    H252572   0.631   1.157   5.084
17563TIP3   OH252573   0.199   0.625   4.993
17563TIP3    H152574   0.105   0.633   5.009
17563TIP3    H252575   0.232   0.576   5.069
17564TIP3   OH252576   1.138   0.623   4.601
17564TIP3    H152577   1.201   0.685   4.638
17564TIP3    H252578   1.079   0.603   4.674
17565TIP3   OH252579   0.923   0.459   3.864
17565TIP3    H152580   0.891   0.480   3.776
17565TIP3    H252581   0.969   0.538   3.893
17566TIP3   OH252582   0.576   0.655   3.947
17566TIP3    H152583   0.638   0.722   3.917
17566TIP3    H252584   0.590   0.650   4.041
17567TIP3   OH252585   0.823   0.904   4.814
17567TIP3    H152586   0.746   0.921   4.759
17567TIP3    H252587   0.846   0.813   4.796
17568TIP3   OH252588   0.743   0.390   4.058
17568TIP3    H152589   0.714   0.465   4.109
17568TIP3    H252590   0.806   0.426   3.996
17569TIP3   OH252591   0.242   0.376   3.858
17569TIP3    H152592   0.230   0.467   3.885
17569TIP3    H252593   0.336   0.361   3.865
17570TIP3   OH252594   1.521   0.828   4.739
17570TIP3    H152595   1.455   0.896   4.726
17570TIP3    H252596   1.542   0.798   4.650
17571TIP3   OH252597   9.601   0.552   3.722
17571TIP3    H152598   9.674   0.612   3.717
17571TIP3    H252599   9.543   0.578   3.651
17572TIP3   OH252600   0.181   0.272   4.575
17572TIP3    H152601   0.156   0.243   4.487
17572TIP3    H252602   0.174   0.193   4.628
17573TIP3   OH252603   0.187   1.144   5.212
17573TIP3    H152604   0.106   1.096   5.229
17573TIP3    H252605   0.164   1.210   5.146
17574TIP3   OH252606   0.562   0.988   4.746
17574TIP3    H152607   0.512   1.041   4.807
17574TIP3    H252608   0.495   0.941   4.695
17575TIP3   OH252609   0.339   0.756   3.533
17575TIP3    H152610   0.305   0.757   3.443
17575TIP3    H252611   0.433   0.766   3.523
17576TIP3   OH252612   0.612   0.753   5.022
17576TIP3    H152613   0.602   0.708   4.938
17576TIP3    H252614   0.543   0.819   5.022
17577TIP3   OH252615   0.601   0.601   4.790
17577TIP3    H152616   0.608   0.649   4.708
17577TIP3    H252617   0.508   0.578   4.797
17578TIP3   OH252618   0.455   0.934   5.283
17578TIP3    H152619   0.381   0.880   5.310
17578TIP3    H252620   0.439   0.954   5.191
17579TIP3   OH252621   0.696   0.389   4.938
17579TIP3    H152622   0.661   0.466   4.893
17579TIP3    H252623   0.634   0.319   4.919
17580TIP3   OH252624   0.824   0.807   5.174
17580TIP3    H152625   0.781   0.802   5.260
17580TIP3    H252626   0.760   0.772   5.112
17581TIP3   OH252627   1.024   0.781   4.995
17581TIP3    H152628   0.953   0.790   5.059
17581TIP3    H252629   1.097   0.744   5.046
17582TIP3   OH252630   1.438   0.855   5.253
17582TIP3    H152631   1.401   0.771   5.278
17582TIP3    H252632   1.387   0.920   5.302
17583TIP3   OH252633   0.293   0.718   5.344
17583TIP3    H152634   0.316   0.646   5.285
17583TIP3    H252635   0.334   0.694   5.428
17584TIP3   OH252636   0.786   0.396   5.197
17584TIP3    H152637   0.873   0.358   5.189
17584TIP3    H252638   0.753   0.398   5.108
17585TIP3   OH252639   0.837   0.588   5.407
17585TIP3    H152640   0.842   0.537   5.326
17585TIP3    H252641   0.767   0.651   5.391
17586TIP3   OH252642   1.096   0.544   3.321
17586TIP3    H152643   1.140   0.513   3.242
17586TIP3    H252644   1.023   0.483   3.333
17587TIP3   OH252645   0.043   0.786   5.265
17587TIP3    H152646   0.135   0.787   5.291
17587TIP3    H252647   0.009   0.704   5.300
17588TIP3   OH252648   1.262   0.522   3.811
17588TIP3    H152649   1.344   0.519   3.861
17588TIP3    H252650   1.234   0.430   3.805
17589TIP3   OH252651   0.023   0.489   4.630
17589TIP3    H152652   0.074   0.409   4.620
17589TIP3    H252653   0.081   0.559   4.602
17590TIP3   OH252654   9.596   0.816   4.680
17590TIP3    H152655   9.663   0.780   4.621
17590TIP3    H252656   9.576   0.902   4.644
17591TIP3   OH252657   9.607   0.259   4.159
17591TIP3    H152658   9.524   0.244   4.204
17591TIP3    H252659   9.585   0.319   4.087
17592TIP3   OH252660   9.822   0.309   4.988
17592TIP3    H152661   9.771   0.308   5.069
17592TIP3    H252662   9.770   0.362   4.927
17593TIP3   OH252663   1.760   0.639   4.763
17593TIP3    H152664   1.675   0.657   4.723
17593TIP3    H252665   1.773   0.545   4.749
17594TIP3   OH252666   0.846   0.466   4.350
17594TIP3    H152667   0.794   0.396   4.389
17594TIP3    H252668   0.915   0.421   4.300
17595TIP3   OH252669   1.347   0.363   4.170
17595TIP3    H152670   1.393   0.422   4.111
17595TIP3    H252671   1.260   0.402   4.180
17596TIP3   OH252672   1.493   0.495   3.972
17596TIP3    H152673   1.554   0.430   3.937
17596TIP3    H252674   1.540   0.534   4.045
17597TIP3   OH252675   0.107   0.170   4.331
17597TIP3    H152676   0.019   0.135   4.343
17597TIP3    H252677   0.163   0.093   4.327
17598TIP3   OH252678   9.733   0.072   3.994
17598TIP3    H152679   9.758   0.124   3.917
17598TIP3    H252680   9.697   0.135   4.055
17599TIP3   OH252681   0.582   0.199   4.183
17599TIP3    H152682   0.638   0.268   4.148
17599TIP3    H252683   0.585   0.210   4.278
17600TIP3   OH252684   1.066   0.363   4.205
17600TIP3    H152685   1.050   0.341   4.113
17600TIP3    H252686   1.062   0.280   4.251
17601TIP3   OH252687   1.122   0.277   3.795
17601TIP3    H152688   1.046   0.331   3.814
17601TIP3    H252689   1.103   0.193   3.836
17602TIP3   OH252690   0.035   0.210   3.762
17602TIP3    H152691   0.082   0.150   3.703
17602TIP3    H252692   0.103   0.265   3.800
17603TIP3   OH252693   0.517   0.399   3.873
17603TIP3    H152694   0.573   0.350   3.934
17603TIP3    H252695   0.533   0.491   3.894
17604TIP3   OH252696   0.313   0.466   5.206
17604TIP3    H152697   0.267   0.420   5.277
17604TIP3    H252698   0.405   0.465   5.234
17605TIP3   OH252699   0.552   0.448   5.334
17605TIP3    H152700   0.636   0.437   5.289
17605TIP3    H252701   0.561   0.395   5.414
17606TIP3   OH252702   1.559   0.513   5.199
17606TIP3    H152703   1.582   0.563   5.278
17606TIP3    H252704   1.630   0.534   5.137
17607TIP3   OH252705   6.100   5.740   0.878
17607TIP3    H152706   6.012   5.705   0.868
17607TIP3    H252707   6.141   5.728   0.792
17608TIP3   OH252708   6.015   6.231   0.838
17608TIP3    H152709   6.098   6.191   0.815
17608TIP3    H252710   5.956   6.157   0.853
17609TIP3   OH252711   5.703   5.849   0.903
17609TIP3    H152712   5.786   5.827   0.945
17609TIP3    H252713   5.725   5.862   0.811
17610TIP3   OH252714   7.371   5.711   1.183
17610TIP3    H152715   7.303   5.779   1.193
17610TIP3    H252716   7.337   5.655   1.114
17611TIP3   OH252717   7.790   6.089   1.191
17611TIP3    H152718   7.781   5.994   1.188
17611TIP3    H252719   7.722   6.121   1.131
17612TIP3   OH252720   7.386   6.343   1.202
17612TIP3    H152721   7.469   6.345   1.154
17612TIP3    H252722   7.407   6.382   1.287
17613TIP3   OH252723   7.333   5.948   0.988
17613TIP3    H152724   7.398   5.990   1.044
17613TIP3    H252725   7.252   5.948   1.040
17614TIP3   OH252726   7.603   6.328   1.034
17614TIP3    H152727   7.596   6.241   0.994
17614TIP3    H252728   7.682   6.366   0.996
17615TIP3   OH252729   7.597   6.090   0.921
17615TIP3    H152730   7.603   6.076   0.827
17615TIP3    H252731   7.610   6.003   0.959
17616TIP3   OH252732   7.233   5.602   0.963
17616TIP3    H152733   7.146   5.620   0.926
17616TIP3    H252734   7.294   5.647   0.905
17617TIP3   OH252735   7.327   5.296   0.519
17617TIP3    H152736   7.315   5.312   0.612
17617TIP3    H252737   7.324   5.201   0.511
17618TIP3   OH252738   7.650   5.664   0.886
17618TIP3    H152739   7.635   5.653   0.980
17618TIP3    H252740   7.719   5.601   0.866
17619TIP3   OH252741   7.564   5.454   0.686
17619TIP3    H152742   7.652   5.486   0.702
17619TIP3    H252743   7.540   5.492   0.601
17620TIP3   OH252744   7.176   6.183   1.075
17620TIP3    H152745   7.238   6.248   1.110
17620TIP3    H252746   7.191   6.184   0.981
17621TIP3   OH252747   7.842   6.079   0.233
17621TIP3    H152748   7.838   6.173   0.214
17621TIP3    H252749   7.931   6.054   0.209
17622TIP3   OH252750   7.103   6.332   0.684
17622TIP3    H152751   7.081   6.319   0.591
17622TIP3    H252752   7.080   6.249   0.725
17623TIP3   OH252753   7.339   6.314   0.352
17623TIP3    H152754   7.396   6.243   0.323
17623TIP3    H252755   7.367   6.331   0.442
17624TIP3   OH252756   7.393   6.364   0.615
17624TIP3    H152757   7.317   6.368   0.674
17624TIP3    H252758   7.469   6.371   0.672
17625TIP3   OH252759   7.571   5.574   0.436
17625TIP3    H152760   7.491   5.559   0.384
17625TIP3    H252761   7.640   5.583   0.371
17626TIP3   OH252762   7.418   5.151   0.957
17626TIP3    H152763   7.469   5.228   0.982
17626TIP3    H252764   7.438   5.139   0.864
17627TIP3   OH252765   6.752   5.141   0.812
17627TIP3    H152766   6.791   5.087   0.881
17627TIP3    H252767   6.792   5.227   0.823
17628TIP3   OH252768   6.970   5.664   0.904
17628TIP3    H152769   6.969   5.637   0.813
17628TIP3    H252770   6.885   5.636   0.939
17629TIP3   OH252771   7.596   5.183   0.736
17629TIP3    H152772   7.646   5.177   0.817
17629TIP3    H252773   7.583   5.276   0.722
17630TIP3   OH252774   7.327   5.858   0.539
17630TIP3    H152775   7.295   5.946   0.518
17630TIP3    H252776   7.287   5.838   0.623
17631TIP3   OH252777   8.079   5.261   0.507
17631TIP3    H152778   8.017   5.258   0.434
17631TIP3    H252779   8.071   5.350   0.542
17632TIP3   OH252780   7.797   6.114   0.502
17632TIP3    H152781   7.851   6.045   0.541
17632TIP3    H252782   7.803   6.097   0.408
17633TIP3   OH252783   6.698   6.218   0.980
17633TIP3    H152784   6.646   6.225   1.060
17633TIP3    H252785   6.784   6.251   1.005
17634TIP3   OH252786   7.557   5.880   0.402
17634TIP3    H152787   7.608   5.838   0.471
17634TIP3    H252788   7.466   5.864   0.427
17635TIP3   OH252789   7.838   6.352   0.225
17635TIP3    H152790   7.878   6.424   0.177
17635TIP3    H252791   7.756   6.388   0.259
17636TIP3   OH252792   7.682   5.808   0.637
17636TIP3    H152793   7.674   5.781   0.728
17636TIP3    H252794   7.771   5.844   0.629
17637TIP3   OH252795   6.801   5.864   0.335
17637TIP3    H152796   6.888   5.845   0.300
17637TIP3    H252797   6.784   5.793   0.397
17638TIP3   OH252798   6.829   5.853   0.694
17638TIP3    H152799   6.925   5.854   0.700
17638TIP3    H252800   6.799   5.889   0.777
17639TIP3   OH252801   7.097   5.910   0.703
17639TIP3    H152802   7.083   5.984   0.763
17639TIP3    H252803   7.115   5.951   0.619
17640TIP3   OH252804   6.754   6.171   0.721
17640TIP3    H152805   6.838   6.129   0.701
17640TIP3    H252806   6.747   6.168   0.816
17641TIP3   OH252807   6.559   5.757   0.725
17641TIP3    H152808   6.631   5.819   0.716
17641TIP3    H252809   6.600   5.671   0.717
17642TIP3   OH252810   7.659   6.462   1.263
17642TIP3    H152811   7.653   6.427   1.174
17642TIP3    H252812   7.716   6.538   1.255
17643TIP3   OH252813   7.051   6.019   0.286
17643TIP3    H152814   7.075   5.949   0.346
17643TIP3    H252815   7.123   6.023   0.223
17644TIP3   OH252816   7.490   6.107   0.256
17644TIP3    H152817   7.524   6.036   0.310
17644TIP3    H252818   7.540   6.102   0.175
17645TIP3   OH252819   6.747   5.659   0.505
17645TIP3    H152820   6.793   5.687   0.585
17645TIP3    H252821   6.767   5.565   0.499
17646TIP3   OH252822   7.282   5.761   0.266
17646TIP3    H152823   7.234   5.769   0.349
17646TIP3    H252824   7.304   5.669   0.259
17647TIP3   OH252825   6.886   5.373   0.868
17647TIP3    H152826   6.931   5.377   0.952
17647TIP3    H252827   6.954   5.350   0.805
17648TIP3   OH252828   7.025   5.266   0.657
17648TIP3    H152829   6.958   5.216   0.610
17648TIP3    H252830   7.095   5.203   0.675
17649TIP3   OH252831   7.779   5.593   0.245
17649TIP3    H152832   7.771   5.541   0.165
17649TIP3    H252833   7.758   5.683   0.217
17650TIP3   OH252834   6.794   6.361   0.477
17650TIP3    H152835   6.881   6.322   0.470
17650TIP3    H252836   6.785   6.414   0.398
17651TIP3   OH252837   6.353   5.603   0.812
17651TIP3    H152838   6.422   5.667   0.794
17651TIP3    H252839   6.292   5.613   0.739
17652TIP3   OH252840   8.071   6.545   1.171
17652TIP3    H152841   8.066   6.585   1.257
17652TIP3    H252842   8.093   6.617   1.112
17653TIP3   OH252843   7.940   5.891   0.598
17653TIP3    H152844   8.020   5.917   0.552
17653TIP3    H252845   7.960   5.903   0.690
17654TIP3   OH252846   8.189   5.766   0.717
17654TIP3    H152847   8.125   5.717   0.770
17654TIP3    H252848   8.176   5.857   0.741
17655TIP3   OH252849   8.081   5.979   1.101
17655TIP3    H152850   8.156   5.952   1.155
17655TIP3    H252851   8.062   6.068   1.129
17656TIP3   OH252852   7.991   5.664   0.414
17656TIP3    H152853   7.924   5.651   0.347
17656TIP3    H252854   7.964   5.744   0.460
17657TIP3   OH252855   7.942   5.142   0.290
17657TIP3    H152856   7.860   5.140   0.240
17657TIP3    H252857   7.931   5.076   0.358
17658TIP3   OH252858   7.797   5.441   0.963
17658TIP3    H152859   7.863   5.391   0.914
17658TIP3    H252860   7.841   5.463   1.045
17659TIP3   OH252861   7.890   5.081   0.785
17659TIP3    H152862   7.832   5.062   0.858
17659TIP3    H252863   7.929   5.166   0.806
17660TIP3   OH252864   7.617   6.432   0.760
17660TIP3    H152865   7.687   6.424   0.695
17660TIP3    H252866   7.644   6.506   0.815
17661TIP3   OH252867   6.352   6.109   1.107
17661TIP3    H152868   6.320   6.021   1.089
17661TIP3    H252869   6.322   6.162   1.033
17662TIP3   OH252870   7.066   6.305   0.403
17662TIP3    H152871   7.149   6.344   0.376
17662TIP3    H252872   7.039   6.251   0.329
17663TIP3   OH252873   7.779   6.384   0.544
17663TIP3    H152874   7.789   6.290   0.529
17663TIP3    H252875   7.731   6.416   0.468
17664TIP3   OH252876   6.282   6.179   0.476
17664TIP3    H152877   6.266   6.252   0.535
17664TIP3    H252878   6.362   6.138   0.509
17665TIP3   OH252879   9.258   5.934   0.530
17665TIP3    H152880   9.230   6.018   0.494
17665TIP3    H252881   9.197   5.870   0.494
17666TIP3   OH252882   9.360   5.884   0.847
17666TIP3    H152883   9.402   5.809   0.889
17666TIP3    H252884   9.311   5.847   0.774
17667TIP3   OH252885   8.575   5.725   1.195
17667TIP3    H152886   8.579   5.744   1.289
17667TIP3    H252887   8.665   5.728   1.166
17668TIP3   OH252888   9.528   6.248   0.608
17668TIP3    H152889   9.548   6.175   0.666
17668TIP3    H252890   9.555   6.326   0.657
17669TIP3   OH252891   8.578   6.222   0.946
17669TIP3    H152892   8.499   6.177   0.977
17669TIP3    H252893   8.628   6.155   0.901
17670TIP3   OH252894   8.260   5.288   0.737
17670TIP3    H152895   8.245   5.328   0.651
17670TIP3    H252896   8.240   5.196   0.724
17671TIP3   OH252897   8.312   5.748   0.989
17671TIP3    H152898   8.278   5.661   0.969
17671TIP3    H252899   8.366   5.771   0.913
17672TIP3   OH252900   9.180   6.676   0.616
17672TIP3    H152901   9.212   6.601   0.565
17672TIP3    H252902   9.195   6.652   0.707
17673TIP3   OH252903   9.150   6.225   0.818
17673TIP3    H152904   9.194   6.166   0.756
17673TIP3    H252905   9.221   6.279   0.853
17674TIP3   OH252906   9.490   5.661   0.962
17674TIP3    H152907   9.573   5.627   0.994
17674TIP3    H252908   9.468   5.608   0.886
17675TIP3   OH252909   8.428   5.476   1.181
17675TIP3    H152910   8.523   5.484   1.189
17675TIP3    H252911   8.415   5.414   1.109
17676TIP3   OH252912   8.918   5.688   0.809
17676TIP3    H152913   9.012   5.669   0.806
17676TIP3    H252914   8.878   5.625   0.750
17677TIP3   OH252915   0.358   5.658   1.172
17677TIP3    H152916   0.278   5.705   1.151
17677TIP3    H252917   0.328   5.580   1.220
17678TIP3   OH252918   9.166   6.149   0.380
17678TIP3    H152919   9.133   6.123   0.294
17678TIP3    H252920   9.115   6.226   0.404
17679TIP3   OH252921   8.887   5.993   1.192
17679TIP3    H152922   8.800   6.014   1.226
17679TIP3    H252923   8.907   6.064   1.131
17680TIP3   OH252924   8.702   5.437   1.195
17680TIP3    H152925   8.774   5.484   1.235
17680TIP3    H252926   8.723   5.435   1.101
17681TIP3   OH252927   8.867   6.286   1.294
17681TIP3    H152928   8.855   6.316   1.204
17681TIP3    H252929   8.804   6.337   1.345
17682TIP3   OH252930   8.149   5.989   0.462
17682TIP3    H152931   8.132   6.003   0.368
17682TIP3    H252932   8.178   6.075   0.493
17683TIP3   OH252933   9.555   6.489   0.753
17683TIP3    H152934   9.464   6.478   0.780
17683TIP3    H252935   9.557   6.575   0.710
17684TIP3   OH252936   9.283   6.509   0.416
17684TIP3    H152937   9.337   6.431   0.398
17684TIP3    H252938   9.337   6.582   0.386
17685TIP3   OH252939   9.422   6.281   0.357
17685TIP3    H152940   9.353   6.215   0.357
17685TIP3    H252941   9.471   6.265   0.438
17686TIP3   OH252942   0.013   6.387   1.088
17686TIP3    H152943   0.002   6.311   1.031
17686TIP3    H252944  -0.004   6.462   1.031
17687TIP3   OH252945   9.113   5.761   0.369
17687TIP3    H152946   9.030   5.798   0.340
17687TIP3    H252947   9.164   5.752   0.288
17688TIP3   OH252948   9.066   5.583   0.059
17688TIP3    H152949   9.135   5.628   0.108
17688TIP3    H252950   9.112   5.514   0.011
17689TIP3   OH252951   0.181   6.014   0.947
17689TIP3    H152952   0.102   6.068   0.953
17689TIP3    H252953   0.210   6.025   0.856
17690TIP3   OH252954   9.444   5.870   0.331
17690TIP3    H152955   9.393   5.895   0.408
17690TIP3    H252956   9.530   5.847   0.365
17691TIP3   OH252957   9.706   5.892   1.277
17691TIP3    H152958   9.703   5.978   1.320
17691TIP3    H252959   9.620   5.884   1.235
17692TIP3   OH252960   8.709   5.818   0.653
17692TIP3    H152961   8.675   5.751   0.593
17692TIP3    H252962   8.775   5.773   0.705
17693TIP3   OH252963   8.868   6.319   0.735
17693TIP3    H152964   8.819   6.238   0.729
17693TIP3    H252965   8.959   6.293   0.723
17694TIP3   OH252966   8.813   5.761   1.060
17694TIP3    H152967   8.858   5.749   0.976
17694TIP3    H252968   8.857   5.837   1.099
17695TIP3   OH252969   9.312   6.451   0.895
17695TIP3    H152970   9.333   6.540   0.921
17695TIP3    H252971   9.355   6.396   0.961
17696TIP3   OH252972   9.033   6.376   1.489
17696TIP3    H152973   8.988   6.339   1.565
17696TIP3    H252974   8.987   6.339   1.414
17697TIP3   OH252975   9.294   5.719   0.155
17697TIP3    H152976   9.349   5.780   0.204
17697TIP3    H252977   9.325   5.726   0.064
17698TIP3   OH252978   9.035   6.391   0.416
17698TIP3    H152979   9.117   6.439   0.424
17698TIP3    H252980   8.976   6.451   0.371
17699TIP3   OH252981   8.707   6.414   1.490
17699TIP3    H152982   8.696   6.496   1.442
17699TIP3    H252983   8.623   6.401   1.533
17700TIP3   OH252984   8.548   5.654   0.501
17700TIP3    H152985   8.466   5.692   0.469
17700TIP3    H252986   8.530   5.561   0.509
17701TIP3   OH252987   6.352   1.702   7.785
17701TIP3    H152988   6.344   1.793   7.757
17701TIP3    H252989   6.441   1.677   7.762
17702TIP3   OH252990   8.077   6.242   1.173
17702TIP3    H152991   8.170   6.227   1.158
17702TIP3    H252992   8.074   6.320   1.229
17703TIP3   OH252993   0.231   6.725   1.160
17703TIP3    H152994   0.241   6.632   1.180
17703TIP3    H252995   0.157   6.753   1.213
17704TIP3   OH252996   9.236   6.461   1.315
17704TIP3    H152997   9.234   6.550   1.350
17704TIP3    H252998   9.175   6.412   1.371
17705TIP3   OH252999   8.925   6.608   0.245
17705TIP3    H153000   8.882   6.591   0.162
17705TIP3    H253001   8.894   6.695   0.271
17706TIP3   OH253002   8.349   6.478   0.596
17706TIP3    H153003   8.422   6.438   0.644
17706TIP3    H253004   8.290   6.406   0.576
17707TIP3   OH253005   5.857   1.929   7.872
17707TIP3    H153006   5.905   1.854   7.836
17707TIP3    H253007   5.895   1.943   7.959
17708TIP3   OH253008   9.180   6.591   0.140
17708TIP3    H153009   9.096   6.591   0.186
17708TIP3    H253010   9.243   6.559   0.204
17709TIP3   OH253011   0.155   5.886   1.418
17709TIP3    H153012   0.063   5.878   1.392
17709TIP3    H253013   0.167   5.818   1.484
17710TIP3   OH253014   9.622   5.671   1.425
17710TIP3    H153015   9.650   5.693   1.514
17710TIP3    H253016   9.663   5.738   1.370
17711TIP3   OH253017   6.114   1.071   7.890
17711TIP3    H153018   6.058   1.081   7.813
17711TIP3    H253019   6.187   1.131   7.875
17712TIP3   OH253020   8.942   5.564   1.230
17712TIP3    H153021   8.955   5.610   1.313
17712TIP3    H253022   8.908   5.631   1.171
17713TIP3   OH253023   8.780   5.528   0.651
17713TIP3    H153024   8.695   5.492   0.677
17713TIP3    H253025   8.816   5.463   0.591
17714TIP3   OH253026   9.251   5.563   0.510
17714TIP3    H153027   9.198   5.635   0.477
17714TIP3    H253028   9.301   5.533   0.435
17715TIP3   OH253029   9.441   5.557   0.709
17715TIP3    H153030   9.377   5.573   0.640
17715TIP3    H253031   9.486   5.477   0.682
17716TIP3   OH253032   9.452   5.828   1.185
17716TIP3    H153033   9.454   5.777   1.104
17716TIP3    H253034   9.409   5.770   1.248
17717TIP3   OH253035   8.574   5.358   0.705
17717TIP3    H153036   8.570   5.314   0.790
17717TIP3    H253037   8.625   5.298   0.650
17718TIP3   OH253038   8.781   5.292   0.501
17718TIP3    H153039   8.875   5.306   0.488
17718TIP3    H253040   8.741   5.321   0.419
17719TIP3   OH253041   8.654   5.390   0.276
17719TIP3    H153042   8.580   5.357   0.225
17719TIP3    H253043   8.703   5.445   0.215
17720TIP3   OH253044   9.767   7.083   1.250
17720TIP3    H153045   9.759   7.098   1.156
17720TIP3    H253046   9.842   7.136   1.276
17721TIP3   OH253047   9.184   5.656   0.809
17721TIP3    H153048   9.248   5.589   0.784
17721TIP3    H253049   9.189   5.659   0.904
17722TIP3   OH253050   9.199   5.458   1.255
17722TIP3    H153051   9.112   5.495   1.264
17722TIP3    H253052   9.254   5.510   1.314
17723TIP3   OH253053   8.885   5.887   0.270
17723TIP3    H153054   8.809   5.837   0.242
17723TIP3    H253055   8.852   5.943   0.340
17724TIP3   OH253056   9.765   6.182   0.917
17724TIP3    H153057   9.805   6.230   0.844
17724TIP3    H253058   9.692   6.135   0.877
17725TIP3   OH253059   9.334   6.220   1.445
17725TIP3    H153060   9.279   6.179   1.378
17725TIP3    H253061   9.359   6.305   1.408
17726TIP3   OH253062   9.406   5.501   0.298
17726TIP3    H153063   9.501   5.507   0.304
17726TIP3    H253064   9.381   5.567   0.234
17727TIP3   OH253065   8.581   5.932   0.979
17727TIP3    H153066   8.535   5.901   0.902
17727TIP3    H253067   8.639   5.860   1.004
17728TIP3   OH253068   9.036   6.076   0.138
17728TIP3    H153069   8.980   6.154   0.141
17728TIP3    H253070   8.985   6.008   0.181
17729TIP3   OH253071   9.465   6.541   1.194
17729TIP3    H153072   9.379   6.507   1.217
17729TIP3    H253073   9.503   6.569   1.277
17730TIP3   OH253074   9.807   5.577   0.095
17730TIP3    H153075   9.767   5.526   0.024
17730TIP3    H253076   9.799   5.668   0.066
17731TIP3   OH253077   0.258   6.445   1.185
17731TIP3    H153078   0.164   6.435   1.168
17731TIP3    H253079   0.300   6.421   1.103
17732TIP3   OH253080   9.534   6.398   0.043
17732TIP3    H153081   9.515   6.325   0.103
17732TIP3    H253082   9.559   6.355  -0.039
17733TIP3   OH253083   9.577   6.036   0.781
17733TIP3    H153084   9.492   6.009   0.815
17733TIP3    H253085   9.616   5.957   0.745
17734TIP3   OH253086   8.620   6.251   0.514
17734TIP3    H153087   8.625   6.333   0.466
17734TIP3    H253088   8.603   6.278   0.605
17735TIP3   OH253089   8.224   5.544   0.318
17735TIP3    H153090   8.285   5.616   0.335
17735TIP3    H253091   8.139   5.576   0.347
17736TIP3   OH253092   8.756   6.023   0.461
17736TIP3    H153093   8.720   6.106   0.493
17736TIP3    H253094   8.748   5.963   0.535
17737TIP3   OH253095   8.913   6.685   0.998
17737TIP3    H153096   8.979   6.733   0.948
17737TIP3    H253097   8.964   6.627   1.055
17738TIP3   OH253098   8.572   6.515   0.433
17738TIP3    H153099   8.490   6.520   0.481
17738TIP3    H253100   8.613   6.600   0.448
17739TIP3   OH253101   9.375   6.250   1.066
17739TIP3    H153102   9.308   6.213   1.124
17739TIP3    H253103   9.458   6.226   1.108
17740TIP3   OH253104   6.029   1.516   7.947
17740TIP3    H153105   6.094   1.490   8.013
17740TIP3    H253106   5.945   1.498   7.988
17741TIP3   OH253107   9.577   6.774   1.082
17741TIP3    H153108   9.513   6.703   1.082
17741TIP3    H253109   9.554   6.827   1.006
17742TIP3   OH253110   6.345   1.973   7.728
17742TIP3    H153111   6.353   2.025   7.648
17742TIP3    H253112   6.279   2.020   7.779
17743TIP3   OH253113   9.483   6.048   0.121
17743TIP3    H153114   9.465   5.996   0.200
17743TIP3    H253115   9.578   6.060   0.121
17744TIP3   OH253116   8.304   6.379   1.272
17744TIP3    H153117   8.394   6.349   1.263
17744TIP3    H253118   8.308   6.473   1.256
17745TIP3   OH253119   5.380   1.488   7.951
17745TIP3    H153120   5.398   1.398   7.922
17745TIP3    H253121   5.377   1.481   8.047
17746TIP3   OH253122   8.605   6.109   0.226
17746TIP3    H153123   8.656   6.084   0.303
17746TIP3    H253124   8.604   6.205   0.228
17747TIP3   OH253125   8.332   5.787   0.400
17747TIP3    H153126   8.264   5.836   0.447
17747TIP3    H253127   8.361   5.847   0.331
17748TIP3   OH253128   8.871   6.292   0.141
17748TIP3    H153129   8.785   6.312   0.176
17748TIP3    H253130   8.896   6.370   0.091
17749TIP3   OH253131   9.044   5.378   0.547
17749TIP3    H153132   9.114   5.440   0.527
17749TIP3    H253133   9.060   5.351   0.637
17750TIP3   OH253134   9.356   5.650   1.390
17750TIP3    H153135   9.330   5.699   1.468
17750TIP3    H253136   9.450   5.638   1.399
17751TIP3   OH253137   8.616   6.382   0.204
17751TIP3    H153138   8.596   6.445   0.134
17751TIP3    H253139   8.601   6.431   0.285
17752TIP3   OH253140   9.637   5.771   0.708
17752TIP3    H153141   9.566   5.708   0.722
17752TIP3    H253142   9.706   5.742   0.767
17753TIP3   OH253143   8.364   5.982   0.200
17753TIP3    H153144   8.438   6.041   0.217
17753TIP3    H253145   8.396   5.921   0.134
17754TIP3   OH253146   8.241   5.268   0.269
17754TIP3    H153147   8.242   5.358   0.303
17754TIP3    H253148   8.192   5.218   0.335
17755TIP3   OH253149   9.594   6.750   0.665
17755TIP3    H153150   9.555   6.803   0.595
17755TIP3    H253151   9.688   6.758   0.652
17756TIP3   OH253152   8.197   6.242   0.562
17756TIP3    H153153   8.140   6.265   0.635
17756TIP3    H253154   8.156   6.284   0.486
17757TIP3   OH253155   5.530   1.682   7.819
17757TIP3    H153156   5.487   1.613   7.870
17757TIP3    H253157   5.606   1.639   7.780
17758TIP3   OH253158   9.572   6.585   1.452
17758TIP3    H153159   9.635   6.514   1.457
17758TIP3    H253160   9.621   6.663   1.477
17759TIP3   OH253161   5.979   1.713   7.755
17759TIP3    H153162   6.015   1.650   7.818
17759TIP3    H253163   6.038   1.710   7.680
17760TIP3   OH253164   8.475   5.790   0.045
17760TIP3    H153165   8.527   5.761   0.120
17760TIP3    H253166   8.540   5.810  -0.022
17761TIP3   OH253167   5.730   1.399   7.871
17761TIP3    H153168   5.739   1.411   7.966
17761TIP3    H253169   5.735   1.304   7.858
17762TIP3   OH253170   9.599   6.301   1.232
17762TIP3    H153171   9.684   6.318   1.192
17762TIP3    H253172   9.547   6.379   1.212
17763TIP3   OH253173   8.652   5.729   0.250
17763TIP3    H153174   8.631   5.699   0.339
17763TIP3    H253175   8.702   5.657   0.212
17764TIP3   OH253176   8.797   5.547   0.106
17764TIP3    H153177   8.766   5.557   0.016
17764TIP3    H253178   8.892   5.561   0.099
17765TIP3   OH253179   6.318   1.217   7.784
17765TIP3    H153180   6.303   1.180   7.697
17765TIP3    H253181   6.292   1.309   7.776
17766TIP3   OH253182   9.173   5.860   1.269
17766TIP3    H153183   9.250   5.915   1.285
17766TIP3    H253184   9.102   5.902   1.317
17767TIP3   OH253185   9.723   6.133   1.411
17767TIP3    H153186   9.664   6.191   1.362
17767TIP3    H253187   9.811   6.160   1.386
17768TIP3   OH253188   5.340   1.966   8.020
17768TIP3    H153189   5.434   1.951   8.006
17768TIP3    H253190   5.311   2.010   7.940
17769TIP3   OH253191   8.094   5.981   0.181
17769TIP3    H153192   8.190   5.988   0.183
17769TIP3    H253193   8.077   5.891   0.156
17770TIP3   OH253194   8.001   6.544   0.564
17770TIP3    H153195   7.929   6.488   0.536
17770TIP3    H253196   7.987   6.557   0.657
17771TIP3   OH253197   8.069   6.294   0.797
17771TIP3    H153198   7.984   6.322   0.832
17771TIP3    H253199   8.133   6.340   0.851
17772TIP3   OH253200   0.065   6.798   0.658
17772TIP3    H153201   0.090   6.827   0.746
17772TIP3    H253202   0.123   6.847   0.599
17773TIP3   OH253203   0.091   6.830   0.940
17773TIP3    H153204   0.044   6.748   0.928
17773TIP3    H253205   0.157   6.811   1.006
17774TIP3   OH253206   0.104   6.555   1.505
17774TIP3    H153207   0.081   6.562   1.598
17774TIP3    H253208   0.154   6.635   1.487
17775TIP3   OH253209   9.759   6.054   0.125
17775TIP3    H153210   9.815   6.124   0.092
17775TIP3    H253211   9.809   6.015   0.197
17776TIP3   OH253212   0.097   5.908   0.315
17776TIP3    H153213   0.028   5.875   0.373
17776TIP3    H253214   0.164   5.941   0.374
17777TIP3   OH253215   0.127   6.310   0.740
17777TIP3    H153216   0.182   6.240   0.705
17777TIP3    H253217   0.139   6.383   0.680
17778TIP3   OH253218   9.740   6.598   0.932
17778TIP3    H153219   9.676   6.647   0.984
17778TIP3    H253220   9.688   6.556   0.863
17779TIP3   OH253221   6.503   1.202   7.984
17779TIP3    H153222   6.440   1.210   7.912
17779TIP3    H253223   6.493   1.283   8.034
17780TIP3   OH253224   6.389   0.886   7.872
17780TIP3    H153225   6.326   0.956   7.890
17780TIP3    H253226   6.338   0.819   7.826
17781TIP3   OH253227   9.681   5.781   0.440
17781TIP3    H153228   9.683   5.688   0.418
17781TIP3    H253229   9.672   5.783   0.536
17782TIP3   OH253230   8.351   5.923   1.186
17782TIP3    H153231   8.347   5.856   1.118
17782TIP3    H253232   8.444   5.931   1.207
17783TIP3   OH253233   0.168   6.215   1.326
17783TIP3    H153234   0.227   6.145   1.301
17783TIP3    H253235   0.200   6.292   1.279
17784TIP3   OH253236   0.355   6.017   1.300
17784TIP3    H153237   0.290   5.965   1.346
17784TIP3    H253238   0.410   6.053   1.369
17785TIP3   OH253239   9.683   5.520   0.335
17785TIP3    H153240   9.729   5.444   0.369
17785TIP3    H253241   9.728   5.542   0.253
17786TIP3   OH253242   0.032   5.677   0.872
17786TIP3    H153243   0.111   5.690   0.820
17786TIP3    H253244   0.057   5.703   0.961
17787TIP3   OH253245   0.120   5.797   1.107
17787TIP3    H153246   0.056   5.830   1.170
17787TIP3    H253247   0.146   5.874   1.057
17788TIP3   OH253248   9.411   6.719   0.304
17788TIP3    H153249   9.468   6.705   0.228
17788TIP3    H253250   9.458   6.784   0.357
17789TIP3   OH253251   8.705   6.565   1.264
17789TIP3    H153252   8.675   6.640   1.214
17789TIP3    H253253   8.800   6.565   1.253
17790TIP3   OH253254   9.248   6.718   1.418
17790TIP3    H153255   9.286   6.711   1.506
17790TIP3    H253256   9.308   6.775   1.370
17791TIP3   OH253257   9.372   6.887   1.238
17791TIP3    H153258   9.448   6.855   1.189
17791TIP3    H253259   9.406   6.961   1.289
17792TIP3   OH253260   8.351   6.652   1.220
17792TIP3    H153261   8.271   6.690   1.182
17792TIP3    H253262   8.401   6.727   1.252
17793TIP3   OH253263   8.648   6.740   1.056
17793TIP3    H153264   8.598   6.662   1.032
17793TIP3    H253265   8.736   6.724   1.022
17794TIP3   OH253266   9.076   6.847   0.857
17794TIP3    H153267   9.028   6.858   0.775
17794TIP3    H253268   9.108   6.935   0.877
17795TIP3   OH253269   9.342   6.718   0.926
17795TIP3    H153270   9.262   6.735   0.976
17795TIP3    H253271   9.365   6.803   0.888
17796TIP3   OH253272   9.528   6.934   0.861
17796TIP3    H153273   9.519   7.018   0.817
17796TIP3    H253274   9.551   6.873   0.790
17797TIP3   OH253275   8.409   6.637   0.837
17797TIP3    H153276   8.452   6.579   0.901
17797TIP3    H253277   8.400   6.583   0.759
17798TIP3   OH253278   8.560   6.397   0.738
17798TIP3    H153279   8.573   6.334   0.809
17798TIP3    H253280   8.630   6.461   0.750
17799TIP3   OH253281   8.779   6.568   0.784
17799TIP3    H153282   8.818   6.486   0.755
17799TIP3    H253283   8.822   6.589   0.866
17800TIP3   OH253284   8.091   6.352   0.334
17800TIP3    H153285   8.002   6.327   0.308
17800TIP3    H253286   8.093   6.447   0.325
17801TIP3   OH253287   5.603   1.899   7.973
17801TIP3    H153288   5.687   1.926   7.936
17801TIP3    H253289   5.572   1.829   7.914
17802TIP3   OH253290   9.566   6.666   0.080
17802TIP3    H153291   9.561   6.571   0.072
17802TIP3    H253292   9.529   6.699  -0.001
17803TIP3   OH253293   8.172   6.340   0.050
17803TIP3    H153294   8.172   6.338   0.146
17803TIP3    H253295   8.256   6.301   0.026
17804TIP3   OH253296   9.785   6.811   1.262
17804TIP3    H153297   9.716   6.786   1.201
17804TIP3    H253298   9.784   6.906   1.262
17805TIP3   OH253299   1.253   6.192   0.029
17805TIP3    H153300   1.231   6.279  -0.004
17805TIP3    H253301   1.187   6.134  -0.009
17806TIP3   OH253302   1.236   6.183   0.392
17806TIP3    H153303   1.235   6.121   0.465
17806TIP3    H253304   1.205   6.132   0.317
17807TIP3   OH253305   0.550   6.042   0.762
17807TIP3    H153306   0.586   5.990   0.833
17807TIP3    H253307   0.625   6.061   0.706
17808TIP3   OH253308   1.537   6.490   0.099
17808TIP3    H153309   1.511   6.427   0.167
17808TIP3    H253310   1.558   6.570   0.148
17809TIP3   OH253311   0.547   6.468   0.454
17809TIP3    H153312   0.529   6.374   0.459
17809TIP3    H253313   0.643   6.474   0.450
17810TIP3   OH253314   0.231   5.676   0.232
17810TIP3    H153315   0.192   5.760   0.257
17810TIP3    H253316   0.161   5.629   0.188
17811TIP3   OH253317   0.324   5.986   0.457
17811TIP3    H153318   0.373   5.909   0.483
17811TIP3    H253319   0.390   6.052   0.439
17812TIP3   OH253320   1.191   6.917   0.104
17812TIP3    H153321   1.220   6.855   0.038
17812TIP3    H253322   1.191   6.867   0.186
17813TIP3   OH253323   1.074   6.408   0.447
17813TIP3    H153324   1.114   6.329   0.410
17813TIP3    H253325   1.147   6.459   0.480
17814TIP3   OH253326   0.454   5.756   0.540
17814TIP3    H153327   0.533   5.729   0.586
17814TIP3    H253328   0.458   5.710   0.456
17815TIP3   OH253329   0.872   5.967   0.370
17815TIP3    H153330   0.966   5.949   0.369
17815TIP3    H253331   0.832   5.886   0.339
17816TIP3   OH253332   7.705   1.787   7.875
17816TIP3    H153333   7.665   1.757   7.793
17816TIP3    H253334   7.653   1.863   7.900
17817TIP3   OH253335   0.904   6.319   0.649
17817TIP3    H153336   0.849   6.389   0.685
17817TIP3    H253337   0.955   6.362   0.580
17818TIP3   OH253338   0.693   5.655   0.624
17818TIP3    H153339   0.751   5.719   0.664
17818TIP3    H253340   0.751   5.596   0.575
17819TIP3   OH253341   0.742   6.530   0.743
17819TIP3    H153342   0.732   6.621   0.714
17819TIP3    H253343   0.659   6.509   0.786
17820TIP3   OH253344   6.662   1.620   8.008
17820TIP3    H153345   6.631   1.636   7.919
17820TIP3    H253346   6.685   1.706   8.041
17821TIP3   OH253347   1.573   6.734   0.241
17821TIP3    H153348   1.483   6.725   0.273
17821TIP3    H253349   1.573   6.816   0.192
17822TIP3   OH253350   7.814   2.148   7.890
17822TIP3    H153351   7.868   2.069   7.880
17822TIP3    H253352   7.872   2.219   7.865
17823TIP3   OH253353   7.957   1.919   7.853
17823TIP3    H153354   7.886   1.855   7.850
17823TIP3    H253355   8.006   1.895   7.932
17824TIP3   OH253356   7.621   1.425   7.861
17824TIP3    H153357   7.536   1.465   7.839
17824TIP3    H253358   7.668   1.422   7.777
17825TIP3   OH253359   7.571   1.227   7.584
17825TIP3    H153360   7.646   1.262   7.631
17825TIP3    H253361   7.605   1.151   7.538
17826TIP3   OH253362   7.962   1.501   7.829
17826TIP3    H153363   7.911   1.530   7.904
17826TIP3    H253364   8.044   1.468   7.867
17827TIP3   OH253365   0.680   6.102   0.217
17827TIP3    H153366   0.644   6.041   0.153
17827TIP3    H253367   0.751   6.053   0.259
17828TIP3   OH253368   0.814   6.520   0.365
17828TIP3    H153369   0.793   6.505   0.273
17828TIP3    H253370   0.902   6.483   0.376
17829TIP3   OH253371   0.765   6.089   0.591
17829TIP3    H153372   0.806   6.052   0.513
17829TIP3    H253373   0.814   6.169   0.609
17830TIP3   OH253374   1.322   6.718   0.348
17830TIP3    H153375   1.310   6.805   0.386
17830TIP3    H253376   1.297   6.658   0.418
17831TIP3   OH253377   0.945   6.624   0.907
17831TIP3    H153378   0.894   6.683   0.962
17831TIP3    H253379   0.880   6.582   0.851
17832TIP3   OH253380   7.808   1.353   7.658
17832TIP3    H153381   7.865   1.399   7.719
17832TIP3    H253382   7.838   1.382   7.571
17833TIP3   OH253383   0.684   6.180   1.050
17833TIP3    H153384   0.681   6.276   1.047
17833TIP3    H253385   0.593   6.153   1.037
17834TIP3   OH253386   7.566   2.026   7.907
17834TIP3    H153387   7.648   2.077   7.908
17834TIP3    H253388   7.505   2.080   7.858
17835TIP3   OH253389   0.737   6.779   1.001
17835TIP3    H153390   0.713   6.794   0.909
17835TIP3    H253391   0.654   6.777   1.047
17836TIP3   OH253392   0.552   5.944   0.021
17836TIP3    H153393   0.469   5.984  -0.005
17836TIP3    H253394   0.528   5.858   0.056
17837TIP3   OH253395   8.152   1.965   7.265
17837TIP3    H153396   8.146   2.057   7.242
17837TIP3    H253397   8.242   1.941   7.244
17838TIP3   OH253398   0.325   6.347   0.939
17838TIP3    H153399   0.255   6.325   0.877
17838TIP3    H253400   0.362   6.262   0.963
17839TIP3   OH253401   0.195   6.536   0.593
17839TIP3    H153402   0.290   6.548   0.598
17839TIP3    H253403   0.159   6.614   0.635
17840TIP3   OH253404   1.123   6.768   0.761
17840TIP3    H153405   1.117   6.858   0.791
17840TIP3    H253406   1.060   6.720   0.815
17841TIP3   OH253407   7.455   2.253   7.735
17841TIP3    H153408   7.411   2.233   7.652
17841TIP3    H253409   7.416   2.335   7.763
17842TIP3   OH253410   0.352   6.729   0.107
17842TIP3    H153411   0.395   6.720   0.192
17842TIP3    H253412   0.303   6.647   0.097
17843TIP3   OH253413   7.657   2.192   7.360
17843TIP3    H153414   7.707   2.119   7.324
17843TIP3    H253415   7.693   2.203   7.449
17844TIP3   OH253416   7.709   2.229   7.631
17844TIP3    H153417   7.622   2.233   7.672
17844TIP3    H253418   7.765   2.191   7.698
17845TIP3   OH253419   0.499   6.550   0.885
17845TIP3    H153420   0.551   6.540   0.965
17845TIP3    H253421   0.432   6.483   0.891
17846TIP3   OH253422   7.892   1.394   7.404
17846TIP3    H153423   7.810   1.420   7.362
17846TIP3    H253424   7.959   1.442   7.355
17847TIP3   OH253425   0.848   5.854   0.728
17847TIP3    H153426   0.804   5.861   0.812
17847TIP3    H253427   0.828   5.936   0.683
17848TIP3   OH253428   0.737   5.756   0.262
17848TIP3    H153429   0.654   5.716   0.287
17848TIP3    H253430   0.758   5.718   0.177
17849TIP3   OH253431   7.726   1.218   8.011
17849TIP3    H153432   7.681   1.287   7.962
17849TIP3    H253433   7.799   1.193   7.955
17850TIP3   OH253434   1.366   5.841   0.223
17850TIP3    H153435   1.297   5.860   0.158
17850TIP3    H253436   1.421   5.776   0.181
17851TIP3   OH253437   0.686   5.889   0.950
17851TIP3    H153438   0.741   5.951   0.999
17851TIP3    H253439   0.664   5.821   1.014
17852TIP3   OH253440   0.490   5.627   0.297
17852TIP3    H153441   0.400   5.645   0.269
17852TIP3    H253442   0.503   5.534   0.280
17853TIP3   OH253443   7.317   1.015   8.023
17853TIP3    H153444   7.396   0.966   8.000
17853TIP3    H253445   7.263   1.011   7.944
17854TIP3   OH253446   7.175   1.003   7.783
17854TIP3    H153447   7.086   1.009   7.747
17854TIP3    H253448   7.229   1.053   7.721
17855TIP3   OH253449   1.698   7.364   0.736
17855TIP3    H153450   1.671   7.380   0.646
17855TIP3    H253451   1.792   7.348   0.730
17856TIP3   OH253452   0.634   6.457   1.104
17856TIP3    H153453   0.729   6.452   1.113
17856TIP3    H253454   0.601   6.463   1.194
17857TIP3   OH253455   1.143   5.906   0.391
17857TIP3    H153456   1.220   5.869   0.348
17857TIP3    H253457   1.142   5.868   0.478
17858TIP3   OH253458   1.115   5.833   0.655
17858TIP3    H153459   1.023   5.819   0.680
17858TIP3    H253460   1.140   5.914   0.699
17859TIP3   OH253461   7.379   1.547   7.796
17859TIP3    H153462   7.306   1.490   7.774
17859TIP3    H253463   7.354   1.587   7.879
17860TIP3   OH253464   1.759   6.336   0.311
17860TIP3    H153465   1.760   6.421   0.354
17860TIP3    H253466   1.666   6.312   0.308
17861TIP3   OH253467   1.309   6.560   0.841
17861TIP3    H153468   1.277   6.470   0.848
17861TIP3    H253469   1.230   6.612   0.827
17862TIP3   OH253470   7.944   1.134   7.874
17862TIP3    H153471   8.039   1.139   7.879
17862TIP3    H253472   7.927   1.096   7.787
17863TIP3   OH253473   0.538   6.179   0.442
17863TIP3    H153474   0.579   6.162   0.357
17863TIP3    H253475   0.603   6.148   0.505
17864TIP3   OH253476   7.542   1.716   7.658
17864TIP3    H153477   7.495   1.799   7.655
17864TIP3    H253478   7.483   1.656   7.703
17865TIP3   OH253479   0.416   6.109   1.053
17865TIP3    H153480   0.410   6.082   1.144
17865TIP3    H253481   0.345   6.062   1.009
17866TIP3   OH253482   1.374   6.813   0.650
17866TIP3    H153483   1.287   6.796   0.685
17866TIP3    H253484   1.360   6.882   0.585
17867TIP3   OH253485   8.474   1.175   7.686
17867TIP3    H153486   8.484   1.098   7.630
17867TIP3    H253487   8.399   1.221   7.649
17868TIP3   OH253488   8.072   2.030   7.530
17868TIP3    H153489   8.045   1.960   7.588
17868TIP3    H253490   8.092   1.987   7.447
17869TIP3   OH253491   1.482   6.286   0.294
17869TIP3    H153492   1.395   6.268   0.329
17869TIP3    H253493   1.505   6.208   0.244
17870TIP3   OH253494   0.674   6.525   0.120
17870TIP3    H153495   0.671   6.601   0.062
17870TIP3    H253496   0.584   6.514   0.150
17871TIP3   OH253497   6.748   1.183   7.864
17871TIP3    H153498   6.796   1.265   7.879
17871TIP3    H253499   6.667   1.194   7.913
17872TIP3   OH253500   0.757   6.283   0.020
17872TIP3    H153501   0.741   6.371   0.052
17872TIP3    H253502   0.733   6.226   0.094
17873TIP3   OH253503   0.947   6.849   0.559
17873TIP3    H153504   0.984   6.925   0.514
17873TIP3    H253505   1.019   6.815   0.613
17874TIP3   OH253506   7.124   2.127   7.971
17874TIP3    H153507   7.036   2.134   8.008
17874TIP3    H253508   7.159   2.216   7.976
17875TIP3   OH253509   1.325   6.498   0.550
17875TIP3    H153510   1.354   6.550   0.625
17875TIP3    H253511   1.405   6.478   0.501
17876TIP3   OH253512   7.832   1.776   7.409
17876TIP3    H153513   7.876   1.747   7.489
17876TIP3    H253514   7.743   1.742   7.417
17877TIP3   OH253515   1.544   7.072   0.584
17877TIP3    H153516   1.589   6.993   0.556
17877TIP3    H253517   1.521   7.118   0.503
17878TIP3   OH253518   8.141   2.235   7.215
17878TIP3    H153519   8.150   2.291   7.138
17878TIP3    H253520   8.072   2.277   7.267
17879TIP3   OH253521   7.980   1.681   7.616
17879TIP3    H153522   7.972   1.626   7.693
17879TIP3    H253523   8.074   1.692   7.603
17880TIP3   OH253524   0.375   6.752   0.731
17880TIP3    H153525   0.422   6.688   0.784
17880TIP3    H253526   0.393   6.836   0.774
17881TIP3   OH253527   7.184   1.766   7.446
17881TIP3    H153528   7.191   1.676   7.414
17881TIP3    H253529   7.170   1.757   7.540
17882TIP3   OH253530   7.125   1.753   7.718
17882TIP3    H153531   7.192   1.728   7.781
17882TIP3    H253532   7.124   1.849   7.721
17883TIP3   OH253533   6.853   1.436   7.919
17883TIP3    H153534   6.791   1.488   7.971
17883TIP3    H253535   6.875   1.492   7.845
17884TIP3   OH253536   7.397   1.943   7.642
17884TIP3    H153537   7.310   1.966   7.676
17884TIP3    H253538   7.419   2.015   7.583
17885TIP3   OH253539   1.069   5.596   0.072
17885TIP3    H153540   1.117   5.674   0.043
17885TIP3    H253541   1.013   5.628   0.143
17886TIP3   OH253542   7.146   2.025   7.718
17886TIP3    H153543   7.127   2.097   7.657
17886TIP3    H253544   7.136   2.064   7.805
17887TIP3   OH253545   1.602   6.020   0.240
17887TIP3    H153546   1.527   5.965   0.261
17887TIP3    H253547   1.649   6.029   0.324
17888TIP3   OH253548   6.882   1.619   7.707
17888TIP3    H153549   6.953   1.682   7.718
17888TIP3    H253550   6.914   1.557   7.641
17889TIP3   OH253551   6.758   0.911   7.812
17889TIP3    H153552   6.760   1.002   7.842
17889TIP3    H253553   6.724   0.862   7.887
17890TIP3   OH253554   1.576   6.993   0.138
17890TIP3    H153555   1.530   7.048   0.075
17890TIP3    H253556   1.668   7.015   0.127
17891TIP3   OH253557   0.175   6.508   0.085
17891TIP3    H153558   0.135   6.545   0.163
17891TIP3    H253559   0.129   6.550   0.012
17892TIP3   OH253560   0.374   7.048   1.152
17892TIP3    H153561   0.449   7.063   1.209
17892TIP3    H253562   0.375   6.954   1.135
17893TIP3   OH253563   0.813   6.972   1.187
17893TIP3    H153564   0.895   6.959   1.235
17893TIP3    H253565   0.812   6.902   1.122
17894TIP3   OH253566   7.345   1.945   7.316
17894TIP3    H153567   7.296   1.880   7.367
17894TIP3    H253568   7.416   1.896   7.276
17895TIP3   OH253569   7.782   1.982   7.237
17895TIP3    H153570   7.816   1.918   7.299
17895TIP3    H253571   7.839   1.975   7.161
17896TIP3   OH253572   0.488   6.443   1.341
17896TIP3    H153573   0.504   6.353   1.371
17896TIP3    H253574   0.401   6.440   1.301
17897TIP3   OH253575   7.003   1.435   7.550
17897TIP3    H153576   7.056   1.402   7.622
17897TIP3    H253577   7.067   1.464   7.485
17898TIP3   OH253578   0.898   6.401   1.068
17898TIP3    H153579   0.931   6.478   1.022
17898TIP3    H253580   0.976   6.349   1.086
17899TIP3   OH253581   7.575   1.678   7.389
17899TIP3    H153582   7.554   1.690   7.482
17899TIP3    H253583   7.578   1.583   7.378
17900TIP3   OH253584   0.573   6.182   1.381
17900TIP3    H153585   0.639   6.161   1.316
17900TIP3    H253586   0.621   6.188   1.463
17901TIP3   OH253587   7.175   1.362   7.759
17901TIP3    H153588   7.154   1.343   7.851
17901TIP3    H253589   7.217   1.282   7.728
17902TIP3   OH253590   0.929   6.048   0.966
17902TIP3    H153591   0.869   6.122   0.961
17902TIP3    H253592   0.986   6.058   0.890
17903TIP3   OH253593   7.306   1.164   7.603
17903TIP3    H153594   7.274   1.204   7.522
17903TIP3    H253595   7.397   1.191   7.608
17904TIP3   OH253596   8.104   1.485   7.245
17904TIP3    H153597   8.093   1.450   7.157
17904TIP3    H253598   8.083   1.578   7.237
17905TIP3   OH253599   1.074   6.114   0.737
17905TIP3    H153600   1.159   6.159   0.740
17905TIP3    H253601   1.013   6.181   0.707
17906TIP3   OH253602   7.148   2.234   7.537
17906TIP3    H153603   7.237   2.215   7.509
17906TIP3    H253604   7.107   2.277   7.461
17907TIP3   OH253605   6.609   1.617   7.726
17907TIP3    H153606   6.704   1.628   7.719
17907TIP3    H253607   6.591   1.535   7.680
17908TIP3   OH253608   9.779   6.815   0.172
17908TIP3    H153609   9.713   6.761   0.127
17908TIP3    H253610   9.824   6.754   0.230
17909TIP3   OH253611   0.124   6.647   0.337
17909TIP3    H153612   0.120   6.579   0.403
17909TIP3    H253613   0.175   6.717   0.378
17910TIP3   OH253614   1.837   7.075   0.129
17910TIP3    H153615   1.837   7.103   0.221
17910TIP3    H253616   1.880   7.147   0.082
17911TIP3   OH253617   1.821   7.116   0.402
17911TIP3    H153618   1.777   7.033   0.423
17911TIP3    H253619   1.910   7.105   0.435
17912TIP3   OH253620   8.254   1.702   7.581
17912TIP3    H153621   8.320   1.769   7.563
17912TIP3    H253622   8.281   1.664   7.665
17913TIP3   OH253623   8.327   1.578   7.812
17913TIP3    H153624   8.271   1.525   7.868
17913TIP3    H253625   8.391   1.617   7.871
17914TIP3   OH253626   1.939   6.572   0.183
17914TIP3    H153627   1.893   6.502   0.137
17914TIP3    H253628   1.918   6.651   0.133
17915TIP3   OH253629   1.697   6.875   0.457
17915TIP3    H153630   1.746   6.815   0.514
17915TIP3    H253631   1.664   6.820   0.386
17916TIP3   OH253632   8.315   1.488   7.422
17916TIP3    H153633   8.248   1.483   7.354
17916TIP3    H253634   8.292   1.567   7.472
17917TIP3   OH253635   8.247   1.178   7.330
17917TIP3    H153636   8.154   1.198   7.314
17917TIP3    H253637   8.245   1.120   7.407
17918TIP3   OH253638   8.180   1.405   7.968
17918TIP3    H153639   8.199   1.313   7.948
17918TIP3    H253640   8.165   1.406   8.063
17919TIP3   OH253641   0.290   6.093   0.706
17919TIP3    H153642   0.283   6.053   0.619
17919TIP3    H253643   0.383   6.085   0.729
17920TIP3   OH253644   8.219   1.143   7.866
17920TIP3    H153645   8.240   1.050   7.855
17920TIP3    H253646   8.245   1.183   7.783
17921TIP3   OH253647   0.270   5.753   0.751
17921TIP3    H153648   0.323   5.747   0.673
17921TIP3    H253649   0.326   5.798   0.815
17922TIP3   OH253650   7.956   2.353   7.793
17922TIP3    H153651   8.009   2.340   7.714
17922TIP3    H253652   7.997   2.428   7.837
17923TIP3   OH253653   0.501   6.779   1.151
17923TIP3    H153654   0.410   6.749   1.141
17923TIP3    H253655   0.520   6.766   1.244
17924TIP3   OH253656   0.726   6.808   0.717
17924TIP3    H153657   0.673   6.883   0.690
17924TIP3    H253658   0.808   6.817   0.669
17925TIP3   OH253659   1.123   7.034   0.825
17925TIP3    H153660   1.150   7.027   0.916
17925TIP3    H253661   1.190   7.087   0.783
17926TIP3   OH253662   1.320   7.192   0.718
17926TIP3    H153663   1.392   7.148   0.673
17926TIP3    H253664   1.363   7.251   0.780
17927TIP3   OH253665   0.388   7.050   0.769
17927TIP3    H153666   0.297   7.068   0.747
17927TIP3    H253667   0.410   7.116   0.835
17928TIP3   OH253668   0.617   7.041   0.617
17928TIP3    H153669   0.535   7.046   0.665
17928TIP3    H253670   0.593   7.064   0.527
17929TIP3   OH253671   1.029   7.063   0.404
17929TIP3    H153672   0.954   7.074   0.345
17929TIP3    H253673   1.041   7.149   0.445
17930TIP3   OH253674   1.287   6.975   0.437
17930TIP3    H153675   1.198   7.007   0.421
17930TIP3    H253676   1.344   7.043   0.402
17931TIP3   OH253677   1.474   7.161   0.335
17931TIP3    H153678   1.481   7.247   0.294
17931TIP3    H253679   1.508   7.100   0.269
17932TIP3   OH253680   0.294   6.829   0.480
17932TIP3    H153681   0.320   6.809   0.570
17932TIP3    H253682   0.366   6.795   0.426
17933TIP3   OH253683   0.496   6.712   0.342
17933TIP3    H153684   0.508   6.627   0.385
17933TIP3    H253685   0.583   6.752   0.345
17934TIP3   OH253686   0.763   6.797   0.360
17934TIP3    H153687   0.782   6.704   0.348
17934TIP3    H253688   0.817   6.823   0.435
17935TIP3   OH253689   6.585   2.008   7.872
17935TIP3    H153690   6.504   1.977   7.831
17935TIP3    H253691   6.594   2.098   7.840
17936TIP3   OH253692   7.404   2.164   7.465
17936TIP3    H153693   7.487   2.193   7.428
17936TIP3    H253694   7.374   2.095   7.406
17937TIP3   OH253695   8.098   2.300   7.561
17937TIP3    H153696   8.094   2.205   7.554
17937TIP3    H253697   8.054   2.331   7.482
17938TIP3   OH253698   6.700   1.995   7.515
17938TIP3    H153699   6.704   2.012   7.609
17938TIP3    H253700   6.784   1.952   7.495
17939TIP3   OH253701   1.648   7.107   0.835
17939TIP3    H153702   1.611   7.083   0.751
17939TIP3    H253703   1.693   7.190   0.819
17940TIP3   OH253704   8.496   1.340   7.901
17940TIP3    H153705   8.465   1.427   7.875
17940TIP3    H253706   8.485   1.286   7.823
17941TIP3   OH253707   8.574   1.654   7.900
17941TIP3    H153708   8.662   1.638   7.934
17941TIP3    H253709   8.586   1.659   7.805
17942TIP3   OH253710   9.422   2.054   7.441
17942TIP3    H153711   9.395   2.023   7.355
17942TIP3    H253712   9.405   2.148   7.439
17943TIP3   OH253713   8.454   1.875   7.490
17943TIP3    H153714   8.423   1.890   7.401
17943TIP3    H253715   8.474   1.963   7.524
17944TIP3   OH253716   9.363   1.433   7.081
17944TIP3    H153717   9.445   1.443   7.130
17944TIP3    H253718   9.367   1.343   7.047
17945TIP3   OH253719   9.363   2.320   7.386
17945TIP3    H153720   9.413   2.391   7.346
17945TIP3    H253721   9.302   2.292   7.317
17946TIP3   OH253722   8.896   1.648   7.530
17946TIP3    H153723   8.814   1.674   7.489
17946TIP3    H253724   8.877   1.563   7.570
17947TIP3   OH253725   1.934   6.824   0.071
17947TIP3    H153726   2.023   6.848   0.096
17947TIP3    H253727   1.882   6.900   0.093
17948TIP3   OH253728   9.170   2.647   7.194
17948TIP3    H153729   9.180   2.574   7.132
17948TIP3    H253730   9.249   2.699   7.183
17949TIP3   OH253731   8.666   2.369   7.575
17949TIP3    H153732   8.714   2.359   7.657
17949TIP3    H253733   8.617   2.288   7.566
17950TIP3   OH253734   9.472   2.429   6.864
17950TIP3    H153735   9.537   2.363   6.840
17950TIP3    H253736   9.492   2.450   6.955
17951TIP3   OH253737   9.518   2.491   7.131
17951TIP3    H153738   9.484   2.580   7.131
17951TIP3    H253739   9.595   2.494   7.188
17952TIP3   OH253740   9.628   1.655   6.843
17952TIP3    H153741   9.641   1.623   6.754
17952TIP3    H253742   9.672   1.740   6.845
17953TIP3   OH253743   8.939   1.354   7.343
17953TIP3    H153744   8.856   1.356   7.297
17953TIP3    H253745   9.005   1.359   7.274
17954TIP3   OH253746   9.140   1.869   7.290
17954TIP3    H153747   9.092   1.788   7.272
17954TIP3    H253748   9.145   1.872   7.385
17955TIP3   OH253749   9.318   1.982   7.114
17955TIP3    H153750   9.291   2.073   7.126
17955TIP3    H253751   9.260   1.932   7.172
17956TIP3   OH253752   0.107   2.304   6.900
17956TIP3    H153753   0.108   2.230   6.961
17956TIP3    H253754   0.023   2.296   6.854
17957TIP3   OH253755   8.941   2.121   7.577
17957TIP3    H153756   8.965   2.203   7.534
17957TIP3    H253757   8.846   2.123   7.581
17958TIP3   OH253758   8.579   1.458   7.354
17958TIP3    H153759   8.621   1.544   7.365
17958TIP3    H253760   8.489   1.472   7.382
17959TIP3   OH253761   9.074   1.876   7.561
17959TIP3    H153762   9.018   1.954   7.557
17959TIP3    H253763   9.012   1.802   7.559
17960TIP3   OH253764   8.912   2.374   7.451
17960TIP3    H153765   8.823   2.389   7.482
17960TIP3    H253766   8.951   2.461   7.446
17961TIP3   OH253767   9.615   1.984   6.907
17961TIP3    H153768   9.605   1.993   7.002
17961TIP3    H253769   9.533   1.944   6.878
17962TIP3   OH253770   2.162   6.971   0.183
17962TIP3    H153771   2.166   6.887   0.228
17962TIP3    H253772   2.195   7.034   0.247
17963TIP3   OH253773   8.986   2.003   6.913
17963TIP3    H153774   8.996   1.912   6.884
17963TIP3    H253775   8.963   1.996   7.006
17964TIP3   OH253776   8.921   2.003   7.181
17964TIP3    H153777   8.999   1.969   7.225
17964TIP3    H253778   8.928   2.098   7.192
17965TIP3   OH253779   8.664   1.718   7.402
17965TIP3    H153780   8.593   1.764   7.448
17965TIP3    H253781   8.679   1.771   7.323
17966TIP3   OH253782   9.217   2.235   7.166
17966TIP3    H153783   9.123   2.238   7.184
17966TIP3    H253784   9.231   2.301   7.099
17967TIP3   OH253785   8.949   2.272   7.201
17967TIP3    H153786   8.927   2.339   7.136
17967TIP3    H253787   8.931   2.313   7.285
17968TIP3   OH253788   8.676   1.881   7.176
17968TIP3    H153789   8.748   1.944   7.182
17968TIP3    H253790   8.708   1.815   7.114
17969TIP3   OH253791   8.527   1.189   7.321
17969TIP3    H153792   8.551   1.280   7.339
17969TIP3    H253793   8.432   1.188   7.325
17970TIP3   OH253794   8.501   2.141   7.567
17970TIP3    H153795   8.464   2.180   7.646
17970TIP3    H253796   8.455   2.183   7.495
17971TIP3   OH253797   9.141   2.207   6.815
17971TIP3    H153798   9.092   2.134   6.853
17971TIP3    H253799   9.214   2.165   6.770
17972TIP3   OH253800   9.662   2.231   6.789
17972TIP3    H153801   9.647   2.142   6.821
17972TIP3    H253802   9.650   2.225   6.694
17973TIP3   OH253803   8.807   1.689   7.034
17973TIP3    H153804   8.859   1.668   7.112
17973TIP3    H253805   8.871   1.706   6.965
17974TIP3   OH253806   9.363   1.892   6.856
17974TIP3    H153807   9.334   1.916   6.944
17974TIP3    H253808   9.338   1.800   6.847
17975TIP3   OH253809   8.983   1.642   7.253
17975TIP3    H153810   8.965   1.619   7.344
17975TIP3    H253811   9.023   1.563   7.216
17976TIP3   OH253812   9.085   1.421   7.114
17976TIP3    H153813   9.064   1.439   7.022
17976TIP3    H253814   9.181   1.424   7.118
17977TIP3   OH253815   8.936   2.468   7.010
17977TIP3    H153816   9.031   2.464   6.995
17977TIP3    H253817   8.903   2.517   6.935
17978TIP3   OH253818   8.406   1.875   7.208
17978TIP3    H153819   8.500   1.890   7.197
17978TIP3    H253820   8.390   1.791   7.167
17979TIP3   OH253821   8.301   2.458   7.650
17979TIP3    H153822   8.237   2.404   7.604
17979TIP3    H253823   8.350   2.396   7.704
17980TIP3   OH253824   8.450   2.287   7.805
17980TIP3    H153825   8.434   2.228   7.879
17980TIP3    H253826   8.502   2.359   7.842
17981TIP3   OH253827   9.738   2.549   7.291
17981TIP3    H153828   9.804   2.548   7.222
17981TIP3    H253829   9.767   2.617   7.351
17982TIP3   OH253830   2.161   7.301   0.198
17982TIP3    H153831   2.066   7.312   0.190
17982TIP3    H253832   2.188   7.371   0.257
17983TIP3   OH253833   2.388   7.261   0.051
17983TIP3    H153834   2.302   7.261   0.094
17983TIP3    H253835   2.373   7.310  -0.031
17984TIP3   OH253836   8.618   2.471   7.941
17984TIP3    H153837   8.636   2.446   8.031
17984TIP3    H253838   8.692   2.436   7.891
17985TIP3   OH253839   8.824   2.357   7.799
17985TIP3    H153840   8.847   2.291   7.865
17985TIP3    H253841   8.904   2.409   7.788
17986TIP3   OH253842   9.058   2.500   7.850
17986TIP3    H153843   9.142   2.458   7.872
17986TIP3    H253844   9.024   2.532   7.934
17987TIP3   OH253845   8.382   2.266   7.356
17987TIP3    H153846   8.299   2.237   7.317
17987TIP3    H253847   8.393   2.356   7.325
17988TIP3   OH253848   9.207   2.426   6.965
17988TIP3    H153849   9.292   2.451   6.930
17988TIP3    H253850   9.177   2.356   6.906
17989TIP3   OH253851   0.109   2.535   7.065
17989TIP3    H153852   0.115   2.452   7.017
17989TIP3    H253853   0.048   2.588   7.013
17990TIP3   OH253854   8.499   2.255   7.006
17990TIP3    H153855   8.503   2.274   7.099
17990TIP3    H253856   8.581   2.210   6.987
17991TIP3   OH253857   5.509   7.644   1.210
17991TIP3    H153858   5.501   7.682   1.122
17991TIP3    H253859   5.448   7.695   1.263
17992TIP3   OH253860   5.173   6.882   0.669
17992TIP3    H153861   5.260   6.919   0.684
17992TIP3    H253862   5.181   6.791   0.698
17993TIP3   OH253863   5.306   7.053   0.937
17993TIP3    H153864   5.383   7.086   0.983
17993TIP3    H253865   5.294   7.113   0.863
17994TIP3   OH253866   5.666   7.633   0.290
17994TIP3    H153867   5.672   7.728   0.300
17994TIP3    H253868   5.755   7.601   0.307
17995TIP3   OH253869   4.975   7.818   0.933
17995TIP3    H153870   4.935   7.905   0.926
17995TIP3    H253871   4.994   7.809   1.027
17996TIP3   OH253872   5.220   7.912   0.529
17996TIP3    H153873   5.293   7.877   0.477
17996TIP3    H253874   5.210   7.850   0.601
17997TIP3   OH253875   5.210   7.941   0.856
17997TIP3    H153876   5.123   7.904   0.868
17997TIP3    H253877   5.254   7.925   0.940
17998TIP3   OH253878   5.333   7.156   0.391
17998TIP3    H153879   5.300   7.072   0.359
17998TIP3    H253880   5.427   7.155   0.370
17999TIP3   OH253881   7.237   8.446   7.527
17999TIP3    H153882   7.142   8.454   7.519
17999TIP3    H253883   7.271   8.488   7.448
18000TIP3   OH253884   5.367   6.790   0.932
18000TIP3    H153885   5.429   6.792   1.004
18000TIP3    H253886   5.330   6.879   0.929
18001TIP3   OH253887   5.054   7.424   0.729
18001TIP3    H153888   5.014   7.505   0.760
18001TIP3    H253889   4.985   7.358   0.739
18002TIP3   OH253890   5.928   6.854   0.767
18002TIP3    H153891   5.952   6.813   0.684
18002TIP3    H253892   5.868   6.924   0.743
18003TIP3   OH253893   5.522   7.691   0.574
18003TIP3    H153894   5.478   7.623   0.624
18003TIP3    H253895   5.609   7.656   0.556
18004TIP3   OH253896   5.354   7.532   0.710
18004TIP3    H153897   5.380   7.467   0.776
18004TIP3    H253898   5.325   7.480   0.635
18005TIP3   OH253899   5.696   7.901   0.334
18005TIP3    H153900   5.744   7.980   0.309
18005TIP3    H253901   5.609   7.933   0.359
18006TIP3   OH253902   5.441   7.362   0.910
18006TIP3    H153903   5.360   7.361   0.961
18006TIP3    H253904   5.508   7.393   0.971
18007TIP3   OH253905   4.669   7.399   0.488
18007TIP3    H153906   4.720   7.321   0.466
18007TIP3    H253907   4.595   7.366   0.539
18008TIP3   OH253908   4.872   7.603   0.815
18008TIP3    H153909   4.819   7.564   0.885
18008TIP3    H253910   4.902   7.686   0.852
18009TIP3   OH253911   4.494   7.681   0.870
18009TIP3    H153912   4.540   7.628   0.806
18009TIP3    H253913   4.555   7.751   0.893
18010TIP3   OH253914   4.865   7.619   0.443
18010TIP3    H153915   4.848   7.528   0.465
18010TIP3    H253916   4.960   7.624   0.431
18011TIP3   OH253917   5.371   7.750   0.363
18011TIP3    H153918   5.441   7.730   0.425
18011TIP3    H253919   5.403   7.717   0.279
18012TIP3   OH253920   4.580   7.217   0.777
18012TIP3    H153921   4.586   7.144   0.715
18012TIP3    H253922   4.522   7.280   0.735
18013TIP3   OH253923   4.994   7.366   0.471
18013TIP3    H153924   5.029   7.397   0.555
18013TIP3    H253925   4.992   7.271   0.480
18014TIP3   OH253926   4.756   6.804   0.869
18014TIP3    H153927   4.725   6.740   0.804
18014TIP3    H253928   4.827   6.850   0.824
18015TIP3   OH253929   5.604   7.122   0.399
18015TIP3    H153930   5.623   7.131   0.306
18015TIP3    H253931   5.612   7.211   0.434
18016TIP3   OH253932   4.698   7.881   0.771
18016TIP3    H153933   4.792   7.890   0.753
18016TIP3    H253934   4.657   7.880   0.685
18017TIP3   OH253935   5.734   7.425   0.788
18017TIP3    H153936   5.783   7.491   0.738
18017TIP3    H253937   5.797   7.390   0.850
18018TIP3   OH253938   5.954   7.315   0.925
18018TIP3    H153939   5.908   7.263   0.992
18018TIP3    H253940   6.022   7.361   0.974
18019TIP3   OH253941   5.916   7.168   0.697
18019TIP3    H153942   5.887   7.224   0.625
18019TIP3    H253943   5.927   7.228   0.771
18020TIP3   OH253944   5.670   6.773   0.464
18020TIP3    H153945   5.674   6.854   0.516
18020TIP3    H253946   5.680   6.703   0.528
18021TIP3   OH253947   5.651   6.581   0.674
18021TIP3    H153948   5.740   6.546   0.679
18021TIP3    H253949   5.594   6.504   0.681
18022TIP3   OH253950   5.901   6.485   0.690
18022TIP3    H153951   5.944   6.409   0.651
18022TIP3    H253952   5.973   6.543   0.717
18023TIP3   OH253953   5.440   7.945   1.043
18023TIP3    H153954   5.508   7.910   0.985
18023TIP3    H253955   5.488   7.990   1.112
18024TIP3   OH253956   4.920   7.853   0.596
18024TIP3    H153957   5.015   7.849   0.598
18024TIP3    H253958   4.893   7.770   0.557
18025TIP3   OH253959   5.679   7.961   0.626
18025TIP3    H153960   5.600   7.958   0.680
18025TIP3    H253961   5.651   7.999   0.543
18026TIP3   OH253962   4.193   7.579   0.739
18026TIP3    H153963   4.168   7.672   0.741
18026TIP3    H253964   4.264   7.575   0.675
18027TIP3   OH253965   7.100   7.486   0.654
18027TIP3    H153966   7.065   7.572   0.628
18027TIP3    H253967   7.031   7.424   0.630
18028TIP3   OH253968   7.118   7.555   1.076
18028TIP3    H153969   7.186   7.522   1.135
18028TIP3    H253970   7.128   7.503   0.996
18029TIP3   OH253971   7.403   7.812   0.653
18029TIP3    H153972   7.364   7.744   0.708
18029TIP3    H253973   7.418   7.885   0.713
18030TIP3   OH253974   6.417   7.803   1.143
18030TIP3    H153975   6.426   7.732   1.079
18030TIP3    H253976   6.503   7.808   1.186
18031TIP3   OH253977   6.097   7.030   0.895
18031TIP3    H153978   6.088   7.123   0.873
18031TIP3    H253979   6.068   6.984   0.816
18032TIP3   OH253980   6.150   7.381   1.112
18032TIP3    H153981   6.143   7.287   1.128
18032TIP3    H253982   6.240   7.404   1.137
18033TIP3   OH253983   6.969   8.231   0.677
18033TIP3    H153984   7.001   8.165   0.616
18033TIP3    H253985   6.993   8.198   0.763
18034TIP3   OH253986   6.913   7.727   0.995
18034TIP3    H153987   6.905   7.638   0.961
18034TIP3    H253988   6.984   7.722   1.059
18035TIP3   OH253989   7.964   7.034   1.122
18035TIP3    H153990   8.027   7.106   1.128
18035TIP3    H253991   7.887   7.073   1.081
18036TIP3   OH253992   7.343   7.173   1.109
18036TIP3    H153993   7.340   7.085   1.148
18036TIP3    H253994   7.368   7.158   1.018
18037TIP3   OH253995   6.684   6.919   1.103
18037TIP3    H153996   6.618   6.966   1.052
18037TIP3    H253997   6.634   6.849   1.146
18038TIP3   OH253998   7.337   6.918   0.676
18038TIP3    H153999   7.339   6.934   0.771
18038TIP3    H254000   7.418   6.956   0.644
18039TIP3   OH254001   6.741   7.222   1.017
18039TIP3    H154002   6.830   7.232   1.049
18039TIP3    H254003   6.690   7.197   1.094
18040TIP3   OH254004   8.046   7.232   1.357
18040TIP3    H154005   7.957   7.199   1.345
18040TIP3    H254006   8.066   7.213   1.449
18041TIP3   OH254007   6.973   7.700   0.546
18041TIP3    H154008   6.953   7.685   0.453
18041TIP3    H254009   6.926   7.780   0.568
18042TIP3   OH254010   7.652   6.891   0.938
18042TIP3    H154011   7.663   6.923   1.028
18042TIP3    H254012   7.741   6.888   0.903
18043TIP3   OH254013   6.001   7.484   0.637
18043TIP3    H154014   5.924   7.491   0.581
18043TIP3    H254015   6.017   7.573   0.668
18044TIP3   OH254016   7.353   8.025   0.827
18044TIP3    H154017   7.266   8.000   0.796
18044TIP3    H254018   7.377   8.101   0.775
18045TIP3   OH254019   7.679   6.951   1.197
18045TIP3    H154020   7.636   6.889   1.255
18045TIP3    H254021   7.743   6.995   1.254
18046TIP3   OH254022   7.117   8.049   0.528
18046TIP3    H154023   7.167   7.973   0.497
18046TIP3    H254024   7.176   8.123   0.511
18047TIP3   OH254025   7.275   7.854   0.418
18047TIP3    H154026   7.269   7.769   0.376
18047TIP3    H254027   7.328   7.839   0.496
18048TIP3   OH254028   7.525   7.975   1.269
18048TIP3    H154029   7.611   7.937   1.252
18048TIP3    H254030   7.544   8.057   1.314
18049TIP3   OH254031   6.915   7.339   0.482
18049TIP3    H154032   6.840   7.394   0.461
18049TIP3    H254033   6.973   7.348   0.406
18050TIP3   OH254034   6.913   7.130   0.199
18050TIP3    H154035   6.975   7.190   0.240
18050TIP3    H254036   6.968   7.065   0.154
18051TIP3   OH254037   7.865   7.525   0.970
18051TIP3    H154038   7.782   7.556   1.006
18051TIP3    H254039   7.886   7.588   0.902
18052TIP3   OH254040   7.286   7.419   0.463
18052TIP3    H154041   7.237   7.444   0.541
18052TIP3    H254042   7.369   7.385   0.496
18053TIP3   OH254043   7.513   7.479   1.369
18053TIP3    H154044   7.502   7.456   1.461
18053TIP3    H254045   7.443   7.542   1.352
18054TIP3   OH254046   6.565   7.350   0.859
18054TIP3    H154047   6.488   7.302   0.890
18054TIP3    H254048   6.637   7.315   0.911
18055TIP3   OH254049   6.677   7.856   0.971
18055TIP3    H154050   6.652   7.829   0.883
18055TIP3    H254051   6.763   7.816   0.985
18056TIP3   OH254052   6.844   7.268   1.274
18056TIP3    H154053   6.755   7.244   1.301
18056TIP3    H254054   6.877   7.321   1.347
18057TIP3   OH254055   7.061   8.106   0.898
18057TIP3    H154056   7.102   8.114   0.984
18057TIP3    H254057   7.071   8.014   0.875
18058TIP3   OH254058   7.109   7.306   0.289
18058TIP3    H154059   7.175   7.352   0.342
18058TIP3    H254060   7.144   7.309   0.200
18059TIP3   OH254061   6.860   7.952   0.571
18059TIP3    H154062   6.950   7.982   0.562
18059TIP3    H254063   6.809   8.013   0.518
18060TIP3   OH254064   7.636   6.501   0.339
18060TIP3    H154065   7.564   6.532   0.394
18060TIP3    H254066   7.656   6.576   0.282
18061TIP3   OH254067   6.428   7.437   0.617
18061TIP3    H154068   6.365   7.418   0.547
18061TIP3    H254069   6.441   7.353   0.661
18062TIP3   OH254070   4.197   3.259   7.927
18062TIP3    H154071   4.191   3.353   7.909
18062TIP3    H254072   4.288   3.237   7.905
18063TIP3   OH254073   7.765   8.347   1.303
18063TIP3    H154074   7.788   8.269   1.253
18063TIP3    H254075   7.751   8.315   1.392
18064TIP3   OH254076   6.986   7.986   1.465
18064TIP3    H154077   6.994   8.081   1.457
18064TIP3    H254078   6.912   7.974   1.524
18065TIP3   OH254079   6.760   8.165   0.397
18065TIP3    H154080   6.714   8.150   0.314
18065TIP3    H254081   6.728   8.250   0.427
18066TIP3   OH254082   6.199   8.000   0.675
18066TIP3    H154083   6.235   7.952   0.749
18066TIP3    H254084   6.104   7.999   0.688
18067TIP3   OH254085   6.967   8.109   0.014
18067TIP3    H154086   7.017   8.035  -0.020
18067TIP3    H254087   6.999   8.121   0.104
18068TIP3   OH254088   7.009   8.144   0.284
18068TIP3    H154089   6.924   8.150   0.326
18068TIP3    H254090   7.065   8.102   0.349
18069TIP3   OH254091   7.210   7.267   0.041
18069TIP3    H154092   7.164   7.265  -0.043
18069TIP3    H254093   7.294   7.309   0.021
18070TIP3   OH254094   6.916   6.719   0.277
18070TIP3    H154095   6.877   6.726   0.364
18070TIP3    H254096   6.888   6.633   0.245
18071TIP3   OH254097   6.526   7.042   0.917
18071TIP3    H154098   6.463   6.970   0.910
18071TIP3    H254099   6.583   7.031   0.841
18072TIP3   OH254100   7.059   7.113   0.554
18072TIP3    H154101   7.008   7.184   0.514
18072TIP3    H254102   7.123   7.089   0.488
18073TIP3   OH254103   7.181   7.094   0.825
18073TIP3    H154104   7.232   7.175   0.825
18073TIP3    H254105   7.193   7.058   0.737
18074TIP3   OH254106   6.600   6.688   0.276
18074TIP3    H154107   6.581   6.677   0.370
18074TIP3    H254108   6.534   6.750   0.246
18075TIP3   OH254109   6.180   6.633   0.727
18075TIP3    H154110   6.273   6.621   0.749
18075TIP3    H254111   6.174   6.725   0.699
18076TIP3   OH254112   7.226   7.378   1.273
18076TIP3    H154113   7.271   7.308   1.226
18076TIP3    H254114   7.260   7.373   1.362
18077TIP3   OH254115   6.869   6.760   0.990
18077TIP3    H154116   6.811   6.823   1.032
18077TIP3    H254117   6.954   6.805   0.984
18078TIP3   OH254118   6.383   6.817   0.968
18078TIP3    H154119   6.293   6.823   0.998
18078TIP3    H254120   6.384   6.743   0.908
18079TIP3   OH254121   6.698   6.962   0.537
18079TIP3    H154122   6.696   7.051   0.572
18079TIP3    H254123   6.691   6.973   0.443
18080TIP3   OH254124   7.310   6.941   1.233
18080TIP3    H154125   7.247   6.993   1.283
18080TIP3    H254126   7.271   6.853   1.229
18081TIP3   OH254127   6.433   7.001   0.423
18081TIP3    H154128   6.373   6.945   0.375
18081TIP3    H254129   6.499   7.026   0.358
18082TIP3   OH254130   7.637   8.695   1.493
18082TIP3    H154131   7.610   8.656   1.410
18082TIP3    H254132   7.730   8.671   1.501
18083TIP3   OH254133   7.022   7.219   1.065
18083TIP3    H154134   7.047   7.127   1.069
18083TIP3    H254135   6.987   7.239   1.152
18084TIP3   OH254136   6.434   6.592   0.813
18084TIP3    H154137   6.443   6.549   0.898
18084TIP3    H254138   6.519   6.580   0.771
18085TIP3   OH254139   6.688   7.491   0.435
18085TIP3    H154140   6.615   7.432   0.420
18085TIP3    H254141   6.683   7.514   0.528
18086TIP3   OH254142   7.643   7.676   1.005
18086TIP3    H154143   7.687   7.746   0.956
18086TIP3    H254144   7.568   7.718   1.047
18087TIP3   OH254145   7.174   6.790   0.304
18087TIP3    H154146   7.080   6.784   0.289
18087TIP3    H254147   7.191   6.884   0.312
18088TIP3   OH254148   7.235   7.053   0.352
18088TIP3    H154149   7.329   7.051   0.373
18088TIP3    H254150   7.224   7.132   0.300
18089TIP3   OH254151   6.415   7.431   1.195
18089TIP3    H154152   6.453   7.474   1.119
18089TIP3    H254153   6.484   7.371   1.225
18090TIP3   OH254154   6.865   7.634   0.292
18090TIP3    H154155   6.825   7.721   0.285
18090TIP3    H254156   6.801   7.581   0.339
18091TIP3   OH254157   7.238   7.935   1.386
18091TIP3    H154158   7.152   7.954   1.423
18091TIP3    H254159   7.275   8.021   1.366
18092TIP3   OH254160   7.665   7.149   0.209
18092TIP3    H154161   7.603   7.110   0.147
18092TIP3    H254162   7.668   7.241   0.184
18093TIP3   OH254163   7.762   8.070   1.438
18093TIP3    H154164   7.786   8.008   1.507
18093TIP3    H254165   7.844   8.114   1.416
18094TIP3   OH254166   7.393   7.973   0.189
18094TIP3    H154167   7.353   7.920   0.258
18094TIP3    H254168   7.405   7.912   0.116
18095TIP3   OH254169   7.293   7.626   0.825
18095TIP3    H154170   7.232   7.555   0.804
18095TIP3    H254171   7.379   7.585   0.822
18096TIP3   OH254172   6.576   7.805   0.719
18096TIP3    H154173   6.577   7.890   0.675
18096TIP3    H254174   6.486   7.774   0.710
18097TIP3   OH254175   6.134   7.100   0.490
18097TIP3    H154176   6.150   7.192   0.468
18097TIP3    H254177   6.039   7.092   0.489
18098TIP3   OH254178   6.688   7.558   0.698
18098TIP3    H154179   6.660   7.650   0.701
18098TIP3    H254180   6.610   7.509   0.723
18099TIP3   OH254181   6.771   8.223   1.271
18099TIP3    H154182   6.793   8.218   1.178
18099TIP3    H254183   6.856   8.220   1.316
18100TIP3   OH254184   6.462   8.038   0.603
18100TIP3    H154185   6.369   8.028   0.622
18100TIP3    H254186   6.480   8.131   0.618
18101TIP3   OH254187   7.121   7.812   1.175
18101TIP3    H154188   7.164   7.836   1.257
18101TIP3    H254189   7.158   7.726   1.153
18102TIP3   OH254190   7.145   7.690   0.073
18102TIP3    H154191   7.191   7.666   0.153
18102TIP3    H254192   7.061   7.644   0.079
18103TIP3   OH254193   7.499   8.335   1.108
18103TIP3    H154194   7.410   8.343   1.143
18103TIP3    H254195   7.499   8.392   1.031
18104TIP3   OH254196   4.190   3.533   7.886
18104TIP3    H154197   4.207   3.592   7.813
18104TIP3    H254198   4.119   3.575   7.935
18105TIP3   OH254199   7.310   7.620   0.280
18105TIP3    H154200   7.301   7.549   0.344
18105TIP3    H254201   7.404   7.623   0.262
18106TIP3   OH254202   6.507   7.651   0.083
18106TIP3    H154203   6.519   7.560   0.056
18106TIP3    H254204   6.493   7.646   0.178
18107TIP3   OH254205   6.446   7.668   0.352
18107TIP3    H154206   6.508   7.640   0.419
18107TIP3    H254207   6.449   7.764   0.355
18108TIP3   OH254208   6.187   7.365   0.484
18108TIP3    H154209   6.117   7.398   0.540
18108TIP3    H254210   6.194   7.430   0.414
18109TIP3   OH254211   7.207   6.711   0.560
18109TIP3    H154212   7.183   6.730   0.470
18109TIP3    H254213   7.241   6.795   0.593
18110TIP3   OH254214   6.725   7.863   0.289
18110TIP3    H154215   6.637   7.880   0.322
18110TIP3    H254216   6.745   7.938   0.234
18111TIP3   OH254217   6.968   6.888   0.680
18111TIP3    H154218   7.004   6.960   0.629
18111TIP3    H254219   6.901   6.929   0.736
18112TIP3   OH254220   7.114   6.707   0.821
18112TIP3    H154221   7.065   6.781   0.786
18112TIP3    H254222   7.171   6.680   0.749
18113TIP3   OH254223   6.469   7.938   0.353
18113TIP3    H154224   6.446   8.010   0.295
18113TIP3    H254225   6.468   7.976   0.441
18114TIP3   OH254226   6.560   6.640   0.539
18114TIP3    H154227   6.523   6.708   0.595
18114TIP3    H254228   6.655   6.652   0.546
18115TIP3   OH254229   7.447   7.235   0.811
18115TIP3    H154230   7.400   7.316   0.827
18115TIP3    H254231   7.518   7.234   0.874
18116TIP3   OH254232   6.195   7.567   0.302
18116TIP3    H154233   6.268   7.626   0.322
18116TIP3    H254234   6.232   7.505   0.239
18117TIP3   OH254235   6.179   6.883   0.326
18117TIP3    H154236   6.164   6.954   0.389
18117TIP3    H254237   6.098   6.833   0.326
18118TIP3   OH254238   7.464   8.243   0.717
18118TIP3    H154239   7.411   8.318   0.692
18118TIP3    H254240   7.552   8.279   0.729
18119TIP3   OH254241   6.038   7.740   0.710
18119TIP3    H154242   6.010   7.779   0.793
18119TIP3    H254243   6.002   7.798   0.643
18120TIP3   OH254244   3.386   3.240   7.980
18120TIP3    H154245   3.341   3.167   8.023
18120TIP3    H254246   3.461   3.198   7.936
18121TIP3   OH254247   3.827   3.277   7.902
18121TIP3    H154248   3.861   3.212   7.964
18121TIP3    H254249   3.884   3.270   7.826
18122TIP3   OH254250   6.323   7.355   0.187
18122TIP3    H154251   6.369   7.325   0.266
18122TIP3    H254252   6.392   7.364   0.122
18123TIP3   OH254253   6.894   7.566   0.029
18123TIP3    H154254   6.872   7.578   0.121
18123TIP3    H254255   6.877   7.473   0.012
18124TIP3   OH254256   7.425   7.748   1.434
18124TIP3    H154257   7.506   7.797   1.420
18124TIP3    H254258   7.356   7.814   1.427
18125TIP3   OH254259   6.514   7.285   0.383
18125TIP3    H154260   6.529   7.252   0.472
18125TIP3    H254261   6.562   7.224   0.327
18126TIP3   OH254262   6.647   7.083   0.253
18126TIP3    H154263   6.612   7.081   0.165
18126TIP3    H254264   6.741   7.097   0.241
18127TIP3   OH254265   4.160   2.779   7.933
18127TIP3    H154266   4.147   2.735   7.849
18127TIP3    H254267   4.134   2.870   7.918
18128TIP3   OH254268   6.459   8.158   0.189
18128TIP3    H154269   6.549   8.140   0.162
18128TIP3    H254270   6.418   8.201   0.114
18129TIP3   OH254271   5.926   7.535   0.314
18129TIP3    H154272   6.018   7.560   0.319
18129TIP3    H254273   5.926   7.453   0.264
18130TIP3   OH254274   5.929   8.012   0.712
18130TIP3    H154275   5.837   8.005   0.685
18130TIP3    H254276   5.928   7.988   0.804
18131TIP3   OH254277   5.999   7.964   0.968
18131TIP3    H154278   5.967   7.917   1.045
18131TIP3    H254279   6.014   8.053   0.999
18132TIP3   OH254280   7.710   8.353   0.759
18132TIP3    H154281   7.707   8.406   0.839
18132TIP3    H254282   7.769   8.401   0.701
18133TIP3   OH254283   7.747   8.472   1.003
18133TIP3    H154284   7.683   8.439   1.066
18133TIP3    H254285   7.830   8.433   1.032
18134TIP3   OH254286   7.585   7.620   0.254
18134TIP3    H154287   7.646   7.688   0.225
18134TIP3    H254288   7.631   7.574   0.323
18135TIP3   OH254289   7.716   7.462   0.433
18135TIP3    H154290   7.654   7.416   0.490
18135TIP3    H254291   7.777   7.505   0.494
18136TIP3   OH254292   7.745   7.866   0.847
18136TIP3    H154293   7.819   7.818   0.811
18136TIP3    H254294   7.758   7.956   0.819
18137TIP3   OH254295   7.587   8.120   0.970
18137TIP3    H154296   7.548   8.191   1.021
18137TIP3    H254297   7.534   8.115   0.891
18138TIP3   OH254298   7.640   7.397   0.100
18138TIP3    H154299   7.567   7.391   0.039
18138TIP3    H254300   7.621   7.474   0.153
18139TIP3   OH254301   7.483   7.046   0.038
18139TIP3    H154302   7.427   7.066  -0.036
18139TIP3    H254303   7.479   6.951   0.046
18140TIP3   OH254304   7.516   7.301   0.548
18140TIP3    H154305   7.518   7.214   0.507
18140TIP3    H254306   7.513   7.282   0.642
18141TIP3   OH254307   7.928   7.790   1.441
18141TIP3    H154308   7.913   7.699   1.468
18141TIP3    H254309   7.996   7.784   1.374
18142TIP3   OH254310   7.898   7.523   1.503
18142TIP3    H154311   7.854   7.458   1.557
18142TIP3    H254312   7.991   7.501   1.512
18143TIP3   OH254313   7.450   6.778   0.040
18143TIP3    H154314   7.519   6.738   0.092
18143TIP3    H254315   7.376   6.717   0.047
18144TIP3   OH254316   7.502   7.058   0.410
18144TIP3    H154317   7.546   6.980   0.443
18144TIP3    H254318   7.559   7.090   0.340
18145TIP3   OH254319   7.655   7.184   0.968
18145TIP3    H154320   7.721   7.135   0.920
18145TIP3    H254321   7.703   7.226   1.039
18146TIP3   OH254322   7.832   7.303   1.127
18146TIP3    H154323   7.791   7.360   1.192
18146TIP3    H254324   7.863   7.362   1.059
18147TIP3   OH254325   7.626   6.818   0.473
18147TIP3    H154326   7.666   6.822   0.560
18147TIP3    H254327   7.566   6.744   0.477
18148TIP3   OH254328   7.687   6.707   0.168
18148TIP3    H154329   7.731   6.649   0.105
18148TIP3    H254330   7.740   6.786   0.168
18149TIP3   OH254331   6.203   6.573   0.991
18149TIP3    H154332   6.145   6.503   1.023
18149TIP3    H254333   6.170   6.592   0.903
18150TIP3   OH254334   7.254   8.270   0.450
18150TIP3    H154335   7.311   8.260   0.374
18150TIP3    H254336   7.301   8.330   0.508
18151TIP3   OH254337   6.578   8.144   1.455
18151TIP3    H154338   6.639   8.185   1.394
18151TIP3    H254339   6.553   8.062   1.412
18152TIP3   OH254340   7.174   8.434   1.481
18152TIP3    H154341   7.249   8.490   1.459
18152TIP3    H254342   7.119   8.489   1.537
18153TIP3   OH254343   6.484   8.365   1.243
18153TIP3    H154344   6.460   8.273   1.255
18153TIP3    H254345   6.509   8.371   1.151
18154TIP3   OH254346   6.954   8.405   0.929
18154TIP3    H154347   6.876   8.383   0.877
18154TIP3    H254348   6.939   8.495   0.957
18155TIP3   OH254349   7.048   8.267   1.141
18155TIP3    H154350   7.003   8.302   1.064
18155TIP3    H254351   7.130   8.317   1.145
18156TIP3   OH254352   7.451   8.504   0.899
18156TIP3    H154353   7.460   8.584   0.847
18156TIP3    H254354   7.373   8.461   0.862
18157TIP3   OH254355   6.137   8.078   1.281
18157TIP3    H154356   6.164   8.080   1.373
18157TIP3    H254357   6.217   8.090   1.232
18158TIP3   OH254358   6.330   7.923   0.905
18158TIP3    H154359   6.335   7.880   0.990
18158TIP3    H254360   6.415   7.966   0.895
18159TIP3   OH254361   6.548   8.090   0.908
18159TIP3    H154362   6.612   8.020   0.923
18159TIP3    H254363   6.582   8.164   0.957
18160TIP3   OH254364   7.169   6.723   1.184
18160TIP3    H154365   7.092   6.677   1.218
18160TIP3    H254366   7.218   6.656   1.136
18161TIP3   OH254367   7.665   6.617   0.975
18161TIP3    H154368   7.677   6.708   0.950
18161TIP3    H254369   7.576   6.613   1.011
18162TIP3   OH254370   7.774   6.783   0.697
18162TIP3    H154371   7.814   6.699   0.720
18162TIP3    H254372   7.848   6.839   0.674
18163TIP3   OH254373   6.339   6.287   0.899
18163TIP3    H154374   6.303   6.322   0.817
18163TIP3    H254375   6.364   6.364   0.949
18164TIP3   OH254376   6.763   6.529   1.084
18164TIP3    H154377   6.791   6.612   1.045
18164TIP3    H254378   6.816   6.522   1.163
18165TIP3   OH254379   7.412   6.603   1.079
18165TIP3    H154380   7.395   6.615   0.986
18165TIP3    H254381   7.381   6.514   1.098
18166TIP3   OH254382   7.452   6.607   0.515
18166TIP3    H154383   7.365   6.647   0.516
18166TIP3    H254384   7.437   6.518   0.546
18167TIP3   OH254385   5.934   7.857   0.466
18167TIP3    H154386   5.850   7.868   0.420
18167TIP3    H254387   5.957   7.945   0.495
18168TIP3   OH254388   6.346   6.529   0.416
18168TIP3    H154389   6.385   6.453   0.372
18168TIP3    H254390   6.416   6.565   0.470
18169TIP3   OH254391   6.834   6.694   0.537
18169TIP3    H154392   6.871   6.623   0.591
18169TIP3    H254393   6.880   6.772   0.567
18170TIP3   OH254394   6.713   8.085   0.119
18170TIP3    H154395   6.796   8.112   0.080
18170TIP3    H254396   6.682   8.014   0.063
18171TIP3   OH254397   7.413   8.239   0.227
18171TIP3    H154398   7.416   8.144   0.218
18171TIP3    H254399   7.371   8.269   0.147
18172TIP3   OH254400   6.016   7.900   0.169
18172TIP3    H154401   6.012   7.902   0.264
18172TIP3    H254402   6.101   7.860   0.150
18173TIP3   OH254403   7.654   8.401   1.559
18173TIP3    H154404   7.581   8.351   1.523
18173TIP3    H254405   7.620   8.489   1.573
18174TIP3   OH254406   8.907   7.745   0.149
18174TIP3    H154407   8.871   7.832   0.132
18174TIP3    H254408   8.837   7.684   0.125
18175TIP3   OH254409   8.899   7.744   0.561
18175TIP3    H154410   8.963   7.725   0.629
18175TIP3    H254411   8.860   7.659   0.540
18176TIP3   OH254412   8.199   7.626   0.862
18176TIP3    H154413   8.230   7.580   0.940
18176TIP3    H254414   8.279   7.644   0.812
18177TIP3   OH254415   9.179   8.051   0.244
18177TIP3    H154416   9.167   7.983   0.311
18177TIP3    H254417   9.197   8.131   0.293
18178TIP3   OH254418   8.212   8.036   0.617
18178TIP3    H154419   8.189   7.944   0.608
18178TIP3    H254420   8.306   8.040   0.596
18179TIP3   OH254421   7.876   7.233   0.380
18179TIP3    H154422   7.834   7.318   0.394
18179TIP3    H254423   7.811   7.182   0.332
18180TIP3   OH254424   7.952   7.555   0.558
18180TIP3    H154425   8.024   7.494   0.570
18180TIP3    H254426   7.990   7.629   0.510
18181TIP3   OH254427   8.840   8.466   0.268
18181TIP3    H154428   8.860   8.404   0.198
18181TIP3    H254429   8.855   8.417   0.348
18182TIP3   OH254430   8.724   7.967   0.566
18182TIP3    H154431   8.769   7.887   0.539
18182TIP3    H254432   8.793   8.025   0.597
18183TIP3   OH254433   9.754   7.285   0.589
18183TIP3    H154434   9.770   7.370   0.631
18183TIP3    H254435   9.786   7.297   0.500
18184TIP3   OH254436   9.121   7.449   0.600
18184TIP3    H154437   9.160   7.368   0.633
18184TIP3    H254438   9.074   7.421   0.521
18185TIP3   OH254439   8.475   7.089   0.556
18185TIP3    H154440   8.462   7.165   0.500
18185TIP3    H254441   8.421   7.020   0.517
18186TIP3   OH254442   9.170   7.209   0.205
18186TIP3    H154443   9.237   7.204   0.274
18186TIP3    H254444   9.217   7.245   0.130
18187TIP3   OH254445   8.146   7.374   0.610
18187TIP3    H154446   8.222   7.342   0.658
18187TIP3    H254447   8.134   7.310   0.539
18188TIP3   OH254448   8.525   7.527   0.498
18188TIP3    H154449   8.620   7.516   0.500
18188TIP3    H254450   8.491   7.442   0.470
18189TIP3   OH254451   9.804   7.505   0.757
18189TIP3    H154452   9.714   7.538   0.753
18189TIP3    H254453   9.838   7.537   0.841
18190TIP3   OH254454   8.475   7.134   0.974
18190TIP3    H154455   8.409   7.172   0.916
18190TIP3    H254456   8.430   7.125   1.058
18191TIP3   OH254457   8.761   7.952   0.041
18191TIP3    H154458   8.744   7.938  -0.052
18191TIP3    H254459   8.723   8.038   0.059
18192TIP3   OH254460   8.572   7.885   0.778
18192TIP3    H154461   8.527   7.958   0.821
18192TIP3    H254462   8.620   7.925   0.705
18193TIP3   OH254463   9.341   7.237   0.415
18193TIP3    H154464   9.298   7.213   0.497
18193TIP3    H254465   9.397   7.311   0.438
18194TIP3   OH254466   8.336   7.230   0.751
18194TIP3    H154467   8.400   7.299   0.766
18194TIP3    H254468   8.379   7.170   0.689
18195TIP3   OH254469   8.423   8.078   0.905
18195TIP3    H154470   8.376   8.156   0.878
18195TIP3    H254471   8.356   8.021   0.943
18196TIP3   OH254472   7.773   7.796   0.149
18196TIP3    H154473   7.744   7.813   0.060
18196TIP3    H254474   7.796   7.882   0.184
18197TIP3   OH254475   9.207   8.294   0.393
18197TIP3    H154476   9.118   8.288   0.427
18197TIP3    H254477   9.209   8.377   0.345
18198TIP3   OH254478   9.545   7.189   0.750
18198TIP3    H154479   9.462   7.217   0.710
18198TIP3    H254480   9.612   7.214   0.686
18199TIP3   OH254481   8.831   6.825   0.697
18199TIP3    H154482   8.824   6.732   0.720
18199TIP3    H254483   8.753   6.865   0.735
18200TIP3   OH254484   8.915   8.317   0.044
18200TIP3    H154485   8.966   8.238   0.031
18200TIP3    H254486   8.973   8.388   0.018
18201TIP3   OH254487   9.071   8.102  -0.006
18201TIP3    H154488   9.083   8.025  -0.063
18201TIP3    H254489   9.111   8.077   0.077
18202TIP3   OH254490   9.450   8.178   0.735
18202TIP3    H154491   9.430   8.106   0.676
18202TIP3    H254492   9.435   8.257   0.683
18203TIP3   OH254493   5.465   2.963   8.002
18203TIP3    H154494   5.385   3.012   7.983
18203TIP3    H254495   5.515   2.967   7.920
18204TIP3   OH254496   5.444   2.771   7.695
18204TIP3    H154497   5.508   2.823   7.744
18204TIP3    H254498   5.497   2.704   7.651
18205TIP3   OH254499   9.625   7.848   0.601
18205TIP3    H154500   9.540   7.891   0.597
18205TIP3    H254501   9.662   7.859   0.513
18206TIP3   OH254502   9.094   7.678  -0.038
18206TIP3    H154503   9.039   7.704   0.036
18206TIP3    H254504   9.177   7.650   0.003
18207TIP3   OH254505   9.329   7.718   0.897
18207TIP3    H154506   9.322   7.797   0.950
18207TIP3    H254507   9.252   7.721   0.840
18208TIP3   OH254508   8.317   7.653   0.356
18208TIP3    H154509   8.284   7.590   0.293
18208TIP3    H254510   8.393   7.609   0.395
18209TIP3   OH254511   8.467   8.074   0.505
18209TIP3    H154512   8.445   8.063   0.413
18209TIP3    H254513   8.556   8.040   0.513
18210TIP3   OH254514   8.422   7.667   0.712
18210TIP3    H154515   8.461   7.630   0.633
18210TIP3    H254516   8.477   7.743   0.733
18211TIP3   OH254517   8.962   8.292   0.514
18211TIP3    H154518   8.953   8.372   0.567
18211TIP3    H254519   8.953   8.221   0.577
18212TIP3   OH254520   8.606   8.197   1.072
18212TIP3    H154521   8.549   8.267   1.104
18212TIP3    H254522   8.551   8.145   1.014
18213TIP3   OH254523   5.658   2.917   7.799
18213TIP3    H154524   5.719   2.974   7.846
18213TIP3    H254525   5.686   2.923   7.707
18214TIP3   OH254526   8.474   7.759   1.120
18214TIP3    H154527   8.500   7.843   1.159
18214TIP3    H254528   8.400   7.780   1.063
18215TIP3   OH254529   8.660   8.213   0.054
18215TIP3    H154530   8.748   8.251   0.058
18215TIP3    H254531   8.609   8.276   0.003
18216TIP3   OH254532   8.421   8.400   1.107
18216TIP3    H154533   8.390   8.389   1.017
18216TIP3    H254534   8.341   8.407   1.159
18217TIP3   OH254535   6.169   2.143   7.857
18217TIP3    H154536   6.094   2.167   7.910
18217TIP3    H254537   6.182   2.218   7.799
18218TIP3   OH254538   8.194   7.488   0.165
18218TIP3    H154539   8.115   7.535   0.136
18218TIP3    H254540   8.164   7.398   0.178
18219TIP3   OH254541   5.993   3.517   7.412
18219TIP3    H154542   5.986   3.610   7.388
18219TIP3    H254543   6.083   3.493   7.389
18220TIP3   OH254544   8.004   7.982   0.972
18220TIP3    H154545   7.948   8.025   0.906
18220TIP3    H254546   7.965   7.896   0.984
18221TIP3   OH254547   7.848   8.113   0.777
18221TIP3    H154548   7.932   8.158   0.769
18221TIP3    H254549   7.784   8.184   0.785
18222TIP3   OH254550   9.675   8.555   0.801
18222TIP3    H154551   9.681   8.460   0.810
18222TIP3    H254552   9.596   8.579   0.848
18223TIP3   OH254553   8.785   8.338   0.921
18223TIP3    H154554   8.778   8.429   0.950
18223TIP3    H254555   8.722   8.290   0.975
18224TIP3   OH254556   5.295   3.806   7.885
18224TIP3    H154557   5.254   3.788   7.801
18224TIP3    H254558   5.259   3.891   7.911
18225TIP3   OH254559   7.995   8.285   0.253
18225TIP3    H154560   8.046   8.273   0.333
18225TIP3    H254561   7.948   8.203   0.242
18226TIP3   OH254562   5.497   3.742   7.509
18226TIP3    H154563   5.547   3.668   7.475
18226TIP3    H254564   5.533   3.757   7.597
18227TIP3   OH254565   5.550   3.788   7.779
18227TIP3    H154566   5.465   3.789   7.823
18227TIP3    H254567   5.611   3.755   7.844
18228TIP3   OH254568   9.560   7.663   1.075
18228TIP3    H154569   9.483   7.671   1.019
18228TIP3    H254570   9.584   7.570   1.071
18229TIP3   OH254571   8.208   8.175   1.092
18229TIP3    H154572   8.264   8.116   1.143
18229TIP3    H254573   8.152   8.117   1.041
18230TIP3   OH254574   8.596   6.931   0.780
18230TIP3    H154575   8.523   6.955   0.723
18230TIP3    H254576   8.610   7.007   0.836
18231TIP3   OH254577   9.177   7.034   1.084
18231TIP3    H154578   9.237   6.989   1.143
18231TIP3    H254579   9.092   6.992   1.101
18232TIP3   OH254580   9.317   7.447   0.965
18232TIP3    H154581   9.290   7.443   1.056
18232TIP3    H254582   9.306   7.539   0.941
18233TIP3   OH254583   5.730   2.904   7.536
18233TIP3    H154584   5.689   2.903   7.449
18233TIP3    H254585   5.816   2.944   7.521
18234TIP3   OH254586   5.420   2.321   7.842
18234TIP3    H154587   5.395   2.324   7.934
18234TIP3    H254588   5.401   2.232   7.814
18235TIP3   OH254589   8.518   7.421   0.813
18235TIP3    H154590   8.528   7.421   0.908
18235TIP3    H254591   8.491   7.511   0.792
18236TIP3   OH254592   8.394   7.301   0.402
18236TIP3    H154593   8.302   7.279   0.417
18236TIP3    H254594   8.411   7.273   0.313
18237TIP3   OH254595   8.859   7.379   0.129
18237TIP3    H154596   8.812   7.452   0.090
18237TIP3    H254597   8.918   7.348   0.060
18238TIP3   OH254598   9.096   7.692   1.196
18238TIP3    H154599   9.066   7.634   1.266
18238TIP3    H254600   9.190   7.699   1.209
18239TIP3   OH254601   9.009   7.381   0.359
18239TIP3    H154602   8.951   7.402   0.286
18239TIP3    H254603   9.067   7.313   0.325
18240TIP3   OH254604   8.293   7.519   1.092
18240TIP3    H154605   8.245   7.586   1.142
18240TIP3    H254606   8.284   7.440   1.144
18241TIP3   OH254607   5.100   2.283   7.832
18241TIP3    H154608   5.098   2.294   7.927
18241TIP3    H254609   5.024   2.333   7.800
18242TIP3   OH254610   7.983   6.938   0.621
18242TIP3    H154611   8.075   6.954   0.642
18242TIP3    H254612   7.985   6.899   0.533
18243TIP3   OH254613   7.840   6.941   0.166
18243TIP3    H154614   7.884   6.973   0.087
18243TIP3    H254615   7.779   7.010   0.189
18244TIP3   OH254616   9.084   7.667   0.756
18244TIP3    H154617   9.107   7.594   0.699
18244TIP3    H254618   9.051   7.626   0.836
18245TIP3   OH254619   8.748   7.094   0.450
18245TIP3    H154620   8.674   7.086   0.510
18245TIP3    H254621   8.825   7.096   0.508
18246TIP3   OH254622   8.145   7.182   0.420
18246TIP3    H154623   8.052   7.180   0.399
18246TIP3    H254624   8.176   7.094   0.402
18247TIP3   OH254625   8.402   7.183   0.156
18247TIP3    H154626   8.496   7.196   0.145
18247TIP3    H254627   8.364   7.204   0.071
18248TIP3   OH254628   9.200   7.184   0.644
18248TIP3    H154629   9.188   7.196   0.738
18248TIP3    H254630   9.127   7.128   0.617
18249TIP3   OH254631   5.015   2.588   7.916
18249TIP3    H154632   4.952   2.540   7.862
18249TIP3    H254633   5.069   2.636   7.854
18250TIP3   OH254634   9.389   8.891   0.891
18250TIP3    H154635   9.384   8.907   0.797
18250TIP3    H254636   9.468   8.936   0.919
18251TIP3   OH254637   8.353   8.054   1.297
18251TIP3    H154638   8.436   8.072   1.341
18251TIP3    H254639   8.292   8.036   1.368
18252TIP3   OH254640   8.800   7.476   0.528
18252TIP3    H154641   8.866   7.437   0.471
18252TIP3    H254642   8.807   7.427   0.610
18253TIP3   OH254643   8.284   6.939   0.393
18253TIP3    H154644   8.259   6.855   0.430
18253TIP3    H254645   8.311   6.919   0.304
18254TIP3   OH254646   8.786   7.362   0.781
18254TIP3    H154647   8.696   7.394   0.788
18254TIP3    H254648   8.836   7.418   0.839
18255TIP3   OH254649   5.230   3.101   7.942
18255TIP3    H154650   5.154   3.048   7.918
18255TIP3    H254651   5.205   3.145   8.023
18256TIP3   OH254652   9.389   7.982   0.553
18256TIP3    H154653   9.427   8.031   0.480
18256TIP3    H254654   9.310   7.941   0.516
18257TIP3   OH254655   5.681   2.421   7.847
18257TIP3    H154656   5.586   2.408   7.844
18257TIP3    H254657   5.692   2.515   7.859
18258TIP3   OH254658   8.902   8.059   0.961
18258TIP3    H154659   8.952   8.039   1.040
18258TIP3    H254660   8.873   8.150   0.973
18259TIP3   OH254661   5.757   2.681   7.918
18259TIP3    H154662   5.852   2.683   7.929
18259TIP3    H254663   5.738   2.760   7.867
18260TIP3   OH254664   8.184   7.759   0.571
18260TIP3    H154665   8.222   7.733   0.487
18260TIP3    H254666   8.245   7.725   0.636
18261TIP3   OH254667   5.386   3.263   7.787
18261TIP3    H154668   5.338   3.345   7.785
18261TIP3    H254669   5.333   3.204   7.841
18262TIP3   OH254670   8.166   7.701   1.285
18262TIP3    H154671   8.221   7.708   1.364
18262TIP3    H254672   8.129   7.613   1.290
18263TIP3   OH254673   8.872   7.848   1.240
18263TIP3    H154674   8.809   7.779   1.218
18263TIP3    H254675   8.956   7.813   1.212
18264TIP3   OH254676   9.056   8.351   0.852
18264TIP3    H154677   8.961   8.342   0.853
18264TIP3    H254678   9.077   8.390   0.937
18265TIP3   OH254679   6.167   2.778   7.744
18265TIP3    H154680   6.106   2.736   7.684
18265TIP3    H254681   6.178   2.867   7.710
18266TIP3   OH254682   9.693   8.279   0.821
18266TIP3    H154683   9.601   8.255   0.821
18266TIP3    H254684   9.727   8.244   0.738
18267TIP3   OH254685   5.909   3.590   7.671
18267TIP3    H154686   5.884   3.517   7.727
18267TIP3    H254687   5.933   3.550   7.588
18268TIP3   OH254688   9.163   7.848   0.443
18268TIP3    H154689   9.071   7.829   0.461
18268TIP3    H254690   9.198   7.766   0.409
18269TIP3   OH254691   8.325   8.084   0.263
18269TIP3    H154692   8.328   8.159   0.204
18269TIP3    H254693   8.235   8.084   0.297
18270TIP3   OH254694   4.610   2.747   7.966
18270TIP3    H154695   4.658   2.827   7.990
18270TIP3    H254696   4.528   2.753   8.015
18271TIP3   OH254697   8.387   7.837   0.158
18271TIP3    H154698   8.380   7.926   0.192
18271TIP3    H254699   8.366   7.781   0.232
18272TIP3   OH254700   8.594   8.399   0.718
18272TIP3    H154701   8.628   8.475   0.671
18272TIP3    H254702   8.668   8.368   0.770
18273TIP3   OH254703   8.234   8.306   0.115
18273TIP3    H154704   8.146   8.314   0.151
18273TIP3    H254705   8.270   8.395   0.120
18274TIP3   OH254706   8.952   8.071   0.689
18274TIP3    H154707   8.933   8.064   0.783
18274TIP3    H254708   9.035   8.025   0.679
18275TIP3   OH254709   5.681   3.329   7.582
18275TIP3    H154710   5.728   3.313   7.663
18275TIP3    H254711   5.595   3.289   7.596
18276TIP3   OH254712   9.206   8.563   0.734
18276TIP3    H154713   9.135   8.501   0.752
18276TIP3    H254714   9.173   8.616   0.662
18277TIP3   OH254715   5.982   3.789   7.362
18277TIP3    H154716   5.986   3.841   7.282
18277TIP3    H254717   5.917   3.834   7.416
18278TIP3   OH254718   8.305   7.332   1.284
18278TIP3    H154719   8.233   7.270   1.297
18278TIP3    H254720   8.384   7.278   1.287
18279TIP3   OH254721   5.855   3.278   7.798
18279TIP3    H154722   5.838   3.202   7.853
18279TIP3    H254723   5.948   3.272   7.777
18280TIP3   OH254724   8.066   8.281   0.822
18280TIP3    H154725   8.161   8.284   0.823
18280TIP3    H254726   8.040   8.311   0.910
18281TIP3   OH254727   5.025   3.295   7.583
18281TIP3    H154728   5.036   3.204   7.556
18281TIP3    H254729   5.014   3.290   7.678
18282TIP3   OH254730   4.970   3.305   7.858
18282TIP3    H154731   5.034   3.280   7.924
18282TIP3    H254732   4.968   3.400   7.860
18283TIP3   OH254733   7.969   7.615   0.060
18283TIP3    H154734   7.904   7.663   0.110
18283TIP3    H254735   7.992   7.673  -0.013
18284TIP3   OH254736   9.154   7.234   0.902
18284TIP3    H154737   9.206   7.310   0.927
18284TIP3    H254738   9.165   7.172   0.975
18285TIP3   OH254739   9.024   6.991   0.112
18285TIP3    H154740   9.003   7.012   0.020
18285TIP3    H254741   9.068   7.070   0.144
18286TIP3   OH254742   5.236   3.487   7.785
18286TIP3    H154743   5.153   3.513   7.824
18286TIP3    H254744   5.263   3.564   7.734
18287TIP3   OH254745   8.675   7.190   0.202
18287TIP3    H154746   8.737   7.257   0.176
18287TIP3    H254747   8.700   7.168   0.292
18288TIP3   OH254748   8.996   7.549   0.982
18288TIP3    H154749   9.031   7.598   1.056
18288TIP3    H254750   8.962   7.468   1.021
18289TIP3   OH254751   8.841   6.885   0.286
18289TIP3    H154752   8.822   6.961   0.339
18289TIP3    H254753   8.913   6.913   0.228
18290TIP3   OH254754   4.987   3.577   7.866
18290TIP3    H154755   4.970   3.649   7.805
18290TIP3    H254756   4.980   3.618   7.953
18291TIP3   OH254757   8.353   6.913   0.113
18291TIP3    H154758   8.347   7.008   0.129
18291TIP3    H254759   8.446   6.894   0.116
18292TIP3   OH254760   9.585   7.391   0.972
18292TIP3    H154761   9.489   7.400   0.973
18292TIP3    H254762   9.601   7.326   0.903
18293TIP3   OH254763   9.257   7.588   0.367
18293TIP3    H154764   9.182   7.536   0.395
18293TIP3    H254765   9.330   7.552   0.416
18294TIP3   OH254766   4.727   3.172   7.846
18294TIP3    H154767   4.799   3.235   7.856
18294TIP3    H254768   4.758   3.110   7.780
18295TIP3   OH254769   4.633   2.470   7.947
18295TIP3    H154770   4.645   2.564   7.960
18295TIP3    H254771   4.567   2.463   7.878
18296TIP3   OH254772   9.232   8.557   0.303
18296TIP3    H154773   9.191   8.610   0.235
18296TIP3    H254774   9.326   8.570   0.290
18297TIP3   OH254775   8.317   6.868   0.708
18297TIP3    H154776   8.281   6.818   0.635
18297TIP3    H254777   8.367   6.804   0.758
18298TIP3   OH254778   7.819   8.064   0.233
18298TIP3    H154779   7.780   8.104   0.311
18298TIP3    H254780   7.775   8.107   0.160
18299TIP3   OH254781   8.076   8.587   1.209
18299TIP3    H154782   8.153   8.575   1.264
18299TIP3    H254783   8.002   8.570   1.266
18300TIP3   OH254784   8.511   8.568   1.312
18300TIP3    H154785   8.593   8.535   1.349
18300TIP3    H254786   8.499   8.516   1.233
18301TIP3   OH254787   5.179   3.495   7.470
18301TIP3    H154788   5.134   3.425   7.516
18301TIP3    H254789   5.254   3.452   7.428
18302TIP3   OH254790   9.107   8.456   1.100
18302TIP3    H154791   9.123   8.385   1.161
18302TIP3    H254792   9.181   8.516   1.112
18303TIP3   OH254793   5.624   3.527   7.395
18303TIP3    H154794   5.661   3.465   7.458
18303TIP3    H254795   5.682   3.522   7.319
18304TIP3   OH254796   8.171   7.975   1.492
18304TIP3    H154797   8.171   7.886   1.526
18304TIP3    H254798   8.116   7.971   1.414
18305TIP3   OH254799   4.845   2.982   7.690
18305TIP3    H154800   4.896   2.957   7.766
18305TIP3    H254801   4.910   3.000   7.622
18306TIP3   OH254802   8.762   8.098   1.276
18306TIP3    H154803   8.718   8.117   1.194
18306TIP3    H254804   8.807   8.015   1.260
18307TIP3   OH254805   5.412   3.205   7.521
18307TIP3    H154806   5.393   3.216   7.614
18307TIP3    H254807   5.398   3.112   7.505
18308TIP3   OH254808   9.221   8.125   0.884
18308TIP3    H154809   9.300   8.151   0.836
18308TIP3    H254810   9.159   8.196   0.869
18309TIP3   OH254811   8.191   7.720   1.575
18309TIP3    H154812   8.196   7.625   1.565
18309TIP3    H254813   8.168   7.734   1.666
18310TIP3   OH254814   5.018   2.924   7.901
18310TIP3    H154815   5.001   2.896   7.991
18310TIP3    H254816   5.073   2.855   7.865
18311TIP3   OH254817   8.716   7.639   1.132
18311TIP3    H154818   8.635   7.689   1.134
18311TIP3    H254819   8.749   7.650   1.042
18312TIP3   OH254820   5.173   2.744   7.756
18312TIP3    H154821   5.142   2.756   7.666
18312TIP3    H254822   5.268   2.751   7.750
18313TIP3   OH254823   9.134   8.005   1.246
18313TIP3    H154824   9.197   7.970   1.183
18313TIP3    H254825   9.136   7.943   1.319
18314TIP3   OH254826   5.955   3.029   7.434
18314TIP3    H154827   5.945   2.988   7.348
18314TIP3    H254828   5.930   3.121   7.419
18315TIP3   OH254829   8.771   7.444   1.312
18315TIP3    H154830   8.797   7.374   1.252
18315TIP3    H254831   8.760   7.521   1.257
18316TIP3   OH254832   8.744   7.132   0.927
18316TIP3    H154833   8.760   7.199   0.861
18316TIP3    H254834   8.654   7.148   0.955
18317TIP3   OH254835   8.750   7.697   0.870
18317TIP3    H154836   8.837   7.728   0.844
18317TIP3    H254837   8.690   7.765   0.840
18318TIP3   OH254838   9.351   7.690   1.300
18318TIP3    H154839   9.372   7.603   1.333
18318TIP3    H254840   9.434   7.722   1.264
18319TIP3   OH254841   9.343   7.953   1.057
18319TIP3    H154842   9.292   8.014   1.004
18319TIP3    H254843   9.433   7.965   1.027
18320TIP3   OH254844   8.643   7.514   1.538
18320TIP3    H154845   8.551   7.493   1.527
18320TIP3    H254846   8.684   7.492   1.455
18321TIP3   OH254847   8.904   6.964   1.081
18321TIP3    H154848   8.862   7.006   1.006
18321TIP3    H254849   8.904   6.871   1.059
18322TIP3   OH254850   9.032   7.507   1.382
18322TIP3    H154851   9.067   7.491   1.470
18322TIP3    H254852   8.943   7.471   1.386
18323TIP3   OH254853   9.238   7.418   1.219
18323TIP3    H154854   9.158   7.445   1.263
18323TIP3    H254855   9.276   7.352   1.276
18324TIP3   OH254856   9.541   7.357   1.355
18324TIP3    H154857   9.493   7.274   1.357
18324TIP3    H254858   9.499   7.410   1.423
18325TIP3   OH254859   8.408   7.369   1.543
18325TIP3    H154860   8.403   7.276   1.519
18325TIP3    H254861   8.406   7.370   1.638
18326TIP3   OH254862   9.085   6.936   1.353
18326TIP3    H154863   9.138   6.871   1.399
18326TIP3    H254864   9.004   6.890   1.331
18327TIP3   OH254865   9.045   7.211   1.542
18327TIP3    H154866   9.029   7.127   1.584
18327TIP3    H254867   8.977   7.269   1.577
18328TIP3   OH254868   4.986   3.786   7.685
18328TIP3    H154869   5.077   3.767   7.659
18328TIP3    H254870   4.949   3.831   7.609
18329TIP3   OH254871   4.453   3.172   7.865
18329TIP3    H154872   4.548   3.183   7.858
18329TIP3    H254873   4.436   3.087   7.824
18330TIP3   OH254874   7.617   8.392   0.326
18330TIP3    H154875   7.550   8.341   0.281
18330TIP3    H254876   7.663   8.328   0.381
18331TIP3   OH254877   7.761   8.206   0.475
18331TIP3    H154878   7.737   8.144   0.543
18331TIP3    H254879   7.822   8.266   0.517
18332TIP3   OH254880   9.503   8.607   0.297
18332TIP3    H154881   9.521   8.639   0.385
18332TIP3    H254882   9.558   8.661   0.240
18333TIP3   OH254883   9.513   8.646   0.578
18333TIP3    H154884   9.469   8.561   0.574
18333TIP3    H254885   9.585   8.632   0.640
18334TIP3   OH254886   9.576   8.346   1.148
18334TIP3    H154887   9.507   8.355   1.214
18334TIP3    H254888   9.622   8.430   1.149
18335TIP3   OH254889   6.129   3.244   7.762
18335TIP3    H154890   6.187   3.312   7.730
18335TIP3    H254891   6.177   3.203   7.835
18336TIP3   OH254892   6.259   3.098   7.960
18336TIP3    H154893   6.193   3.060   8.018
18336TIP3    H254894   6.325   3.134   8.020
18337TIP3   OH254895   9.573   8.119   0.395
18337TIP3    H154896   9.626   8.051   0.353
18337TIP3    H254897   9.575   8.193   0.334
18338TIP3   OH254898   9.378   8.400   0.588
18338TIP3    H154899   9.312   8.447   0.638
18338TIP3    H254900   9.330   8.361   0.515
18339TIP3   OH254901   6.168   3.017   7.608
18339TIP3    H154902   6.095   3.014   7.545
18339TIP3    H254903   6.151   3.096   7.660
18340TIP3   OH254904   5.997   2.676   7.558
18340TIP3    H154905   5.959   2.702   7.474
18340TIP3    H254906   5.990   2.581   7.559
18341TIP3   OH254907   9.319   7.578   0.095
18341TIP3    H154908   9.327   7.484   0.081
18341TIP3    H254909   9.302   7.587   0.189
18342TIP3   OH254910   7.952   7.704   0.788
18342TIP3    H154911   7.949   7.666   0.700
18342TIP3    H254912   8.044   7.696   0.813
18343TIP3   OH254913   9.596   7.990   0.953
18343TIP3    H154914   9.663   7.924   0.938
18343TIP3    H254915   9.596   8.043   0.873
18344TIP3   OH254916   9.776   7.781   0.949
18344TIP3    H154917   9.705   7.738   0.995
18344TIP3    H254918   9.854   7.728   0.970
18345TIP3   OH254919   5.969   2.407   7.551
18345TIP3    H154920   6.046   2.372   7.595
18345TIP3    H254921   5.903   2.338   7.558
18346TIP3   OH254922   6.044   2.679   7.980
18346TIP3    H154923   6.092   2.597   7.994
18346TIP3    H254924   6.087   2.719   7.904
18347TIP3   OH254925   9.472   7.468   0.503
18347TIP3    H154926   9.553   7.485   0.455
18347TIP3    H254927   9.486   7.506   0.589
18348TIP3   OH254928   9.544   7.617   0.729
18348TIP3    H154929   9.473   7.647   0.786
18348TIP3    H254930   9.576   7.697   0.687
18349TIP3   OH254931   8.159   7.453   1.526
18349TIP3    H154932   8.252   7.446   1.503
18349TIP3    H254933   8.133   7.362   1.544
18350TIP3   OH254934   0.200   7.234   1.254
18350TIP3    H154935   0.263   7.166   1.229
18350TIP3    H254936   0.174   7.274   1.171
18351TIP3   OH254937   9.430   7.052   0.034
18351TIP3    H154938   9.476   7.038   0.117
18351TIP3    H254939   9.369   6.979   0.027
18352TIP3   OH254940   8.152   7.035   0.851
18352TIP3    H154941   8.212   6.967   0.820
18352TIP3    H254942   8.193   7.118   0.826
18353TIP3   OH254943   8.019   7.335   0.846
18353TIP3    H154944   8.063   7.359   0.765
18353TIP3    H254945   7.982   7.417   0.878
18354TIP3   OH254946   0.066   7.331   1.036
18354TIP3    H154947  -0.008   7.372   1.081
18354TIP3    H254948   0.028   7.252   0.996
18355TIP3   OH254949   6.211   2.339   7.671
18355TIP3    H154950   6.260   2.281   7.613
18355TIP3    H254951   6.265   2.419   7.674
18356TIP3   OH254952   7.908   6.808   0.390
18356TIP3    H154953   7.819   6.793   0.421
18356TIP3    H254954   7.898   6.861   0.311
18357TIP3   OH254955   5.787   3.905   7.944
18357TIP3    H154956   5.844   3.895   7.868
18357TIP3    H254957   5.829   3.973   7.996
18358TIP3   OH254958   8.131   6.828   1.200
18358TIP3    H154959   8.132   6.849   1.294
18358TIP3    H254960   8.079   6.899   1.161
18359TIP3   OH254961   8.218   8.345   1.309
18359TIP3    H154962   8.243   8.272   1.251
18359TIP3    H254963   8.289   8.349   1.373
18360TIP3   OH254964   8.349   8.351   0.838
18360TIP3    H154965   8.312   8.436   0.814
18360TIP3    H254966   8.436   8.351   0.799
18361TIP3   OH254967   8.769   8.600   1.007
18361TIP3    H154968   8.805   8.595   1.095
18361TIP3    H254969   8.831   8.654   0.958
18362TIP3   OH254970   8.960   8.754   0.882
18362TIP3    H154971   9.023   8.703   0.831
18362TIP3    H254972   9.014   8.813   0.936
18363TIP3   OH254973   9.766   7.076   0.964
18363TIP3    H154974   9.677   7.055   0.935
18363TIP3    H254975   9.813   6.992   0.961
18364TIP3   OH254976   8.027   8.603   0.913
18364TIP3    H154977   7.936   8.634   0.908
18364TIP3    H254978   8.036   8.571   1.003
18365TIP3   OH254979   8.260   8.599   0.765
18365TIP3    H154980   8.178   8.610   0.813
18365TIP3    H254981   8.239   8.628   0.676
18366TIP3   OH254982   8.672   8.615   0.563
18366TIP3    H154983   8.606   8.628   0.495
18366TIP3    H254984   8.685   8.701   0.602
18367TIP3   OH254985   8.935   8.548   0.613
18367TIP3    H154986   8.844   8.570   0.592
18367TIP3    H254987   8.987   8.614   0.565
18368TIP3   OH254988   9.134   8.713   0.508
18368TIP3    H154989   9.140   8.802   0.472
18368TIP3    H254990   9.166   8.657   0.437
18369TIP3   OH254991   7.944   8.384   0.601
18369TIP3    H154992   7.977   8.368   0.690
18369TIP3    H254993   8.013   8.351   0.544
18370TIP3   OH254994   8.152   8.262   0.476
18370TIP3    H154995   8.163   8.185   0.531
18370TIP3    H254996   8.237   8.307   0.481
18371TIP3   OH254997   8.416   8.352   0.509
18371TIP3    H154998   8.438   8.260   0.493
18371TIP3    H254999   8.472   8.378   0.582
18372TIP3   OH255000   8.988   7.015   0.574
18372TIP3    H155001   8.937   6.944   0.611
18372TIP3    H255002   9.052   6.972   0.517
18373TIP3   OH255003   9.474   6.923   0.490
18373TIP3    H155004   9.515   6.970   0.418
18373TIP3    H255005   9.383   6.952   0.489
18374TIP3   OH255006   9.589   6.998   0.255
18374TIP3    H155007   9.657   6.936   0.228
18374TIP3    H255008   9.628   7.084   0.242
18375TIP3   OH255009   8.214   6.705   0.515
18375TIP3    H155010   8.125   6.669   0.517
18375TIP3    H255011   8.270   6.630   0.534
18376TIP3   OH255012   8.017   6.601   0.234
18376TIP3    H155013   8.052   6.654   0.162
18376TIP3    H255014   7.987   6.665   0.299
18377TIP3   OH255015   8.676   6.762   0.472
18377TIP3    H155016   8.729   6.799   0.402
18377TIP3    H255017   8.724   6.783   0.552
18378TIP3   OH255018   9.188   6.883   0.440
18378TIP3    H155019   9.229   6.844   0.363
18378TIP3    H255020   9.186   6.811   0.504
18379TIP3   OH255021   9.246   6.841   0.039
18379TIP3    H155022   9.166   6.888   0.062
18379TIP3    H255023   9.234   6.754   0.077
18380TIP3   OH255024   4.432   3.569   8.023
18380TIP3    H155025   4.350   3.535   7.989
18380TIP3    H255026   4.438   3.658   7.987
18381TIP3   OH255027   8.138   6.749   0.023
18381TIP3    H155028   8.187   6.684  -0.028
18381TIP3    H255029   8.205   6.807   0.060
18382TIP3   OH255030   8.628   6.936   0.109
18382TIP3    H155031   8.691   6.886   0.161
18382TIP3    H255032   8.642   7.027   0.136
18383TIP3   OH255033   5.244   3.716   7.617
18383TIP3    H155034   5.327   3.743   7.578
18383TIP3    H255035   5.213   3.646   7.559
18384TIP3   OH255036   5.941   3.858   7.717
18384TIP3    H155037   5.935   3.763   7.707
18384TIP3    H255038   5.900   3.893   7.637
18385TIP3   OH255039   8.384   7.089   1.534
18385TIP3    H155040   8.381   6.998   1.562
18385TIP3    H255041   8.477   7.112   1.536
18386TIP3   OH255042   4.554   3.560   7.672
18386TIP3    H155043   4.559   3.572   7.767
18386TIP3    H255044   4.634   3.512   7.650
18387TIP3   OH255045   9.521   7.064   1.376
18387TIP3    H155046   9.531   7.046   1.469
18387TIP3    H255047   9.611   7.079   1.345
18388TIP3   OH255048   9.425   8.617   0.900
18388TIP3    H155049   9.352   8.587   0.846
18388TIP3    H255050   9.413   8.712   0.906
18389TIP3   OH255051   7.437   3.381   7.640
18389TIP3    H155052   7.402   3.468   7.622
18389TIP3    H255053   7.368   3.321   7.614
18390TIP3   OH255054   0.903   7.998   0.065
18390TIP3    H155055   0.956   7.978   0.142
18390TIP3    H255056   0.858   7.916   0.045
18391TIP3   OH255057   0.199   7.851   0.409
18391TIP3    H155058   0.239   7.800   0.480
18391TIP3    H255059   0.272   7.876   0.353
18392TIP3   OH255060   7.709   3.683   7.735
18392TIP3    H155061   7.691   3.617   7.803
18392TIP3    H255062   7.726   3.763   7.784
18393TIP3   OH255063   0.193   8.283   0.093
18393TIP3    H155064   0.175   8.190   0.099
18393TIP3    H255065   0.288   8.289   0.083
18394TIP3   OH255066   6.408   2.869   7.881
18394TIP3    H155067   6.370   2.954   7.904
18394TIP3    H255068   6.337   2.821   7.839
18395TIP3   OH255069   9.756   7.802   0.101
18395TIP3    H155070   9.806   7.724   0.125
18395TIP3    H255071   9.822   7.867   0.076
18396TIP3   OH255072   7.367   4.107   7.746
18396TIP3    H155073   7.392   4.047   7.676
18396TIP3    H255074   7.372   4.054   7.826
18397TIP3   OH255075   0.708   8.218   0.066
18397TIP3    H155076   0.754   8.139   0.037
18397TIP3    H255077   0.778   8.276   0.096
18398TIP3   OH255078   1.732   7.538   0.070
18398TIP3    H155079   1.744   7.623   0.112
18398TIP3    H255080   1.765   7.551  -0.019
18399TIP3   OH255081   1.113   7.704   0.102
18399TIP3    H155082   1.147   7.619   0.130
18399TIP3    H255083   1.078   7.689   0.015
18400TIP3   OH255084   0.471   7.361   0.060
18400TIP3    H155085   0.450   7.434   0.002
18400TIP3    H255086   0.416   7.289   0.029
18401TIP3   OH255087   7.703   2.847   7.700
18401TIP3    H155088   7.767   2.841   7.771
18401TIP3    H255089   7.752   2.881   7.626
18402TIP3   OH255090   0.096   7.579   0.190
18402TIP3    H155091   0.180   7.561   0.233
18402TIP3    H255092   0.099   7.528   0.109
18403TIP3   OH255093   0.513   7.778   0.011
18403TIP3    H155094   0.607   7.764   0.016
18403TIP3    H255095   0.478   7.696  -0.024
18404TIP3   OH255096   1.777   7.756   0.240
18404TIP3    H155097   1.690   7.796   0.235
18404TIP3    H255098   1.812   7.787   0.324
18405TIP3   OH255099   0.451   7.368   0.513
18405TIP3    H155100   0.400   7.404   0.440
18405TIP3    H255101   0.396   7.383   0.590
18406TIP3   OH255102   7.296   3.590   7.531
18406TIP3    H155103   7.274   3.572   7.440
18406TIP3    H255104   7.259   3.677   7.549
18407TIP3   OH255105   0.542   8.143   0.275
18407TIP3    H155106   0.490   8.216   0.308
18407TIP3    H255107   0.591   8.181   0.202
18408TIP3   OH255108   7.860   2.868   7.922
18408TIP3    H155109   7.818   2.847   8.005
18408TIP3    H255110   7.915   2.944   7.942
18409TIP3   OH255111   0.343   7.475   0.281
18409TIP3    H155112   0.399   7.549   0.304
18409TIP3    H255113   0.390   7.431   0.210
18410TIP3   OH255114   0.390   8.348   0.383
18410TIP3    H155115   0.377   8.438   0.352
18410TIP3    H255116   0.312   8.329   0.435
18411TIP3   OH255117   6.299   3.430   7.640
18411TIP3    H155118   6.268   3.448   7.552
18411TIP3    H255119   6.322   3.516   7.676
18412TIP3   OH255120   7.740   3.930   7.881
18412TIP3    H155121   7.652   3.925   7.918
18412TIP3    H255122   7.741   4.012   7.833
18413TIP3   OH255123   1.533   7.428   0.241
18413TIP3    H155124   1.446   7.451   0.210
18413TIP3    H255125   1.592   7.456   0.171
18414TIP3   OH255126   0.791   7.061   0.247
18414TIP3    H155127   0.782   6.968   0.269
18414TIP3    H255128   0.713   7.102   0.285
18415TIP3   OH255129   7.452   3.962   7.524
18415TIP3    H155130   7.503   3.881   7.514
18415TIP3    H255131   7.513   4.032   7.499
18416TIP3   OH255132   7.604   3.741   7.484
18416TIP3    H155133   7.611   3.666   7.425
18416TIP3    H255134   7.642   3.712   7.566
18417TIP3   OH255135   1.449   8.428   0.222
18417TIP3    H155136   1.424   8.358   0.162
18417TIP3    H255137   1.436   8.509   0.172
18418TIP3   OH255138   7.262   3.219   7.493
18418TIP3    H155139   7.180   3.266   7.476
18418TIP3    H255140   7.309   3.220   7.409
18419TIP3   OH255141   7.231   3.034   7.175
18419TIP3    H155142   7.296   3.081   7.227
18419TIP3    H255143   7.282   2.966   7.130
18420TIP3   OH255144   1.614   8.103   0.086
18420TIP3    H155145   1.529   8.147   0.082
18420TIP3    H255146   1.651   8.113  -0.001
18421TIP3   OH255147   7.622   3.315   7.450
18421TIP3    H155148   7.567   3.341   7.523
18421TIP3    H255149   7.705   3.288   7.490
18422TIP3   OH255150   1.312   7.965   0.397
18422TIP3    H155151   1.302   8.046   0.447
18422TIP3    H255152   1.230   7.958   0.347
18423TIP3   OH255153   6.847   3.290   7.859
18423TIP3    H155154   6.812   3.229   7.793
18423TIP3    H255155   6.921   3.243   7.898
18424TIP3   OH255156   6.989   3.714   8.000
18424TIP3    H155157   6.964   3.702   7.908
18424TIP3    H255158   7.076   3.676   8.006
18425TIP3   OH255159   0.410   7.906   0.233
18425TIP3    H155160   0.449   7.869   0.154
18425TIP3    H255161   0.458   7.988   0.247
18426TIP3   OH255162   0.967   8.552   0.009
18426TIP3    H155163   0.954   8.630   0.062
18426TIP3    H255164   0.951   8.479   0.070
18427TIP3   OH255165   0.586   8.442   0.555
18427TIP3    H155166   0.524   8.499   0.601
18427TIP3    H255167   0.532   8.392   0.495
18428TIP3   OH255168   7.453   3.171   7.285
18428TIP3    H155169   7.512   3.230   7.333
18428TIP3    H255170   7.483   3.175   7.194
18429TIP3   OH255171   0.342   7.987   0.703
18429TIP3    H155172   0.346   8.082   0.718
18429TIP3    H255173   0.248   7.968   0.694
18430TIP3   OH255174   7.198   3.852   7.544
18430TIP3    H155175   7.285   3.892   7.543
18430TIP3    H255176   7.144   3.912   7.493
18431TIP3   OH255177   0.378   8.602   0.642
18431TIP3    H155178   0.354   8.614   0.550
18431TIP3    H255179   0.294   8.587   0.687
18432TIP3   OH255180   7.959   2.398   7.343
18432TIP3    H155181   7.884   2.420   7.397
18432TIP3    H255182   7.971   2.474   7.286
18433TIP3   OH255183   6.724   3.130   7.658
18433TIP3    H155184   6.646   3.178   7.628
18433TIP3    H255185   6.693   3.041   7.671
18434TIP3   OH255186   7.793   3.789   6.889
18434TIP3    H155187   7.788   3.881   6.864
18434TIP3    H255188   7.883   3.763   6.865
18435TIP3   OH255189   9.774   8.160   0.590
18435TIP3    H155190   9.705   8.142   0.526
18435TIP3    H255191   9.808   8.074   0.614
18436TIP3   OH255192   9.617   8.353   0.243
18436TIP3    H155193   9.708   8.377   0.257
18436TIP3    H255194   9.567   8.431   0.271
18437TIP3   OH255195   1.672   8.816   0.287
18437TIP3    H155196   1.678   8.721   0.294
18437TIP3    H255197   1.591   8.839   0.334
18438TIP3   OH255198   0.777   8.588   0.422
18438TIP3    H155199   0.768   8.678   0.454
18438TIP3    H255200   0.708   8.540   0.468
18439TIP3   OH255201   7.092   4.063   7.371
18439TIP3    H155202   7.050   4.043   7.288
18439TIP3    H255203   7.053   4.147   7.397
18440TIP3   OH255204   6.524   3.922   7.748
18440TIP3    H155205   6.569   3.912   7.832
18440TIP3    H255206   6.475   3.840   7.737
18441TIP3   OH255207   7.289   4.003   6.995
18441TIP3    H155208   7.341   3.932   6.958
18441TIP3    H255209   7.328   4.019   7.081
18442TIP3   OH255210   7.346   4.045   7.266
18442TIP3    H155211   7.260   4.048   7.307
18442TIP3    H255212   7.403   4.006   7.333
18443TIP3   OH255213   1.559   7.926   0.544
18443TIP3    H155214   1.474   7.938   0.503
18443TIP3    H255215   1.579   7.833   0.532
18444TIP3   OH255216   0.175   8.348   0.556
18444TIP3    H155217   0.225   8.333   0.636
18444TIP3    H255218   0.102   8.286   0.562
18445TIP3   OH255219   0.553   7.151   0.371
18445TIP3    H155220   0.469   7.118   0.339
18445TIP3    H255221   0.531   7.232   0.417
18446TIP3   OH255222   1.095   7.277   0.567
18446TIP3    H155223   1.166   7.250   0.626
18446TIP3    H255224   1.015   7.260   0.617
18447TIP3   OH255225   1.325   7.699   0.484
18447TIP3    H155226   1.276   7.692   0.566
18447TIP3    H255227   1.307   7.788   0.452
18448TIP3   OH255228   7.534   3.155   7.024
18448TIP3    H155229   7.486   3.158   6.941
18448TIP3    H255230   7.616   3.200   7.006
18449TIP3   OH255231   7.241   2.571   7.342
18449TIP3    H155232   7.203   2.579   7.430
18449TIP3    H255233   7.205   2.489   7.308
18450TIP3   OH255234   0.495   7.685   0.380
18450TIP3    H155235   0.451   7.691   0.464
18450TIP3    H255236   0.473   7.767   0.335
18451TIP3   OH255237   6.908   2.943   7.903
18451TIP3    H155238   6.819   2.919   7.927
18451TIP3    H255239   6.918   2.912   7.813
18452TIP3   OH255240   7.387   3.016   7.629
18452TIP3    H155241   7.339   3.088   7.589
18452TIP3    H255242   7.445   2.984   7.560
18453TIP3   OH255243   1.048   7.913   0.706
18453TIP3    H155244   1.018   7.845   0.767
18453TIP3    H255245   1.142   7.921   0.724
18454TIP3   OH255246   7.556   3.033   7.851
18454TIP3    H155247   7.487   3.053   7.788
18454TIP3    H255248   7.604   2.959   7.812
18455TIP3   OH255249   0.335   7.699   0.603
18455TIP3    H155250   0.348   7.763   0.674
18455TIP3    H255251   0.317   7.617   0.648
18456TIP3   OH255252   6.909   2.554   7.318
18456TIP3    H155253   6.900   2.559   7.413
18456TIP3    H255254   6.832   2.599   7.284
18457TIP3   OH255255   9.723   7.219   0.182
18457TIP3    H155256   9.794   7.256   0.234
18457TIP3    H255257   9.761   7.204   0.096
18458TIP3   OH255258   6.354   2.578   7.688
18458TIP3    H155259   6.402   2.616   7.614
18458TIP3    H255260   6.289   2.645   7.710
18459TIP3   OH255261   1.065   7.904   0.278
18459TIP3    H155262   1.088   7.838   0.213
18459TIP3    H255263   1.022   7.856   0.348
18460TIP3   OH255264   7.274   2.732   7.953
18460TIP3    H155265   7.196   2.731   8.009
18460TIP3    H255266   7.347   2.724   8.015
18461TIP3   OH255267   6.669   2.818   7.961
18461TIP3    H155268   6.581   2.823   7.923
18461TIP3    H255269   6.697   2.728   7.944
18462TIP3   OH255270   6.921   2.823   7.656
18462TIP3    H155271   7.016   2.832   7.646
18462TIP3    H255272   6.887   2.840   7.568
18463TIP3   OH255273   1.189   7.442   0.159
18463TIP3    H155274   1.170   7.460   0.251
18463TIP3    H255275   1.120   7.381   0.133
18464TIP3   OH255276   6.812   2.846   7.405
18464TIP3    H155277   6.750   2.796   7.353
18464TIP3    H255278   6.866   2.893   7.341
18465TIP3   OH255279   1.385   9.148   0.374
18465TIP3    H155280   1.378   9.162   0.279
18465TIP3    H255281   1.464   9.194   0.400
18466TIP3   OH255282   0.327   8.257   0.789
18466TIP3    H155283   0.407   8.277   0.837
18466TIP3    H255284   0.257   8.266   0.855
18467TIP3   OH255285   0.787   7.729   0.057
18467TIP3    H155286   0.853   7.679   0.008
18467TIP3    H255287   0.786   7.688   0.144
18468TIP3   OH255288   6.809   2.569   7.946
18468TIP3    H155289   6.781   2.494   7.998
18468TIP3    H255290   6.829   2.533   7.860
18469TIP3   OH255291   0.762   7.632   0.321
18469TIP3    H155292   0.675   7.663   0.346
18469TIP3    H255293   0.822   7.682   0.376
18470TIP3   OH255294   7.024   3.355   7.437
18470TIP3    H155295   6.949   3.302   7.412
18470TIP3    H255296   6.998   3.397   7.519
18471TIP3   OH255297   1.379   8.237   0.039
18471TIP3    H155298   1.415   8.286  -0.035
18471TIP3    H255299   1.300   8.195   0.004
18472TIP3   OH255300   7.494   2.674   7.350
18472TIP3    H155301   7.401   2.652   7.344
18472TIP3    H255302   7.496   2.769   7.359
18473TIP3   OH255303   0.904   8.322   0.453
18473TIP3    H155304   0.954   8.310   0.534
18473TIP3    H255305   0.865   8.409   0.461
18474TIP3   OH255306   7.551   2.941   7.414
18474TIP3    H155307   7.646   2.945   7.423
18474TIP3    H255308   7.528   3.018   7.361
18475TIP3   OH255309   0.180   7.992   0.084
18475TIP3    H155310   0.218   7.975  -0.002
18475TIP3    H255311   0.247   7.964   0.147
18476TIP3   OH255312   7.179   3.516   7.281
18476TIP3    H155313   7.132   3.599   7.278
18476TIP3    H255314   7.124   3.459   7.334
18477TIP3   OH255315   0.067   7.926   0.721
18477TIP3    H155316   0.069   7.900   0.812
18477TIP3    H255317  -0.008   7.879   0.684
18478TIP3   OH255318   0.812   8.062   0.739
18478TIP3    H155319   0.743   8.001   0.711
18478TIP3    H255320   0.893   8.021   0.710
18479TIP3   OH255321   1.047   8.614   0.344
18479TIP3    H155322   0.953   8.599   0.347
18479TIP3    H255323   1.068   8.649   0.431
18480TIP3   OH255324   7.963   3.031   7.229
18480TIP3    H155325   7.906   2.986   7.167
18480TIP3    H255326   7.970   3.120   7.195
18481TIP3   OH255327   1.691   8.542   0.303
18481TIP3    H155328   1.600   8.513   0.310
18481TIP3    H255329   1.723   8.504   0.221
18482TIP3   OH255330   7.712   3.855   7.150
18482TIP3    H155331   7.681   3.781   7.202
18482TIP3    H255332   7.733   3.818   7.065
18483TIP3   OH255333   7.686   3.480   7.939
18483TIP3    H155334   7.597   3.458   7.964
18483TIP3    H255335   7.721   3.400   7.900
18484TIP3   OH255336   6.848   3.718   7.757
18484TIP3    H155337   6.848   3.794   7.699
18484TIP3    H255338   6.756   3.708   7.783
18485TIP3   OH255339   6.403   3.001   7.464
18485TIP3    H155340   6.447   3.083   7.486
18485TIP3    H255341   6.323   3.001   7.515
18486TIP3   OH255342   6.920   3.471   7.658
18486TIP3    H155343   6.910   3.560   7.690
18486TIP3    H255344   6.896   3.416   7.733
18487TIP3   OH255345   0.595   8.660   0.210
18487TIP3    H155346   0.629   8.733   0.159
18487TIP3    H255347   0.670   8.628   0.260
18488TIP3   OH255348   6.762   3.940   7.607
18488TIP3    H155349   6.674   3.947   7.645
18488TIP3    H255350   6.797   4.028   7.612
18489TIP3   OH255351   0.941   8.328   0.178
18489TIP3    H155352   0.930   8.322   0.273
18489TIP3    H255353   1.013   8.268   0.159
18490TIP3   OH255354   7.486   3.587   7.057
18490TIP3    H155355   7.524   3.570   7.143
18490TIP3    H255356   7.402   3.541   7.058
18491TIP3   OH255357   1.205   8.816   0.218
18491TIP3    H155358   1.133   8.757   0.239
18491TIP3    H255359   1.171   8.872   0.148
18492TIP3   OH255360   7.795   4.064   6.847
18492TIP3    H155361   7.837   4.136   6.800
18492TIP3    H255362   7.715   4.102   6.884
18493TIP3   OH255363   0.280   7.445   0.721
18493TIP3    H155364   0.185   7.455   0.725
18493TIP3    H255365   0.303   7.394   0.798
18494TIP3   OH255366   7.647   3.536   7.284
18494TIP3    H155367   7.630   3.459   7.339
18494TIP3    H255368   7.740   3.530   7.263
18495TIP3   OH255369   0.022   8.560   0.369
18495TIP3    H155370   0.075   8.503   0.423
18495TIP3    H255371   0.036   8.648   0.405
18496TIP3   OH255372   6.817   3.549   7.069
18496TIP3    H155373   6.829   3.458   7.042
18496TIP3    H255374   6.804   3.544   7.164
18497TIP3   OH255375   6.763   3.563   7.343
18497TIP3    H155376   6.829   3.536   7.407
18497TIP3    H255377   6.763   3.659   7.347
18498TIP3   OH255378   6.497   3.251   7.550
18498TIP3    H155379   6.433   3.300   7.601
18498TIP3    H255380   6.518   3.309   7.477
18499TIP3   OH255381   1.130   7.506   0.418
18499TIP3    H155382   1.206   7.550   0.456
18499TIP3    H255383   1.117   7.430   0.475
18500TIP3   OH255384   7.554   2.627   7.617
18500TIP3    H155385   7.533   2.644   7.525
18500TIP3    H255386   7.598   2.707   7.647
18501TIP3   OH255387   7.034   3.745   7.276
18501TIP3    H155388   6.951   3.772   7.314
18501TIP3    H255389   7.060   3.819   7.221
18502TIP3   OH255390   7.200   2.827   7.702
18502TIP3    H155391   7.262   2.894   7.675
18502TIP3    H255392   7.225   2.806   7.793
18503TIP3   OH255393   0.970   7.740   0.477
18503TIP3    H155394   0.998   7.779   0.560
18503TIP3    H255395   1.018   7.657   0.472
18504TIP3   OH255396   7.365   2.522   7.789
18504TIP3    H155397   7.341   2.600   7.840
18504TIP3    H255398   7.435   2.552   7.731
18505TIP3   OH255399   6.786   3.836   7.355
18505TIP3    H155400   6.769   3.909   7.296
18505TIP3    H255401   6.777   3.873   7.443
18506TIP3   OH255402   6.877   2.549   7.598
18506TIP3    H155403   6.866   2.640   7.625
18506TIP3    H255404   6.972   2.534   7.604
18507TIP3   OH255405   1.590   7.654   0.474
18507TIP3    H155406   1.495   7.656   0.484
18507TIP3    H255407   1.606   7.600   0.396
18508TIP3   OH255408   7.778   3.223   7.850
18508TIP3    H155409   7.701   3.167   7.860
18508TIP3    H255410   7.845   3.183   7.905
18509TIP3   OH255411   6.521   3.427   7.334
18509TIP3    H155412   6.593   3.490   7.344
18509TIP3    H255413   6.553   3.366   7.268
18510TIP3   OH255414   6.441   2.724   7.476
18510TIP3    H155415   6.441   2.820   7.474
18510TIP3    H255416   6.425   2.699   7.385
18511TIP3   OH255417   7.761   4.195   7.795
18511TIP3    H155418   7.718   4.249   7.728
18511TIP3    H255419   7.855   4.207   7.778
18512TIP3   OH255420   0.291   7.067   0.330
18512TIP3    H155421   0.262   7.034   0.245
18512TIP3    H255422   0.282   6.992   0.389
18513TIP3   OH255423   6.345   3.701   7.722
18513TIP3    H155424   6.305   3.738   7.800
18513TIP3    H255425   6.300   3.744   7.649
18514TIP3   OH255426   0.022   8.855   0.789
18514TIP3    H155427   0.105   8.858   0.838
18514TIP3    H255428   0.006   8.761   0.777
18515TIP3   OH255429   0.486   8.755   0.844
18515TIP3    H155430   0.580   8.734   0.843
18515TIP3    H255431   0.450   8.706   0.771
18516TIP3   OH255432   6.973   3.748   6.958
18516TIP3    H155433   6.926   3.678   7.002
18516TIP3    H255434   7.049   3.706   6.918
18517TIP3   OH255435   1.102   8.706   0.598
18517TIP3    H155436   1.121   8.635   0.659
18517TIP3    H255437   1.177   8.765   0.607
18518TIP3   OH255438   7.422   3.792   6.881
18518TIP3    H155439   7.463   3.730   6.940
18518TIP3    H255440   7.479   3.795   6.804
18519TIP3   OH255441   0.121   8.259   0.979
18519TIP3    H155442   0.138   8.166   0.990
18519TIP3    H255443   0.035   8.263   0.937
18520TIP3   OH255444   6.641   3.239   7.176
18520TIP3    H155445   6.691   3.214   7.253
18520TIP3    H255446   6.706   3.254   7.108
18521TIP3   OH255447   0.743   8.337   0.756
18521TIP3    H155448   0.697   8.357   0.675
18521TIP3    H255449   0.778   8.249   0.742
18522TIP3   OH255450   7.238   3.460   7.020
18522TIP3    H155451   7.209   3.471   7.111
18522TIP3    H255452   7.212   3.370   6.997
18523TIP3   OH255453   1.218   8.391   0.378
18523TIP3    H155454   1.295   8.414   0.326
18523TIP3    H255455   1.155   8.459   0.358
18524TIP3   OH255456   0.232   8.003   0.986
18524TIP3    H155457   0.306   7.984   0.928
18524TIP3    H255458   0.272   8.022   1.071
18525TIP3   OH255459   6.814   3.180   7.388
18525TIP3    H155460   6.796   3.148   7.477
18525TIP3    H255461   6.864   3.109   7.347
18526TIP3   OH255462   0.603   7.888   0.648
18526TIP3    H155463   0.516   7.927   0.659
18526TIP3    H255464   0.631   7.915   0.561
18527TIP3   OH255465   6.959   3.000   7.231
18527TIP3    H155466   6.929   3.002   7.140
18527TIP3    H255467   7.054   3.009   7.225
18528TIP3   OH255468   1.098   8.259   0.725
18528TIP3    H155469   1.164   8.221   0.668
18528TIP3    H255470   1.095   8.201   0.802
18529TIP3   OH255471   7.753   3.286   6.915
18529TIP3    H155472   7.740   3.247   6.829
18529TIP3    H255473   7.734   3.379   6.902
18530TIP3   OH255474   0.702   7.653   0.753
18530TIP3    H155475   0.704   7.583   0.687
18530TIP3    H255476   0.667   7.729   0.706
18531TIP3   OH255477   0.709   7.458   0.547
18531TIP3    H155478   0.736   7.494   0.463
18531TIP3    H255479   0.618   7.430   0.533
18532TIP3   OH255480   0.712   7.981   0.418
18532TIP3    H155481   0.801   8.013   0.403
18532TIP3    H255482   0.656   8.041   0.368
18533TIP3   OH255483   1.318   7.936   0.816
18533TIP3    H155484   1.347   7.860   0.867
18533TIP3    H255485   1.399   7.982   0.796
18534TIP3   OH255486   1.323   8.206   0.546
18534TIP3    H155487   1.274   8.270   0.495
18534TIP3    H255488   1.413   8.214   0.514
18535TIP3   OH255489   0.600   7.726   1.003
18535TIP3    H155490   0.529   7.667   1.024
18535TIP3    H255491   0.625   7.703   0.913
18536TIP3   OH255492   0.829   7.225   0.647
18536TIP3    H155493   0.788   7.305   0.614
18536TIP3    H255494   0.763   7.157   0.636
18537TIP3   OH255495   0.953   7.703   0.857
18537TIP3    H155496   0.943   7.686   0.951
18537TIP3    H255497   0.868   7.680   0.819
18538TIP3   OH255498   1.175   7.641   0.700
18538TIP3    H155499   1.103   7.646   0.763
18538TIP3    H255500   1.252   7.623   0.754
18539TIP3   OH255501   1.409   7.607   0.838
18539TIP3    H155502   1.423   7.516   0.861
18539TIP3    H255503   1.417   7.655   0.920
18540TIP3   OH255504   0.425   7.514   1.063
18540TIP3    H155505   0.430   7.426   1.026
18540TIP3    H255506   0.463   7.505   1.151
18541TIP3   OH255507   0.910   7.208   0.908
18541TIP3    H155508   0.970   7.134   0.896
18541TIP3    H255509   0.871   7.220   0.821
18542TIP3   OH255510   1.021   7.417   1.044
18542TIP3    H155511   0.985   7.347   0.990
18542TIP3    H255512   0.948   7.478   1.056
18543TIP3   OH255513   6.789   4.050   7.179
18543TIP3    H155514   6.877   4.026   7.149
18543TIP3    H255515   6.750   4.096   7.105
18544TIP3   OH255516   6.248   3.429   7.348
18544TIP3    H155517   6.343   3.438   7.346
18544TIP3    H255518   6.231   3.342   7.310
18545TIP3   OH255519   6.151   4.008   7.809
18545TIP3    H155520   6.086   3.955   7.764
18545TIP3    H255521   6.196   3.947   7.867
18546TIP3   OH255522   9.562   8.459  -0.026
18546TIP3    H155523   9.555   8.391   0.041
18546TIP3    H255524   9.614   8.527   0.016
18547TIP3   OH255525   8.033   4.242   7.784
18547TIP3    H155526   8.052   4.275   7.872
18547TIP3    H255527   8.090   4.293   7.726
18548TIP3   OH255528   1.512   8.899   0.064
18548TIP3    H155529   1.468   8.814   0.058
18548TIP3    H255530   1.583   8.886   0.126
18549TIP3   OH255531   1.561   8.612   0.615
18549TIP3    H155532   1.495   8.616   0.683
18549TIP3    H255533   1.611   8.692   0.625
18550TIP3   OH255534   7.922   3.499   7.247
18550TIP3    H155535   7.980   3.568   7.215
18550TIP3    H255536   7.970   3.459   7.320
18551TIP3   OH255537   8.054   3.353   7.445
18551TIP3    H155538   7.986   3.316   7.501
18551TIP3    H255539   8.118   3.390   7.505
18552TIP3   OH255540   8.101   3.754   7.883
18552TIP3    H155541   8.151   3.686   7.839
18552TIP3    H255542   8.102   3.828   7.822
18553TIP3   OH255543   1.378   8.652   0.076
18553TIP3    H155544   1.311   8.701   0.124
18553TIP3    H255545   1.331   8.613   0.002
18554TIP3   OH255546   7.961   3.272   7.094
18554TIP3    H155547   7.891   3.270   7.029
18554TIP3    H255548   7.944   3.350   7.146
18555TIP3   OH255549   7.809   2.918   7.033
18555TIP3    H155550   7.764   2.954   6.957
18555TIP3    H255551   7.803   2.823   7.023
18556TIP3   OH255552   7.849   3.216   7.581
18556TIP3    H155553   7.854   3.121   7.566
18556TIP3    H255554   7.830   3.225   7.674
18557TIP3   OH255555   9.737   7.897   0.357
18557TIP3    H155556   9.727   7.865   0.267
18557TIP3    H255557   9.831   7.891   0.374
18558TIP3   OH255558   1.568   8.248   0.423
18558TIP3    H155559   1.645   8.195   0.401
18558TIP3    H255560   1.550   8.299   0.345
18559TIP3   OH255561   1.775   8.055   0.434
18559TIP3    H155562   1.697   8.023   0.478
18559TIP3    H255563   1.841   7.987   0.449
18560TIP3   OH255564   7.775   2.647   7.004
18560TIP3    H155565   7.841   2.620   7.069
18560TIP3    H255566   7.694   2.608   7.036
18561TIP3   OH255567   7.843   2.938   7.470
18561TIP3    H155568   7.889   2.855   7.482
18561TIP3    H255569   7.883   2.977   7.392
18562TIP3   OH255570   1.459   7.724  -0.009
18562TIP3    H155571   1.540   7.741  -0.056
18562TIP3    H255572   1.471   7.765   0.076
18563TIP3   OH255573   1.525   7.877   0.218
18563TIP3    H155574   1.452   7.906   0.273
18563TIP3    H255575   1.556   7.956   0.175
18564TIP3   OH255576   0.166   7.586   0.996
18564TIP3    H155577   0.259   7.580   1.016
18564TIP3    H255578   0.130   7.502   1.025
18565TIP3   OH255579   7.960   2.689   7.521
18565TIP3    H155580   8.004   2.675   7.604
18565TIP3    H255581   7.897   2.617   7.514
18566TIP3   OH255582   0.132   7.293   0.352
18566TIP3    H155583   0.185   7.213   0.356
18566TIP3    H255584   0.195   7.362   0.330
18567TIP3   OH255585   9.713   7.558   0.404
18567TIP3    H155586   9.764   7.547   0.324
18567TIP3    H255587   9.747   7.638   0.443
18568TIP3   OH255588   1.834   7.597   0.584
18568TIP3    H155589   1.744   7.619   0.559
18568TIP3    H255590   1.845   7.506   0.558
18569TIP3   OH255591   8.003   2.599   7.160
18569TIP3    H155592   8.052   2.539   7.104
18569TIP3    H255593   8.056   2.678   7.164
18570TIP3   OH255594   6.434   2.449   7.914
18570TIP3    H155595   6.349   2.435   7.956
18570TIP3    H255596   6.415   2.501   7.836
18571TIP3   OH255597   7.601   4.166   7.426
18571TIP3    H155598   7.645   4.153   7.342
18571TIP3    H255599   7.643   4.243   7.464
18572TIP3   OH255600   0.125   7.119   0.732
18572TIP3    H155601   0.073   7.112   0.812
18572TIP3    H255602   0.071   7.170   0.671
18573TIP3   OH255603   0.152   8.575   0.806
18573TIP3    H155604   0.059   8.557   0.796
18573TIP3    H255605   0.169   8.563   0.900
18574TIP3   OH255606   0.367   8.626   0.360
18574TIP3    H155607   0.316   8.700   0.328
18574TIP3    H255608   0.451   8.634   0.316
18575TIP3   OH255609   0.762   8.851   0.513
18575TIP3    H155610   0.803   8.850   0.599
18575TIP3    H255611   0.821   8.905   0.459
18576TIP3   OH255612   0.942   9.003   0.370
18576TIP3    H155613   0.995   8.954   0.307
18576TIP3    H255614   1.005   9.058   0.416
18577TIP3   OH255615   1.721   7.367   0.443
18577TIP3    H155616   1.647   7.375   0.383
18577TIP3    H255617   1.746   7.275   0.438
18578TIP3   OH255618   0.027   8.856   0.408
18578TIP3    H155619  -0.064   8.873   0.383
18578TIP3    H255620   0.048   8.925   0.470
18579TIP3   OH255621   0.257   8.856   0.256
18579TIP3    H155622   0.173   8.859   0.302
18579TIP3    H255623   0.235   8.879   0.166
18580TIP3   OH255624   0.669   8.871   0.047
18580TIP3    H155625   0.599   8.880  -0.017
18580TIP3    H255626   0.678   8.958   0.086
18581TIP3   OH255627   0.933   8.813   0.104
18581TIP3    H155628   0.842   8.829   0.079
18581TIP3    H255629   0.984   8.874   0.051
18582TIP3   OH255630   7.667   4.357   7.997
18582TIP3    H155631   7.666   4.444   7.957
18582TIP3    H255632   7.697   4.299   7.927
18583TIP3   OH255633   9.734   8.639   0.117
18583TIP3    H155634   9.760   8.618   0.207
18583TIP3    H255635   9.806   8.607   0.063
18584TIP3   OH255636   6.672   3.906   7.981
18584TIP3    H155637   6.684   3.821   8.024
18584TIP3    H255638   6.758   3.947   7.985
18585TIP3   OH255639   0.407   8.611   0.007
18585TIP3    H155640   0.427   8.519  -0.009
18585TIP3    H255641   0.462   8.635   0.082
18586TIP3   OH255642   0.967   7.263   0.093
18586TIP3    H155643   0.929   7.191   0.143
18586TIP3    H255644   1.035   7.221   0.040
18587TIP3   OH255645   7.996   2.566   7.983
18587TIP3    H155646   8.034   2.615   7.910
18587TIP3    H255647   7.902   2.587   7.980
18588TIP3   OH255648   8.114   2.636   7.745
18588TIP3    H155649   8.181   2.575   7.715
18588TIP3    H255650   8.153   2.723   7.732
18589TIP3   OH255651   0.204   6.962   0.090
18589TIP3    H155652   0.115   6.928   0.099
18589TIP3    H255653   0.259   6.884   0.080
18590TIP3   OH255654   6.570   2.256   7.752
18590TIP3    H155655   6.592   2.303   7.672
18590TIP3    H255656   6.531   2.323   7.809
18591TIP3   OH255657   7.222   2.381   7.988
18591TIP3    H155658   7.269   2.427   7.918
18591TIP3    H255659   7.262   2.411   8.069
18592TIP3   OH255660   7.711   2.527   7.959
18592TIP3    H155661   7.724   2.494   7.871
18592TIP3    H255662   7.719   2.450   8.016
18593TIP3   OH255663   7.775   2.478   7.531
18593TIP3    H155664   7.695   2.525   7.556
18593TIP3    H255665   7.764   2.391   7.569
18594TIP3   OH255666   6.221   3.823   7.508
18594TIP3    H155667   6.140   3.794   7.466
18594TIP3    H255668   6.230   3.915   7.481
18595TIP3   OH255669   6.667   2.382   7.510
18595TIP3    H155670   6.710   2.320   7.450
18595TIP3    H255671   6.738   2.436   7.543
18596TIP3   OH255672   7.152   2.575   7.605
18596TIP3    H155673   7.212   2.522   7.658
18596TIP3    H255674   7.168   2.665   7.634
18597TIP3   OH255675   7.039   3.970   7.103
18597TIP3    H155676   7.122   3.998   7.063
18597TIP3    H255677   7.009   3.899   7.046
18598TIP3   OH255678   7.733   4.126   7.185
18598TIP3    H155679   7.728   4.031   7.175
18598TIP3    H255680   7.692   4.160   7.106
18599TIP3   OH255681   0.439   7.247   0.971
18599TIP3    H155682   0.401   7.182   1.030
18599TIP3    H255683   0.530   7.253   0.997
18600TIP3   OH255684   0.685   7.253   1.097
18600TIP3    H155685   0.766   7.230   1.052
18600TIP3    H255686   0.675   7.187   1.165
18601TIP3   OH255687   6.327   3.828   7.137
18601TIP3    H155688   6.331   3.825   7.232
18601TIP3    H255689   6.412   3.794   7.109
18602TIP3   OH255690   1.470   7.349   0.894
18602TIP3    H155691   1.485   7.319   0.984
18602TIP3    H255692   1.557   7.350   0.854
18603TIP3   OH255693   1.419   8.875   0.386
18603TIP3    H155694   1.348   8.843   0.330
18603TIP3    H255695   1.407   8.970   0.388
18604TIP3   OH255696   9.218   3.644   7.143
18604TIP3    H155697   9.192   3.730   7.109
18604TIP3    H255698   9.148   3.586   7.114
18605TIP3   OH255699   9.213   3.634   7.541
18605TIP3    H155700   9.255   3.613   7.624
18605TIP3    H255701   9.174   3.552   7.512
18606TIP3   OH255702   8.526   3.495   7.888
18606TIP3    H155703   8.564   3.444   7.959
18606TIP3    H255704   8.601   3.521   7.834
18607TIP3   OH255705   9.499   3.935   7.209
18607TIP3    H155706   9.476   3.868   7.273
18607TIP3    H255707   9.513   4.014   7.261
18608TIP3   OH255708   8.521   3.924   7.584
18608TIP3    H155709   8.503   3.831   7.588
18608TIP3    H255710   8.616   3.929   7.571
18609TIP3   OH255711   8.202   3.125   7.366
18609TIP3    H155712   8.164   3.210   7.389
18609TIP3    H255713   8.130   3.077   7.324
18610TIP3   OH255714   8.281   3.440   7.588
18610TIP3    H155715   8.331   3.362   7.612
18610TIP3    H255716   8.347   3.503   7.561
18611TIP3   OH255717   9.156   4.365   7.236
18611TIP3    H155718   9.192   4.303   7.172
18611TIP3    H255719   9.159   4.317   7.319
18612TIP3   OH255720   9.030   3.855   7.549
18612TIP3    H155721   9.074   3.776   7.519
18612TIP3    H255722   9.101   3.911   7.581
18613TIP3   OH255723   9.423   3.358   7.596
18613TIP3    H155724   9.458   3.272   7.618
18613TIP3    H255725   9.380   3.346   7.511
18614TIP3   OH255726   8.790   2.998   7.556
18614TIP3    H155727   8.780   3.070   7.494
18614TIP3    H255728   8.738   2.927   7.519
18615TIP3   OH255729   9.472   3.089   7.243
18615TIP3    H155730   9.551   3.069   7.294
18615TIP3    H255731   9.448   3.005   7.204
18616TIP3   OH255732   8.417   3.216   7.676
18616TIP3    H155733   8.501   3.200   7.720
18616TIP3    H255734   8.422   3.165   7.595
18617TIP3   OH255735   8.839   3.414   7.498
18617TIP3    H155736   8.933   3.399   7.502
18617TIP3    H255737   8.803   3.333   7.463
18618TIP3   OH255738   8.768   3.013   8.000
18618TIP3    H155739   8.721   3.049   7.925
18618TIP3    H255740   8.709   3.025   8.074
18619TIP3   OH255741   9.137   3.860   6.988
18619TIP3    H155742   9.096   3.827   6.908
18619TIP3    H255743   9.083   3.935   7.013
18620TIP3   OH255744   8.879   3.779   7.768
18620TIP3    H155745   8.824   3.849   7.801
18620TIP3    H255746   8.923   3.817   7.692
18621TIP3   OH255747   9.676   3.075   7.434
18621TIP3    H155748   9.616   3.076   7.509
18621TIP3    H255749   9.726   3.156   7.442
18622TIP3   OH255750   8.664   3.118   7.769
18622TIP3    H155751   8.721   3.193   7.788
18622TIP3    H255752   8.708   3.073   7.697
18623TIP3   OH255753   8.721   3.983   7.871
18623TIP3    H155754   8.707   4.072   7.839
18623TIP3    H255755   8.641   3.962   7.919
18624TIP3   OH255756   8.093   3.687   7.126
18624TIP3    H155757   8.060   3.707   7.038
18624TIP3    H255758   8.117   3.772   7.163
18625TIP3   OH255759   9.520   4.177   7.356
18625TIP3    H155760   9.438   4.165   7.403
18625TIP3    H255761   9.508   4.259   7.308
18626TIP3   OH255762   9.097   2.729   7.686
18626TIP3    H155763   9.095   2.641   7.724
18626TIP3    H255764   9.023   2.774   7.728
18627TIP3   OH255765   9.255   4.222   7.019
18627TIP3    H155766   9.302   4.140   7.003
18627TIP3    H255767   9.318   4.291   6.998
18628TIP3   OH255768   9.401   3.997   6.956
18628TIP3    H155769   9.337   3.928   6.939
18628TIP3    H255770   9.443   3.972   7.038
18629TIP3   OH255771   9.741   4.077   7.705
18629TIP3    H155772   9.728   4.003   7.646
18629TIP3    H255773   9.733   4.154   7.648
18630TIP3   OH255774   9.049   3.485   6.984
18630TIP3    H155775   8.968   3.530   6.961
18630TIP3    H255776   9.095   3.475   6.901
18631TIP3   OH255777   9.013   3.293   6.668
18631TIP3    H155778   9.080   3.334   6.723
18631TIP3    H255779   9.060   3.222   6.623
18632TIP3   OH255780   0.075   3.674   7.529
18632TIP3    H155781   0.006   3.740   7.533
18632TIP3    H255782   0.157   3.723   7.541
18633TIP3   OH255783   9.393   3.565   6.950
18633TIP3    H155784   9.340   3.593   7.024
18633TIP3    H255785   9.472   3.528   6.989
18634TIP3   OH255786   9.585   3.659   7.842
18634TIP3    H155787   9.573   3.754   7.838
18634TIP3    H255788   9.500   3.623   7.819
18635TIP3   OH255789   8.642   3.546   7.346
18635TIP3    H155790   8.606   3.487   7.280
18635TIP3    H255791   8.715   3.498   7.385
18636TIP3   OH255792   8.781   3.974   7.483
18636TIP3    H155793   8.755   3.960   7.392
18636TIP3    H255794   8.867   3.933   7.490
18637TIP3   OH255795   8.741   3.547   7.718
18637TIP3    H155796   8.778   3.510   7.638
18637TIP3    H255797   8.791   3.627   7.733
18638TIP3   OH255798   9.294   4.176   7.502
18638TIP3    H155799   9.277   4.256   7.551
18638TIP3    H255800   9.277   4.105   7.564
18639TIP3   OH255801   2.381   8.696   0.044
18639TIP3    H155802   2.321   8.755   0.089
18639TIP3    H255803   2.326   8.646  -0.016
18640TIP3   OH255804   9.237   3.414   6.782
18640TIP3    H155805   9.295   3.474   6.830
18640TIP3    H255806   9.269   3.416   6.692
18641TIP3   OH255807   2.132   8.246   0.172
18641TIP3    H155808   2.135   8.338   0.200
18641TIP3    H255809   2.039   8.224   0.170
18642TIP3   OH255810   8.998   4.099   7.023
18642TIP3    H155811   9.075   4.154   7.032
18642TIP3    H255812   8.935   4.153   6.975
18643TIP3   OH255813   2.173   8.859   0.122
18643TIP3    H155814   2.150   8.869   0.030
18643TIP3    H255815   2.089   8.845   0.166
18644TIP3   OH255816   9.725   2.651   6.894
18644TIP3    H155817   9.640   2.671   6.934
18644TIP3    H255818   9.722   2.696   6.809
18645TIP3   OH255819   8.518   3.389   7.146
18645TIP3    H155820   8.440   3.436   7.116
18645TIP3    H255821   8.489   3.299   7.158
18646TIP3   OH255822   9.484   4.064   6.391
18646TIP3    H155823   9.485   4.156   6.362
18646TIP3    H255824   9.576   4.036   6.384
18647TIP3   OH255825   1.768   8.416   0.074
18647TIP3    H155826   1.698   8.397   0.012
18647TIP3    H255827   1.803   8.330   0.098
18648TIP3   OH255828   8.145   3.988   7.732
18648TIP3    H155829   8.237   4.013   7.746
18648TIP3    H255830   8.095   4.065   7.759
18649TIP3   OH255831   0.159   4.477   7.769
18649TIP3    H155832   0.198   4.390   7.775
18649TIP3    H255833   0.081   4.473   7.825
18650TIP3   OH255834   9.104   4.224   7.911
18650TIP3    H155835   9.093   4.316   7.935
18650TIP3    H255836   9.034   4.178   7.958
18651TIP3   OH255837   8.848   4.320   6.834
18651TIP3    H155838   8.789   4.306   6.760
18651TIP3    H255839   8.823   4.406   6.869
18652TIP3   OH255840   8.324   4.176   7.231
18652TIP3    H155841   8.366   4.170   7.316
18652TIP3    H255842   8.273   4.096   7.223
18653TIP3   OH255843   9.121   4.341   6.803
18653TIP3    H155844   9.028   4.319   6.807
18653TIP3    H255845   9.162   4.281   6.866
18654TIP3   OH255846   1.963   8.607   0.034
18654TIP3    H155847   2.015   8.592   0.113
18654TIP3    H255848   1.892   8.544   0.040
18655TIP3   OH255849   8.873   2.809   7.843
18655TIP3    H155850   8.791   2.776   7.806
18655TIP3    H255851   8.848   2.885   7.895
18656TIP3   OH255852   9.317   3.401   6.521
18656TIP3    H155853   9.260   3.401   6.444
18656TIP3    H255854   9.387   3.464   6.499
18657TIP3   OH255855   9.049   2.813   6.834
18657TIP3    H155856   9.021   2.820   6.925
18657TIP3    H255857   9.006   2.734   6.801
18658TIP3   OH255858   8.825   3.325   7.862
18658TIP3    H155859   8.779   3.331   7.946
18658TIP3    H255860   8.800   3.405   7.816
18659TIP3   OH255861   8.704   3.199   7.389
18659TIP3    H155862   8.614   3.174   7.412
18659TIP3    H255863   8.717   3.164   7.301
18660TIP3   OH255864   9.166   3.277   7.123
18660TIP3    H155865   9.122   3.348   7.077
18660TIP3    H255866   9.222   3.237   7.057
18661TIP3   OH255867   9.337   3.303   7.339
18661TIP3    H155868   9.268   3.314   7.273
18661TIP3    H255869   9.384   3.224   7.312
18662TIP3   OH255870   2.123   7.959   0.075
18662TIP3    H155871   2.137   8.019   0.148
18662TIP3    H255872   2.096   7.877   0.116
18663TIP3   OH255873   8.707   2.807   6.809
18663TIP3    H155874   8.703   2.812   6.904
18663TIP3    H255875   8.628   2.851   6.779
18664TIP3   OH255876   8.248   2.857   7.670
18664TIP3    H155877   8.319   2.896   7.721
18664TIP3    H255878   8.286   2.844   7.583
18665TIP3   OH255879   8.152   2.833   7.171
18665TIP3    H155880   8.197   2.869   7.094
18665TIP3    H255881   8.088   2.901   7.194
18666TIP3   OH255882   9.337   3.543   7.776
18666TIP3    H155883   9.372   3.482   7.712
18666TIP3    H255884   9.317   3.489   7.853
18667TIP3   OH255885   9.068   3.044   7.465
18667TIP3    H155886   8.996   3.012   7.519
18667TIP3    H255887   9.145   3.000   7.500
18668TIP3   OH255888   8.463   3.076   7.445
18668TIP3    H155889   8.375   3.080   7.407
18668TIP3    H255890   8.493   2.987   7.426
18669TIP3   OH255891   8.725   3.070   7.148
18669TIP3    H155892   8.820   3.073   7.140
18669TIP3    H255893   8.692   3.089   7.060
18670TIP3   OH255894   9.480   3.093   7.648
18670TIP3    H155895   9.459   3.103   7.741
18670TIP3    H255896   9.415   3.030   7.616
18671TIP3   OH255897   8.609   3.097   6.899
18671TIP3    H155898   8.546   3.047   6.848
18671TIP3    H255899   8.659   3.146   6.834
18672TIP3   OH255900   9.712   4.786   7.869
18672TIP3    H155901   9.715   4.817   7.778
18672TIP3    H255902   9.778   4.838   7.914
18673TIP3   OH255903   2.112   8.517   0.263
18673TIP3    H155904   2.193   8.537   0.309
18673TIP3    H255905   2.044   8.522   0.330
18674TIP3   OH255906   9.109   3.362   7.539
18674TIP3    H155907   9.153   3.301   7.479
18674TIP3    H255908   9.111   3.317   7.623
18675TIP3   OH255909   8.605   2.830   7.423
18675TIP3    H155910   8.573   2.754   7.471
18675TIP3    H255911   8.633   2.795   7.339
18676TIP3   OH255912   9.088   3.266   7.806
18676TIP3    H155913   8.999   3.295   7.825
18676TIP3    H255914   9.143   3.318   7.863
18677TIP3   OH255915   8.813   3.624   6.921
18677TIP3    H155916   8.740   3.566   6.899
18677TIP3    H255917   8.790   3.660   7.007
18678TIP3   OH255918   9.684   3.874   7.525
18678TIP3    H155919   9.729   3.913   7.450
18678TIP3    H255920   9.605   3.835   7.488
18679TIP3   OH255921   9.251   2.974   6.748
18679TIP3    H155922   9.181   2.922   6.787
18679TIP3    H255923   9.281   3.031   6.819
18680TIP3   OH255924   9.239   3.974   7.938
18680TIP3    H155925   9.274   3.963   8.027
18680TIP3    H255926   9.189   4.056   7.942
18681TIP3   OH255927   9.330   3.184   6.918
18681TIP3    H155928   9.423   3.187   6.941
18681TIP3    H255929   9.316   3.261   6.863
18682TIP3   OH255930   8.510   3.636   7.571
18682TIP3    H155931   8.548   3.615   7.485
18682TIP3    H255932   8.576   3.605   7.634
18683TIP3   OH255933   8.983   3.774   6.769
18683TIP3    H155934   8.940   3.857   6.755
18683TIP3    H255935   8.920   3.722   6.820
18684TIP3   OH255936   1.859   8.178   0.198
18684TIP3    H155937   1.854   8.154   0.291
18684TIP3    H255938   1.784   8.134   0.158
18685TIP3   OH255939   2.602   8.314   0.219
18685TIP3    H155940   2.556   8.287   0.140
18685TIP3    H255941   2.613   8.234   0.270
18686TIP3   OH255942   9.376   4.241   7.831
18686TIP3    H155943   9.282   4.231   7.842
18686TIP3    H255944   9.407   4.277   7.914
18687TIP3   OH255945   9.751   3.261   6.726
18687TIP3    H155946   9.677   3.233   6.671
18687TIP3    H255947   9.776   3.346   6.692
18688TIP3   OH255948   0.174   4.141   7.846
18688TIP3    H155949   0.088   4.130   7.805
18688TIP3    H255950   0.222   4.062   7.822
18689TIP3   OH255951   9.522   4.081   6.679
18689TIP3    H155952   9.462   4.044   6.743
18689TIP3    H255953   9.486   4.056   6.594
18690TIP3   OH255954   9.462   3.738   7.417
18690TIP3    H155955   9.371   3.718   7.439
18690TIP3    H255956   9.498   3.654   7.387
18691TIP3   OH255957   8.637   3.974   7.242
18691TIP3    H155958   8.635   4.049   7.182
18691TIP3    H255959   8.545   3.961   7.266
18692TIP3   OH255960   8.202   3.259   6.957
18692TIP3    H155961   8.243   3.343   6.978
18692TIP3    H255962   8.120   3.260   7.007
18693TIP3   OH255963   8.728   3.729   7.154
18693TIP3    H155964   8.707   3.818   7.182
18693TIP3    H255965   8.699   3.673   7.226
18694TIP3   OH255966   8.923   4.296   7.697
18694TIP3    H155967   8.956   4.371   7.647
18694TIP3    H255968   8.999   4.264   7.745
18695TIP3   OH255969   8.558   4.194   7.085
18695TIP3    H155970   8.470   4.199   7.123
18695TIP3    H255971   8.594   4.283   7.094
18696TIP3   OH255972   9.263   3.954   7.666
18696TIP3    H155973   9.254   3.955   7.762
18696TIP3    H255974   9.331   3.889   7.649
18697TIP3   OH255975   9.239   3.852   6.548
18697TIP3    H155976   9.278   3.823   6.630
18697TIP3    H255977   9.154   3.807   6.545
18698TIP3   OH255978   9.515   4.455   7.705
18698TIP3    H155979   9.446   4.392   7.722
18698TIP3    H255980   9.483   4.507   7.631
18699TIP3   OH255981   9.546   4.322   6.336
18699TIP3    H155982   9.601   4.394   6.304
18699TIP3    H255983   9.472   4.366   6.377
18700TIP3   OH255984   2.051   7.717   0.187
18700TIP3    H155985   1.955   7.715   0.194
18700TIP3    H255986   2.081   7.715   0.278
18701TIP3   OH255987   9.392   3.765   6.761
18701TIP3    H155988   9.376   3.700   6.829
18701TIP3    H255989   9.487   3.773   6.759
18702TIP3   OH255990   8.353   4.190   7.859
18702TIP3    H155991   8.405   4.130   7.912
18702TIP3    H255992   8.369   4.276   7.898
18703TIP3   OH255993   8.593   3.803   6.554
18703TIP3    H155994   8.620   3.715   6.526
18703TIP3    H255995   8.593   3.798   6.650
18704TIP3   OH255996   8.568   3.821   6.832
18704TIP3    H155997   8.638   3.790   6.890
18704TIP3    H255998   8.576   3.916   6.833
18705TIP3   OH255999   8.293   3.511   7.037
18705TIP3    H156000   8.227   3.559   7.087
18705TIP3    H256001   8.315   3.569   6.964
18706TIP3   OH256002   9.431   3.135   7.934
18706TIP3    H156003   9.517   3.126   7.976
18706TIP3    H256004   9.382   3.059   7.966
18707TIP3   OH256005   8.849   4.004   6.724
18707TIP3    H156006   8.770   4.033   6.770
18707TIP3    H256007   8.857   4.063   6.649
18708TIP3   OH256008   9.002   3.068   7.198
18708TIP3    H156009   9.060   3.138   7.167
18708TIP3    H256010   9.024   3.058   7.291
18709TIP3   OH256011   2.751   7.986  -0.021
18709TIP3    H156012   2.743   7.987   0.074
18709TIP3    H256013   2.803   7.908  -0.041
18710TIP3   OH256014   8.612   4.093   6.835
18710TIP3    H156015   8.608   4.169   6.777
18710TIP3    H256016   8.593   4.129   6.922
18711TIP3   OH256017   8.688   2.798   7.089
18711TIP3    H156018   8.680   2.889   7.116
18711TIP3    H256019   8.781   2.779   7.096
18712TIP3   OH256020   9.555   3.478   7.352
18712TIP3    H156021   9.474   3.428   7.342
18712TIP3    H256022   9.598   3.438   7.428
18713TIP3   OH256023   8.322   3.688   6.823
18713TIP3    H156024   8.394   3.750   6.832
18713TIP3    H256025   8.351   3.627   6.755
18714TIP3   OH256026   8.222   2.981   6.951
18714TIP3    H156027   8.236   3.075   6.961
18714TIP3    H256028   8.172   2.972   6.870
18715TIP3   OH256029   9.505   4.436   7.268
18715TIP3    H156030   9.456   4.494   7.209
18715TIP3    H256031   9.595   4.468   7.263
18716TIP3   OH256032   8.617   2.712   7.802
18716TIP3    H156033   8.587   2.682   7.716
18716TIP3    H256034   8.609   2.636   7.859
18717TIP3   OH256035   8.148   3.954   7.214
18717TIP3    H156036   8.106   3.991   7.292
18717TIP3    H256037   8.103   3.997   7.140
18718TIP3   OH256038   1.816   9.108   0.277
18718TIP3    H156039   1.899   9.112   0.324
18718TIP3    H256040   1.800   9.015   0.263
18719TIP3   OH256041   2.280   9.022   0.317
18719TIP3    H156042   2.370   8.992   0.323
18719TIP3    H256043   2.242   8.970   0.246
18720TIP3   OH256044   2.915   8.957   0.077
18720TIP3    H156045   2.899   8.888   0.142
18720TIP3    H256046   2.996   8.999   0.106
18721TIP3   OH256047   9.168   4.056   6.369
18721TIP3    H156048   9.207   4.005   6.440
18721TIP3    H256049   9.236   4.060   6.302
18722TIP3   OH256050   1.915   8.529   0.462
18722TIP3    H156051   1.933   8.436   0.478
18722TIP3    H256052   1.830   8.530   0.419
18723TIP3   OH256053   8.440   3.498   6.665
18723TIP3    H156054   8.491   3.474   6.743
18723TIP3    H256055   8.505   3.512   6.597
18724TIP3   OH256056   2.543   8.591   0.241
18724TIP3    H156057   2.494   8.613   0.161
18724TIP3    H256058   2.571   8.501   0.228
18725TIP3   OH256059   8.996   3.720   6.498
18725TIP3    H156060   8.977   3.728   6.591
18725TIP3    H256061   8.976   3.629   6.477
18726TIP3   OH256062   9.543   3.977   7.869
18726TIP3    H156063   9.608   4.020   7.814
18726TIP3    H256064   9.466   4.034   7.866
18727TIP3   OH256065   2.009   8.276   0.497
18727TIP3    H156066   2.005   8.180   0.498
18727TIP3    H256067   2.062   8.298   0.573
18728TIP3   OH256068   8.610   3.441   6.880
18728TIP3    H156069   8.591   3.409   6.968
18728TIP3    H256070   8.657   3.368   6.838
18729TIP3   OH256071   2.380   8.126   0.126
18729TIP3    H156072   2.299   8.175   0.137
18729TIP3    H256073   2.419   8.161   0.046
18730TIP3   OH256074   8.745   3.257   6.723
18730TIP3    H156075   8.716   3.259   6.632
18730TIP3    H256076   8.840   3.266   6.718
18731TIP3   OH256077   2.854   8.523   0.168
18731TIP3    H156078   2.888   8.461   0.103
18731TIP3    H256079   2.840   8.470   0.246
18732TIP3   OH256080   9.507   3.575   6.414
18732TIP3    H156081   9.490   3.526   6.333
18732TIP3    H256082   9.470   3.661   6.398
18733TIP3   OH256083   2.473   7.894   0.239
18733TIP3    H156084   2.482   7.835   0.165
18733TIP3    H256085   2.445   7.977   0.200
18734TIP3   OH256086   9.028   3.097   8.026
18734TIP3    H156087   9.061   3.130   7.943
18734TIP3    H256088   8.936   3.078   8.009
18735TIP3   OH256089   9.051   3.625   7.922
18735TIP3    H156090   9.133   3.621   7.873
18735TIP3    H256091   8.994   3.681   7.870
18736TIP3   OH256092   3.190   8.501   0.052
18736TIP3    H156093   3.119   8.536  -0.003
18736TIP3    H256094   3.265   8.495  -0.007
18737TIP3   OH256095   2.390   8.012   0.499
18737TIP3    H156096   2.301   8.047   0.504
18737TIP3    H256097   2.406   7.998   0.405
18738TIP3   OH256098   2.501   7.487   0.179
18738TIP3    H156099   2.509   7.553   0.109
18738TIP3    H256100   2.484   7.405   0.133
18739TIP3   OH256101   2.174   7.724   0.438
18739TIP3    H156102   2.210   7.641   0.407
18739TIP3    H256103   2.230   7.749   0.511
18740TIP3   OH256104   8.664   4.281   6.613
18740TIP3    H156105   8.702   4.332   6.541
18740TIP3    H256106   8.583   4.245   6.578
18741TIP3   OH256107   8.047   3.690   6.829
18741TIP3    H156108   8.142   3.699   6.829
18741TIP3    H256109   8.031   3.602   6.794
18742TIP3   OH256110   7.945   4.265   7.293
18742TIP3    H156111   7.881   4.216   7.242
18742TIP3    H256112   7.987   4.200   7.349
18743TIP3   OH256113   8.090   4.094   7.460
18743TIP3    H156114   8.081   4.026   7.527
18743TIP3    H256115   8.140   4.163   7.503
18744TIP3   OH256116   9.757   4.528   7.280
18744TIP3    H156117   9.784   4.549   7.369
18744TIP3    H256118   9.829   4.558   7.225
18745TIP3   OH256119   0.008   4.543   7.549
18745TIP3    H156120  -0.033   4.457   7.545
18745TIP3    H256121   0.076   4.534   7.616
18746TIP3   OH256122   9.676   3.757   6.773
18746TIP3    H156123   9.704   3.847   6.783
18746TIP3    H256124   9.707   3.713   6.853
18747TIP3   OH256125   9.795   3.633   6.986
18747TIP3    H156126   9.729   3.586   7.037
18747TIP3    H256127   9.868   3.645   7.046
18748TIP3   OH256128   0.068   3.980   7.352
18748TIP3    H156129   0.144   3.940   7.311
18748TIP3    H256130   0.054   4.061   7.303
18749TIP3   OH256131   9.682   4.297   7.546
18749TIP3    H156132   9.618   4.338   7.603
18749TIP3    H256133   9.630   4.251   7.480
18750TIP3   OH256134   9.686   3.510   6.611
18750TIP3    H156135   9.617   3.531   6.548
18750TIP3    H256136   9.674   3.573   6.682
18751TIP3   OH256137   9.574   3.164   6.547
18751TIP3    H156138   9.503   3.196   6.490
18751TIP3    H256139   9.578   3.070   6.531
18752TIP3   OH256140   9.607   3.449   7.075
18752TIP3    H156141   9.605   3.356   7.051
18752TIP3    H256142   9.602   3.450   7.170
18753TIP3   OH256143   8.261   3.527   7.845
18753TIP3    H156144   8.251   3.498   7.755
18753TIP3    H256145   8.356   3.526   7.860
18754TIP3   OH256146   9.575   2.892   6.500
18754TIP3    H156147   9.624   2.838   6.563
18754TIP3    H256148   9.486   2.859   6.504
18755TIP3   OH256149   9.607   3.197   6.959
18755TIP3    H156150   9.629   3.111   6.996
18755TIP3    H256151   9.658   3.202   6.879
18756TIP3   OH256152   0.010   3.319   7.480
18756TIP3    H156153   0.100   3.293   7.500
18756TIP3    H256154  -0.019   3.366   7.559
18757TIP3   OH256155   9.750   3.486   7.689
18757TIP3    H156156   9.699   3.536   7.753
18757TIP3    H256157   9.803   3.552   7.644
18758TIP3   OH256158   1.923   7.829   0.471
18758TIP3    H156159   2.017   7.815   0.464
18758TIP3    H256160   1.892   7.757   0.526
18759TIP3   OH256161   9.687   2.936   7.029
18759TIP3    H156162   9.743   2.899   7.097
18759TIP3    H256163   9.600   2.899   7.045
18760TIP3   OH256164   8.455   2.934   7.841
18760TIP3    H156165   8.509   2.855   7.838
18760TIP3    H256166   8.516   3.006   7.821
18761TIP3   OH256167   8.236   3.194   7.894
18761TIP3    H156168   8.286   3.180   7.813
18761TIP3    H256169   8.262   3.281   7.924
18762TIP3   OH256170   0.017   2.785   6.657
18762TIP3    H156171   0.090   2.754   6.710
18762TIP3    H256172   0.037   2.877   6.640
18763TIP3   OH256173   8.229   2.704   7.398
18763TIP3    H156174   8.144   2.691   7.439
18763TIP3    H256175   8.211   2.757   7.321
18764TIP3   OH256176   9.426   4.415   6.930
18764TIP3    H156177   9.458   4.387   6.845
18764TIP3    H256178   9.442   4.510   6.932
18765TIP3   OH256179   1.894   7.363   0.207
18765TIP3    H156180   1.852   7.370   0.293
18765TIP3    H256181   1.843   7.420   0.150
18766TIP3   OH256182   1.948   8.833   0.283
18766TIP3    H156183   1.854   8.814   0.277
18766TIP3    H256184   1.970   8.815   0.374
18767TIP3   OH256185   8.695   4.260   7.844
18767TIP3    H156186   8.644   4.334   7.812
18767TIP3    H256187   8.779   4.269   7.799
18768TIP3   OH256188   9.087   4.491   7.980
18768TIP3    H156189   9.127   4.481   8.067
18768TIP3    H256190   9.149   4.544   7.931
18769TIP3   OH256191   9.277   4.642   7.851
18769TIP3    H156192   9.338   4.587   7.800
18769TIP3    H256193   9.334   4.696   7.905
18770TIP3   OH256194   8.356   4.495   7.894
18770TIP3    H156195   8.265   4.513   7.871
18770TIP3    H256196   8.378   4.563   7.959
18771TIP3   OH256197   8.585   4.492   7.742
18771TIP3    H156198   8.502   4.495   7.790
18771TIP3    H256199   8.562   4.515   7.652
18772TIP3   OH256200   8.992   4.510   7.535
18772TIP3    H156201   8.919   4.519   7.473
18772TIP3    H256202   9.002   4.598   7.573
18773TIP3   OH256203   9.250   4.436   7.586
18773TIP3    H156204   9.159   4.458   7.566
18773TIP3    H256205   9.301   4.501   7.538
18774TIP3   OH256206   9.444   4.606   7.481
18774TIP3    H156207   9.447   4.695   7.447
18774TIP3    H256208   9.463   4.551   7.404
18775TIP3   OH256209   8.263   4.275   7.609
18775TIP3    H156210   8.291   4.252   7.697
18775TIP3    H256211   8.334   4.243   7.552
18776TIP3   OH256212   8.467   4.165   7.467
18776TIP3    H156213   8.479   4.081   7.511
18776TIP3    H256214   8.554   4.206   7.471
18777TIP3   OH256215   8.736   4.250   7.492
18777TIP3    H156216   8.754   4.157   7.476
18777TIP3    H256217   8.791   4.272   7.568
18778TIP3   OH256218   9.291   2.899   7.574
18778TIP3    H156219   9.234   2.833   7.614
18778TIP3    H256220   9.357   2.849   7.526
18779TIP3   OH256221   9.801   2.775   7.448
18779TIP3    H156222   9.825   2.817   7.365
18779TIP3    H256223   9.720   2.818   7.474
18780TIP3   OH256224   0.092   2.868   7.206
18780TIP3    H156225   0.172   2.826   7.173
18780TIP3    H256226   0.109   2.962   7.196
18781TIP3   OH256227   8.525   2.606   7.565
18781TIP3    H156228   8.435   2.575   7.575
18781TIP3    H256229   8.577   2.527   7.553
18782TIP3   OH256230   8.368   2.513   7.237
18782TIP3    H156231   8.393   2.561   7.157
18782TIP3    H256232   8.328   2.579   7.293
18783TIP3   OH256233   9.016   2.624   7.430
18783TIP3    H156234   9.072   2.639   7.354
18783TIP3    H256235   9.056   2.676   7.499
18784TIP3   OH256236   9.498   2.763   7.443
18784TIP3    H156237   9.480   2.787   7.352
18784TIP3    H256238   9.539   2.677   7.438
18785TIP3   OH256239   8.028   4.078   7.002
18785TIP3    H156240   7.944   4.047   6.968
18785TIP3    H256241   8.035   4.168   6.969
18786TIP3   OH256242   8.471   2.638   6.994
18786TIP3    H156243   8.515   2.577   6.935
18786TIP3    H256244   8.542   2.692   7.030
18787TIP3   OH256245   8.964   2.812   7.099
18787TIP3    H156246   9.028   2.751   7.138
18787TIP3    H256247   8.987   2.897   7.136
18788TIP3   OH256248   9.533   4.361   6.679
18788TIP3    H156249   9.531   4.266   6.671
18788TIP3    H256250   9.479   4.392   6.606
18789TIP3   OH256251   8.135   4.073   6.631
18789TIP3    H156252   8.131   4.080   6.726
18789TIP3    H256253   8.218   4.027   6.613
18790TIP3   OH256254   9.713   4.512   7.887
18790TIP3    H156255   9.643   4.484   7.827
18790TIP3    H256256   9.712   4.607   7.883
18791TIP3   OH256257   0.094   3.361   6.950
18791TIP3    H156258   0.038   3.434   6.976
18791TIP3    H256259   0.042   3.311   6.887
18792TIP3   OH256260   0.256   3.661   7.079
18792TIP3    H156261   0.300   3.578   7.099
18792TIP3    H256262   0.311   3.701   7.011
18793TIP3   OH256263   0.223   3.863   6.670
18793TIP3    H156264   0.142   3.896   6.631
18793TIP3    H256265   0.273   3.942   6.692
18794TIP3   OH256266   0.261   4.103   7.518
18794TIP3    H156267   0.189   4.050   7.482
18794TIP3    H256268   0.338   4.047   7.510
18795TIP3   OH256269   0.047   4.236   7.240
18795TIP3    H156270   0.129   4.278   7.265
18795TIP3    H256271  -0.021   4.287   7.285
18796TIP3   OH256272   0.300   4.429   6.834
18796TIP3    H156273   0.378   4.380   6.857
18796TIP3    H256274   0.243   4.365   6.791
18797TIP3   OH256275   0.379   4.313   7.643
18797TIP3    H156276   0.462   4.293   7.599
18797TIP3    H256277   0.323   4.237   7.624
18798TIP3   OH256278   0.192   3.118   7.156
18798TIP3    H156279   0.223   3.209   7.158
18798TIP3    H256280   0.171   3.102   7.063
18799TIP3   OH256281   0.207   3.601   6.446
18799TIP3    H156282   0.236   3.547   6.519
18799TIP3    H256283   0.131   3.554   6.410
18800TIP3   OH256284   0.256   4.389   7.360
18800TIP3    H156285   0.284   4.310   7.405
18800TIP3    H256286   0.264   4.458   7.426
18801TIP3   OH256287   0.092   4.265   6.740
18801TIP3    H156288   0.042   4.306   6.811
18801TIP3    H256289   0.051   4.296   6.660
18802TIP3   OH256290   0.276   4.737   7.798
18802TIP3    H156291   0.362   4.696   7.813
18802TIP3    H256292   0.214   4.664   7.799
18803TIP3   OH256293   9.742   3.989   6.358
18803TIP3    H156294   9.817   4.031   6.399
18803TIP3    H256295   9.739   3.902   6.396
18804TIP3   OH256296   9.720   4.538   6.765
18804TIP3    H156297   9.658   4.484   6.717
18804TIP3    H256298   9.741   4.488   6.843
18805TIP3   OH256299   9.792   4.375   6.974
18805TIP3    H156300   9.748   4.314   7.032
18805TIP3    H256301   9.852   4.424   7.031
18806TIP3   OH256302   0.303   3.854   7.268
18806TIP3    H156303   0.275   3.781   7.211
18806TIP3    H256304   0.390   3.877   7.236
18807TIP3   OH256305   0.285   3.528   7.391
18807TIP3    H156306   0.251   3.495   7.308
18807TIP3    H256307   0.207   3.555   7.440
18808TIP3   OH256308   0.111   3.030   6.906
18808TIP3    H156309   0.031   2.991   6.942
18808TIP3    H256310   0.100   3.026   6.811
18809TIP3   OH256311   0.328   4.762   7.324
18809TIP3    H156312   0.236   4.788   7.316
18809TIP3    H256313   0.330   4.703   7.399
18810TIP3   OH256314   0.597   4.740   7.245
18810TIP3    H156315   0.513   4.722   7.286
18810TIP3    H256316   0.575   4.765   7.155
18811TIP3   OH256317   0.183   4.524   7.120
18811TIP3    H156318   0.211   4.479   7.200
18811TIP3    H256319   0.249   4.501   7.055
18812TIP3   OH256320   0.520   4.263   6.906
18812TIP3    H156321   0.556   4.178   6.880
18812TIP3    H256322   0.563   4.325   6.847
18813TIP3   OH256323   9.784   4.307   6.488
18813TIP3    H156324   9.700   4.300   6.443
18813TIP3    H256325   9.821   4.390   6.459
18814TIP3   OH256326   0.108   4.355   6.144
18814TIP3    H156327   0.130   4.432   6.198
18814TIP3    H256328   0.162   4.285   6.179
18815TIP3   OH256329   4.861   9.136   0.863
18815TIP3    H156330   4.860   9.198   0.790
18815TIP3    H256331   4.828   9.054   0.826
18816TIP3   OH256332   4.979   9.075   1.262
18816TIP3    H156333   4.964   9.022   1.341
18816TIP3    H256334   4.897   9.070   1.213
18817TIP3   OH256335   8.457   0.150   0.908
18817TIP3    H156336   8.384   0.129   0.967
18817TIP3    H256337   8.501   0.224   0.950
18818TIP3   OH256338   8.115   0.567   0.911
18818TIP3    H156339   8.151   0.492   0.864
18818TIP3    H256340   8.106   0.537   1.002
18819TIP3   OH256341   8.036   0.093   1.224
18819TIP3    H156342   8.114   0.079   1.170
18819TIP3    H256343   8.059   0.056   1.310
18820TIP3   OH256344   5.754   8.604   1.363
18820TIP3    H156345   5.760   8.690   1.322
18820TIP3    H256346   5.782   8.543   1.295
18821TIP3   OH256347   5.202   8.446   0.829
18821TIP3    H156348   5.227   8.502   0.902
18821TIP3    H256349   5.286   8.416   0.792
18822TIP3   OH256350   8.118   0.059   0.646
18822TIP3    H156351   8.081   0.026   0.564
18822TIP3    H256352   8.060   0.132   0.670
18823TIP3   OH256353   5.574   8.462   1.133
18823TIP3    H156354   5.491   8.415   1.139
18823TIP3    H256355   5.553   8.552   1.158
18824TIP3   OH256356   3.793   9.066   0.795
18824TIP3    H156357   3.766   9.076   0.704
18824TIP3    H256358   3.811   9.155   0.824
18825TIP3   OH256359   8.537   0.365   1.072
18825TIP3    H156360   8.454   0.360   1.120
18825TIP3    H256361   8.532   0.449   1.026
18826TIP3   OH256362   8.227   0.400   0.720
18826TIP3    H156363   8.278   0.322   0.697
18826TIP3    H256364   8.279   0.473   0.689
18827TIP3   OH256365   8.369   0.181   0.646
18827TIP3    H156366   8.297   0.119   0.642
18827TIP3    H256367   8.412   0.164   0.730
18828TIP3   OH256368   8.782   0.271   1.423
18828TIP3    H156369   8.774   0.210   1.350
18828TIP3    H256370   8.754   0.356   1.387
18829TIP3   OH256371   4.767   8.965   0.638
18829TIP3    H156372   4.695   9.013   0.597
18829TIP3    H256373   4.827   8.945   0.566
18830TIP3   OH256374   4.750   8.709   0.353
18830TIP3    H156375   4.813   8.763   0.400
18830TIP3    H256376   4.803   8.646   0.305
18831TIP3   OH256377   5.652   9.078   1.263
18831TIP3    H156378   5.620   9.087   1.353
18831TIP3    H256379   5.690   9.164   1.242
18832TIP3   OH256380   5.173   9.006   0.560
18832TIP3    H156381   5.166   9.067   0.634
18832TIP3    H256382   5.255   8.959   0.576
18833TIP3   OH256383   4.382   9.022   1.067
18833TIP3    H156384   4.333   8.973   1.001
18833TIP3    H256385   4.401   8.958   1.136
18834TIP3   OH256386   7.790   0.195   1.150
18834TIP3    H156387   7.766   0.161   1.065
18834TIP3    H256388   7.874   0.154   1.170
18835TIP3   OH256389   8.306   0.347   1.211
18835TIP3    H156390   8.280   0.437   1.231
18835TIP3    H256391   8.229   0.295   1.231
18836TIP3   OH256392   4.950   8.893   0.443
18836TIP3    H156393   5.024   8.936   0.485
18836TIP3    H256394   4.977   8.882   0.352
18837TIP3   OH256395   7.976   0.285   0.713
18837TIP3    H156396   8.057   0.335   0.726
18837TIP3    H256397   7.920   0.343   0.662
18838TIP3   OH256398   5.489   8.053   0.439
18838TIP3    H156399   5.431   8.073   0.512
18838TIP3    H256400   5.500   8.136   0.392
18839TIP3   OH256401   4.279   8.913   0.828
18839TIP3    H156402   4.219   8.981   0.796
18839TIP3    H256403   4.222   8.841   0.855
18840TIP3   OH256404   8.572   0.200   0.072
18840TIP3    H156405   8.566   0.293   0.052
18840TIP3    H256406   8.662   0.176   0.047
18841TIP3   OH256407   9.013   0.666   1.459
18841TIP3    H156408   9.012   0.571   1.462
18841TIP3    H256409   8.938   0.693   1.512
18842TIP3   OH256410   7.876   0.497   0.544
18842TIP3    H156411   7.821   0.479   0.467
18842TIP3    H256412   7.844   0.582   0.576
18843TIP3   OH256413   7.304   0.323   0.879
18843TIP3    H156414   7.353   0.323   0.961
18843TIP3    H256415   7.248   0.401   0.884
18844TIP3   OH256416   8.078   0.434   0.170
18844TIP3    H156417   8.127   0.361   0.132
18844TIP3    H256418   8.113   0.443   0.259
18845TIP3   OH256419   8.130   0.468   0.440
18845TIP3    H156420   8.044   0.470   0.482
18845TIP3    H256421   8.189   0.435   0.507
18846TIP3   OH256422   5.058   8.818   0.201
18846TIP3    H156423   5.010   8.811   0.119
18846TIP3    H256424   5.137   8.867   0.178
18847TIP3   OH256425   4.774   8.286   0.403
18847TIP3    H156426   4.797   8.225   0.473
18847TIP3    H256427   4.732   8.232   0.336
18848TIP3   OH256428   4.288   8.573   1.098
18848TIP3    H156429   4.332   8.496   1.136
18848TIP3    H256430   4.359   8.623   1.058
18849TIP3   OH256431   4.845   8.698   0.739
18849TIP3    H156432   4.894   8.780   0.738
18849TIP3    H256433   4.896   8.640   0.681
18850TIP3   OH256434   5.079   8.696   0.977
18850TIP3    H156435   5.075   8.758   0.904
18850TIP3    H256436   5.028   8.621   0.947
18851TIP3   OH256437   4.477   8.224   0.413
18851TIP3    H156438   4.507   8.207   0.503
18851TIP3    H256439   4.388   8.257   0.424
18852TIP3   OH256440   4.039   8.195   0.996
18852TIP3    H156441   4.024   8.269   0.937
18852TIP3    H256442   3.952   8.175   1.032
18853TIP3   OH256443   4.524   8.468   0.832
18853TIP3    H156444   4.523   8.561   0.854
18853TIP3    H256445   4.490   8.465   0.743
18854TIP3   OH256446   4.360   8.522   0.603
18854TIP3    H156447   4.312   8.452   0.558
18854TIP3    H256448   4.377   8.587   0.535
18855TIP3   OH256449   8.638   0.966   1.520
18855TIP3    H156450   8.655   0.978   1.427
18855TIP3    H256451   8.720   0.987   1.564
18856TIP3   OH256452   4.522   9.096   0.595
18856TIP3    H156453   4.464   9.021   0.583
18856TIP3    H256454   4.509   9.121   0.686
18857TIP3   OH256455   8.696   0.135   1.201
18857TIP3    H156456   8.749   0.173   1.132
18857TIP3    H256457   8.610   0.177   1.191
18858TIP3   OH256458   5.033   8.361   0.369
18858TIP3    H156459   4.942   8.347   0.395
18858TIP3    H256460   5.047   8.455   0.377
18859TIP3   OH256461   5.090   8.621   0.397
18859TIP3    H156462   5.094   8.655   0.487
18859TIP3    H256463   5.096   8.699   0.342
18860TIP3   OH256464   4.702   9.206   0.426
18860TIP3    H156465   4.668   9.295   0.419
18860TIP3    H256466   4.637   9.160   0.480
18861TIP3   OH256467   5.501   8.693   0.370
18861TIP3    H156468   5.441   8.657   0.304
18861TIP3    H256469   5.512   8.785   0.345
18862TIP3   OH256470   9.036   0.371   1.472
18862TIP3    H156471   8.949   0.336   1.491
18862TIP3    H256472   9.046   0.362   1.377
18863TIP3   OH256473   8.481   0.269   0.332
18863TIP3    H156474   8.453   0.196   0.387
18863TIP3    H256475   8.506   0.229   0.249
18864TIP3   OH256476   5.215   9.202   1.338
18864TIP3    H156477   5.128   9.166   1.320
18864TIP3    H256478   5.268   9.175   1.264
18865TIP3   OH256479   7.635   0.163   0.914
18865TIP3    H156480   7.630   0.232   0.848
18865TIP3    H256481   7.558   0.178   0.969
18866TIP3   OH256482   3.885   8.636   0.713
18866TIP3    H156483   3.921   8.696   0.648
18866TIP3    H256484   3.794   8.663   0.723
18867TIP3   OH256485   4.483   9.163   0.857
18867TIP3    H156486   4.454   9.254   0.861
18867TIP3    H256487   4.439   9.120   0.931
18868TIP3   OH256488   7.553   0.372   0.754
18868TIP3    H156489   7.462   0.369   0.785
18868TIP3    H256490   7.578   0.463   0.764
18869TIP3   OH256491   4.970   9.253   0.201
18869TIP3    H156492   5.030   9.242   0.275
18869TIP3    H256493   4.889   9.211   0.229
18870TIP3   OH256494   8.503   0.619   1.375
18870TIP3    H156495   8.412   0.591   1.378
18870TIP3    H256496   8.500   0.705   1.335
18871TIP3   OH256497   8.565   0.472   0.030
18871TIP3    H156498   8.581   0.531  -0.043
18871TIP3    H256499   8.495   0.514   0.080
18872TIP3   OH256500   5.171   9.215   0.380
18872TIP3    H156501   5.157   9.146   0.444
18872TIP3    H256502   5.266   9.217   0.367
18873TIP3   OH256503   4.348   9.212   0.225
18873TIP3    H156504   4.359   9.121   0.198
18873TIP3    H256505   4.326   9.208   0.318
18874TIP3   OH256506   7.558  -0.008   0.491
18874TIP3    H156507   7.637  -0.037   0.537
18874TIP3    H256508   7.558   0.087   0.502
18875TIP3   OH256509   4.059   9.040   0.725
18875TIP3    H156510   3.976   9.047   0.771
18875TIP3    H256511   4.047   9.094   0.647
18876TIP3   OH256512   5.056   8.240   0.736
18876TIP3    H156513   5.013   8.260   0.653
18876TIP3    H256514   5.101   8.320   0.760
18877TIP3   OH256515   7.834   0.196   0.442
18877TIP3    H156516   7.747   0.210   0.478
18877TIP3    H256517   7.846   0.268   0.380
18878TIP3   OH256518   4.870   8.526   0.946
18878TIP3    H156519   4.849   8.576   0.868
18878TIP3    H256520   4.790   8.531   0.999
18879TIP3   OH256521   4.802   8.262   1.055
18879TIP3    H156522   4.764   8.339   1.098
18879TIP3    H256523   4.896   8.269   1.073
18880TIP3   OH256524   7.576   0.261   0.508
18880TIP3    H156525   7.553   0.332   0.448
18880TIP3    H256526   7.567   0.300   0.595
18881TIP3   OH256527   4.348   8.211   0.825
18881TIP3    H156528   4.395   8.231   0.905
18881TIP3    H256529   4.416   8.200   0.758
18882TIP3   OH256530   5.346   8.859   0.958
18882TIP3    H156531   5.268   8.904   0.990
18882TIP3    H256532   5.418   8.898   1.006
18883TIP3   OH256533   4.029   9.135   0.460
18883TIP3    H156534   4.092   9.207   0.464
18883TIP3    H256535   4.076   9.064   0.416
18884TIP3   OH256536   3.921   8.383   0.551
18884TIP3    H156537   3.963   8.372   0.637
18884TIP3    H256538   3.838   8.426   0.570
18885TIP3   OH256539   8.542   0.624   0.967
18885TIP3    H156540   8.494   0.675   0.900
18885TIP3    H256541   8.634   0.646   0.953
18886TIP3   OH256542   7.146   0.082   0.867
18886TIP3    H156543   7.086   0.126   0.927
18886TIP3    H256544   7.215   0.147   0.850
18887TIP3   OH256545   7.783   0.162   0.125
18887TIP3    H156546   7.727   0.097   0.167
18887TIP3    H256547   7.854   0.112   0.086
18888TIP3   OH256548   8.197   0.226   0.039
18888TIP3    H156549   8.224   0.157   0.099
18888TIP3    H256550   8.258   0.220  -0.034
18889TIP3   OH256551   4.186   8.927   0.365
18889TIP3    H156552   4.249   8.916   0.436
18889TIP3    H256553   4.240   8.931   0.286
18890TIP3   OH256554   4.701   9.139   0.159
18890TIP3    H156555   4.688   9.151   0.253
18890TIP3    H256556   4.697   9.044   0.146
18891TIP3   OH256557   4.365   8.877   0.565
18891TIP3    H156558   4.343   8.869   0.658
18891TIP3    H256559   4.424   8.803   0.548
18892TIP3   OH256560   4.478   8.663   0.396
18892TIP3    H156561   4.440   8.669   0.309
18892TIP3    H256562   4.570   8.687   0.384
18893TIP3   OH256563   5.267   8.955   0.088
18893TIP3    H156564   5.256   8.914   0.002
18893TIP3    H256565   5.242   9.046   0.074
18894TIP3   OH256566   7.573   0.477   0.337
18894TIP3    H156567   7.660   0.455   0.305
18894TIP3    H256568   7.529   0.517   0.262
18895TIP3   OH256569   3.762   9.086   0.522
18895TIP3    H156570   3.848   9.117   0.492
18895TIP3    H256571   3.727   9.036   0.448
18896TIP3   OH256572   8.802   0.710   0.952
18896TIP3    H156573   8.824   0.721   1.044
18896TIP3    H256574   8.834   0.790   0.910
18897TIP3   OH256575   8.838   0.719   1.226
18897TIP3    H156576   8.795   0.634   1.239
18897TIP3    H256577   8.920   0.713   1.276
18898TIP3   OH256578   5.444   9.184   0.382
18898TIP3    H156579   5.504   9.254   0.356
18898TIP3    H256580   5.488   9.141   0.456
18899TIP3   OH256581   5.570   9.034   0.571
18899TIP3    H156582   5.506   8.995   0.631
18899TIP3    H256583   5.634   9.076   0.628
18900TIP3   OH256584   8.847   0.244   1.010
18900TIP3    H156585   8.903   0.187   0.957
18900TIP3    H256586   8.849   0.328   0.964
18901TIP3   OH256587   8.705   0.481   1.264
18901TIP3    H156588   8.634   0.527   1.309
18901TIP3    H256589   8.663   0.439   1.190
18902TIP3   OH256590   5.484   8.943   0.253
18902TIP3    H156591   5.410   8.937   0.192
18902TIP3    H256592   5.470   9.025   0.300
18903TIP3   OH256593   5.336   8.598   0.179
18903TIP3    H156594   5.282   8.631   0.107
18903TIP3    H256595   5.323   8.503   0.176
18904TIP3   OH256596   5.380   8.874   0.690
18904TIP3    H156597   5.392   8.781   0.670
18904TIP3    H256598   5.360   8.876   0.784
18905TIP3   OH256599   5.287   8.330   0.149
18905TIP3    H156600   5.359   8.298   0.203
18905TIP3    H256601   5.221   8.261   0.154
18906TIP3   OH256602   5.405   8.610   0.611
18906TIP3    H156603   5.468   8.552   0.655
18906TIP3    H256604   5.449   8.636   0.530
18907TIP3   OH256605   5.517   8.713   1.221
18907TIP3    H156606   5.556   8.769   1.155
18907TIP3    H256607   5.460   8.771   1.272
18908TIP3   OH256608   5.529   8.318   0.578
18908TIP3    H156609   5.488   8.254   0.636
18908TIP3    H256610   5.457   8.352   0.524
18909TIP3   OH256611   5.524   8.281   0.285
18909TIP3    H156612   5.573   8.221   0.228
18909TIP3    H256613   5.584   8.355   0.297
18910TIP3   OH256614   8.368   0.595   0.602
18910TIP3    H156615   8.423   0.578   0.525
18910TIP3    H256616   8.413   0.664   0.649
18911TIP3   OH256617   7.997   0.700   1.190
18911TIP3    H156618   7.927   0.695   1.126
18911TIP3    H256619   7.977   0.778   1.242
18912TIP3   OH256620   8.248   0.611   1.249
18912TIP3    H156621   8.158   0.641   1.234
18912TIP3    H256622   8.303   0.683   1.216
18913TIP3   OH256623   8.446   0.798   1.164
18913TIP3    H156624   8.445   0.884   1.122
18913TIP3    H256625   8.477   0.739   1.095
18914TIP3   OH256626   7.462   0.325   1.100
18914TIP3    H156627   7.453   0.286   1.187
18914TIP3    H256628   7.538   0.383   1.107
18915TIP3   OH256629   7.706   0.451   1.155
18915TIP3    H156630   7.742   0.362   1.149
18915TIP3    H256631   7.730   0.481   1.243
18916TIP3   OH256632   5.517   8.158   1.216
18916TIP3    H156633   5.549   8.200   1.296
18916TIP3    H256634   5.423   8.149   1.230
18917TIP3   OH256635   5.666   8.190   0.806
18917TIP3    H156636   5.691   8.216   0.895
18917TIP3    H256637   5.624   8.267   0.769
18918TIP3   OH256638   5.255   8.108   1.195
18918TIP3    H156639   5.260   8.146   1.108
18918TIP3    H256640   5.247   8.013   1.179
18919TIP3   OH256641   5.323   8.144   0.648
18919TIP3    H156642   5.280   8.222   0.612
18919TIP3    H256643   5.259   8.073   0.634
18920TIP3   OH256644   4.101   8.146   0.710
18920TIP3    H156645   4.098   8.068   0.765
18920TIP3    H256646   4.165   8.202   0.752
18921TIP3   OH256647   4.739   8.306   0.790
18921TIP3    H156648   4.778   8.301   0.877
18921TIP3    H256649   4.666   8.368   0.800
18922TIP3   OH256650   7.821   0.400   0.257
18922TIP3    H156651   7.906   0.430   0.223
18922TIP3    H256652   7.799   0.325   0.201
18923TIP3   OH256653   8.516   0.536   0.375
18923TIP3    H156654   8.509   0.441   0.367
18923TIP3    H256655   8.475   0.570   0.296
18924TIP3   OH256656   7.139   0.247   0.308
18924TIP3    H156657   7.142   0.332   0.352
18924TIP3    H256658   7.230   0.219   0.305
18925TIP3   OH256659   0.220   0.062   0.295
18925TIP3    H156660   0.191   0.151   0.273
18925TIP3    H256661   0.148   0.006   0.268
18926TIP3   OH256662   0.173   0.065   0.672
18926TIP3    H156663   0.218   0.034   0.751
18926TIP3    H256664   0.138  -0.015   0.631
18927TIP3   OH256665   6.092   9.040   0.973
18927TIP3    H156666   6.081   9.070   1.063
18927TIP3    H256667   6.146   9.108   0.932
18928TIP3   OH256668   0.480   0.355   0.407
18928TIP3    H156669   0.460   0.300   0.483
18928TIP3    H256670   0.503   0.439   0.444
18929TIP3   OH256671   9.312   0.347   0.763
18929TIP3    H156672   9.290   0.255   0.748
18929TIP3    H256673   9.406   0.353   0.745
18930TIP3   OH256674   5.752   8.839   0.484
18930TIP3    H156675   5.691   8.912   0.495
18930TIP3    H256676   5.706   8.763   0.518
18931TIP3   OH256677   5.802   9.131   0.689
18931TIP3    H156678   5.836   9.047   0.721
18931TIP3    H256679   5.880   9.182   0.669
18932TIP3   OH256680   0.145   0.786   0.418
18932TIP3    H156681   0.171   0.724   0.349
18932TIP3    H256682   0.162   0.739   0.500
18933TIP3   OH256683   0.027   0.298   0.701
18933TIP3    H156684   0.068   0.218   0.669
18933TIP3    H256685   0.100   0.350   0.736
18934TIP3   OH256686   6.992   9.042   0.725
18934TIP3    H156687   7.005   8.951   0.752
18934TIP3    H256688   6.949   9.035   0.639
18935TIP3   OH256689   6.300   8.680   0.630
18935TIP3    H156690   6.286   8.752   0.570
18935TIP3    H256691   6.243   8.610   0.599
18936TIP3   OH256692   7.009   8.757   0.369
18936TIP3    H156693   7.072   8.710   0.423
18936TIP3    H256694   7.060   8.793   0.297
18937TIP3   OH256695   5.903   8.899   0.800
18937TIP3    H156696   5.992   8.902   0.835
18937TIP3    H256697   5.907   8.836   0.728
18938TIP3   OH256698   6.373   9.081   0.645
18938TIP3    H156699   6.466   9.059   0.644
18938TIP3    H256700   6.331   9.007   0.600
18939TIP3   OH256701   7.660   9.097   0.869
18939TIP3    H156702   7.655   9.186   0.905
18939TIP3    H256703   7.672   9.041   0.946
18940TIP3   OH256704   6.269   8.640   1.187
18940TIP3    H156705   6.205   8.694   1.142
18940TIP3    H256706   6.222   8.605   1.262
18941TIP3   OH256707   0.114   0.285   0.166
18941TIP3    H156708   0.075   0.255   0.084
18941TIP3    H256709   0.062   0.360   0.192
18942TIP3   OH256710   9.660   0.215   0.901
18942TIP3    H156711   9.614   0.287   0.945
18942TIP3    H256712   9.707   0.258   0.829
18943TIP3   OH256713   6.167   8.807   0.835
18943TIP3    H156714   6.220   8.880   0.867
18943TIP3    H256715   6.215   8.772   0.760
18944TIP3   OH256716   9.517   0.415   1.031
18944TIP3    H156717   9.481   0.501   1.013
18944TIP3    H256718   9.449   0.370   1.080
18945TIP3   OH256719   8.890   0.131   0.290
18945TIP3    H156720   8.856   0.154   0.203
18945TIP3    H256721   8.912   0.215   0.330
18946TIP3   OH256722   0.514   0.605   0.535
18946TIP3    H156723   0.424   0.605   0.570
18946TIP3    H256724   0.522   0.686   0.486
18947TIP3   OH256725   6.713   8.345   0.810
18947TIP3    H156726   6.734   8.251   0.818
18947TIP3    H256727   6.648   8.360   0.879
18948TIP3   OH256728   0.232   0.634   0.202
18948TIP3    H156729   0.287   0.557   0.186
18948TIP3    H256730   0.283   0.708   0.171
18949TIP3   OH256731   0.373   0.401   0.155
18949TIP3    H156732   0.294   0.347   0.155
18949TIP3    H256733   0.417   0.380   0.237
18950TIP3   OH256734   0.755   0.516   0.876
18950TIP3    H156735   0.741   0.442   0.817
18950TIP3    H256736   0.741   0.593   0.822
18951TIP3   OH256737   6.572   9.150   0.146
18951TIP3    H156738   6.488   9.192   0.129
18951TIP3    H256739   6.618   9.151   0.062
18952TIP3   OH256740   3.278   4.331   7.839
18952TIP3    H156741   3.344   4.380   7.890
18952TIP3    H256742   3.329   4.265   7.793
18953TIP3   OH256743   0.945   0.177   0.748
18953TIP3    H156744   0.865   0.229   0.749
18953TIP3    H256745   0.975   0.181   0.657
18954TIP3   OH256746   6.941   9.222   0.112
18954TIP3    H156747   6.888   9.252   0.186
18954TIP3    H256748   7.026   9.201   0.149
18955TIP3   OH256749   0.614   0.095   0.904
18955TIP3    H156750   0.643   0.172   0.855
18955TIP3    H256751   0.534   0.123   0.949
18956TIP3   OH256752   6.160   9.207   0.496
18956TIP3    H156753   6.118   9.146   0.436
18956TIP3    H256754   6.235   9.159   0.531
18957TIP3   OH256755   9.566   0.396   0.650
18957TIP3    H156756   9.538   0.388   0.559
18957TIP3    H256757   9.658   0.368   0.649
18958TIP3   OH256758   6.270   9.218   0.854
18958TIP3    H156759   6.305   9.177   0.775
18958TIP3    H256760   6.314   9.303   0.858
18959TIP3   OH256761   0.268   0.611   0.656
18959TIP3    H156762   0.260   0.691   0.708
18959TIP3    H256763   0.259   0.540   0.719
18960TIP3   OH256764   9.703   0.513   1.212
18960TIP3    H156765   9.639   0.570   1.255
18960TIP3    H256766   9.651   0.464   1.148
18961TIP3   OH256767   3.499   4.472   7.944
18961TIP3    H156768   3.559   4.529   7.992
18961TIP3    H256769   3.527   4.478   7.853
18962TIP3   OH256770   9.411   0.044   1.427
18962TIP3    H156771   9.457   0.118   1.468
18962TIP3    H256772   9.324   0.046   1.466
18963TIP3   OH256773   9.778   0.525   0.202
18963TIP3    H156774   9.862   0.570   0.211
18963TIP3    H256775   9.722   0.587   0.156
18964TIP3   OH256776   9.498   0.673   1.297
18964TIP3    H156777   9.471   0.689   1.207
18964TIP3    H256778   9.416   0.670   1.347
18965TIP3   OH256779   7.271   8.318   0.006
18965TIP3    H156780   7.194   8.339   0.060
18965TIP3    H256781   7.278   8.392  -0.054
18966TIP3   OH256782   6.016   9.045   0.311
18966TIP3    H156783   5.947   9.102   0.278
18966TIP3    H256784   5.970   8.965   0.337
18967TIP3   OH256785   3.846   5.092   7.558
18967TIP3    H156786   3.843   5.186   7.544
18967TIP3    H256787   3.931   5.065   7.524
18968TIP3   OH256788   9.035   0.315   1.203
18968TIP3    H156789   8.965   0.313   1.138
18968TIP3    H256790   9.053   0.223   1.221
18969TIP3   OH256791   8.925   0.473   0.892
18969TIP3    H156792   9.017   0.494   0.911
18969TIP3    H256793   8.878   0.554   0.910
18970TIP3   OH256794   0.985   0.863   0.960
18970TIP3    H156795   0.988   0.769   0.976
18970TIP3    H256796   0.903   0.892   1.001
18971TIP3   OH256797   0.093   0.651   1.068
18971TIP3    H156798   0.087   0.742   1.095
18971TIP3    H256799   0.024   0.607   1.117
18972TIP3   OH256800   9.672   0.741   0.037
18972TIP3    H156801   9.631   0.724  -0.048
18972TIP3    H256802   9.638   0.827   0.064
18973TIP3   OH256803   9.106   0.610   0.407
18973TIP3    H156804   9.151   0.600   0.491
18973TIP3    H256805   9.056   0.528   0.397
18974TIP3   OH256806   3.333   5.303   7.657
18974TIP3    H156807   3.386   5.232   7.622
18974TIP3    H256808   3.372   5.321   7.743
18975TIP3   OH256809   3.391   5.350   7.925
18975TIP3    H156810   3.310   5.346   7.975
18975TIP3    H256811   3.460   5.329   7.989
18976TIP3   OH256812   0.912   0.026   1.238
18976TIP3    H156813   0.821   0.053   1.230
18976TIP3    H256814   0.923  -0.043   1.172
18977TIP3   OH256815   9.219   0.517   1.209
18977TIP3    H156816   9.288   0.478   1.263
18977TIP3    H256817   9.156   0.446   1.195
18978TIP3   OH256818   6.494   8.377   0.968
18978TIP3    H156819   6.416   8.361   0.914
18978TIP3    H256820   6.501   8.473   0.971
18979TIP3   OH256821   6.921   8.490   1.238
18979TIP3    H156822   6.925   8.395   1.227
18979TIP3    H256823   6.831   8.508   1.265
18980TIP3   OH256824   7.140   9.037   0.980
18980TIP3    H156825   7.158   9.112   1.037
18980TIP3    H256826   7.109   9.076   0.898
18981TIP3   OH256827   3.577   4.452   7.683
18981TIP3    H156828   3.530   4.456   7.599
18981TIP3    H256829   3.658   4.500   7.667
18982TIP3   OH256830   6.550   8.490  -0.002
18982TIP3    H156831   6.513   8.498   0.086
18982TIP3    H256832   6.514   8.409  -0.037
18983TIP3   OH256833   6.379   8.944   0.957
18983TIP3    H156834   6.344   8.951   1.045
18983TIP3    H256835   6.380   9.035   0.925
18984TIP3   OH256836   6.205   8.909   0.517
18984TIP3    H156837   6.123   8.874   0.551
18984TIP3    H256838   6.210   8.875   0.427
18985TIP3   OH256839   6.693   8.942   0.275
18985TIP3    H156840   6.648   9.017   0.236
18985TIP3    H256841   6.749   8.909   0.204
18986TIP3   OH256842   0.436   0.029   1.356
18986TIP3    H156843   0.366  -0.013   1.405
18986TIP3    H256844   0.512   0.026   1.414
18987TIP3   OH256845   6.850   8.948   0.501
18987TIP3    H156846   6.790   8.963   0.428
18987TIP3    H256847   6.906   8.876   0.471
18988TIP3   OH256848   6.023   9.138   1.225
18988TIP3    H156849   6.087   9.189   1.275
18988TIP3    H256850   6.016   9.056   1.273
18989TIP3   OH256851   2.949   3.851   7.971
18989TIP3    H156852   2.941   3.859   8.066
18989TIP3    H256853   2.872   3.895   7.936
18990TIP3   OH256854   5.772   8.461   0.848
18990TIP3    H156855   5.843   8.523   0.867
18990TIP3    H256856   5.818   8.381   0.819
18991TIP3   OH256857   5.695   8.504   0.324
18991TIP3    H156858   5.734   8.539   0.244
18991TIP3    H256859   5.631   8.570   0.351
18992TIP3   OH256860   6.837   9.201   0.885
18992TIP3    H156861   6.892   9.141   0.834
18992TIP3    H256862   6.852   9.175   0.976
18993TIP3   OH256863   6.575   8.654   0.579
18993TIP3    H156864   6.497   8.661   0.634
18993TIP3    H256865   6.649   8.654   0.640
18994TIP3   OH256866   5.991   8.752   0.581
18994TIP3    H156867   5.910   8.768   0.532
18994TIP3    H256868   6.017   8.663   0.556
18995TIP3   OH256869   6.231   8.749   0.298
18995TIP3    H156870   6.326   8.759   0.289
18995TIP3    H256871   6.196   8.767   0.210
18996TIP3   OH256872   6.980   8.771   0.768
18996TIP3    H156873   6.939   8.744   0.850
18996TIP3    H256874   6.934   8.721   0.701
18997TIP3   OH256875   6.119   8.762   0.053
18997TIP3    H156876   6.056   8.714  -0.001
18997TIP3    H256877   6.172   8.811  -0.011
18998TIP3   OH256878   0.696   1.210   1.040
18998TIP3    H156879   0.691   1.228   0.946
18998TIP3    H256880   0.776   1.255   1.069
18999TIP3   OH256881   9.326   0.386   1.455
18999TIP3    H156882   9.340   0.479   1.474
18999TIP3    H256883   9.233   0.371   1.474
19000TIP3   OH256884   6.640   9.021   0.671
19000TIP3    H156885   6.713   8.986   0.619
19000TIP3    H256886   6.656   8.986   0.759
19001TIP3   OH256887   6.111   8.513   0.510
19001TIP3    H156888   6.113   8.425   0.549
19001TIP3    H256889   6.124   8.498   0.417
19002TIP3   OH256890   6.658   8.920   0.928
19002TIP3    H156891   6.564   8.917   0.949
19002TIP3    H256892   6.702   8.903   1.011
19003TIP3   OH256893   9.599   0.037   0.092
19003TIP3    H156894   9.523  -0.017   0.069
19003TIP3    H256895   9.573   0.082   0.172
19004TIP3   OH256896   0.691   0.298   0.712
19004TIP3    H156897   0.739   0.341   0.642
19004TIP3    H256898   0.605   0.279   0.674
19005TIP3   OH256899   6.801   8.594   0.001
19005TIP3    H156900   6.708   8.572  -0.003
19005TIP3    H256901   6.803   8.690   0.011
19006TIP3   OH256902   0.232   0.396   1.102
19006TIP3    H156903   0.231   0.375   1.195
19006TIP3    H256904   0.195   0.485   1.097
19007TIP3   OH256905   6.857   8.859   0.067
19007TIP3    H156906   6.951   8.864   0.082
19007TIP3    H256907   6.837   8.937   0.015
19008TIP3   OH256908   9.293   0.066   0.712
19008TIP3    H156909   9.339   0.044   0.631
19008TIP3    H256910   9.354   0.043   0.781
19009TIP3   OH256911   3.225   4.819   7.944
19009TIP3    H156912   3.179   4.902   7.940
19009TIP3    H256913   3.167   4.762   7.994
19010TIP3   OH256914   9.158   0.017   1.533
19010TIP3    H156915   9.120   0.059   1.610
19010TIP3    H256916   9.142  -0.077   1.546
19011TIP3   OH256917   0.201   0.167   1.299
19011TIP3    H156918   0.181   0.096   1.238
19011TIP3    H256919   0.284   0.142   1.339
19012TIP3   OH256920   0.365   0.669   1.002
19012TIP3    H156921   0.270   0.665   1.004
19012TIP3    H256922   0.389   0.708   1.086
19013TIP3   OH256923   0.999   0.578   0.980
19013TIP3    H156924   0.905   0.571   0.968
19013TIP3    H256925   1.036   0.560   0.893
19014TIP3   OH256926   3.728   5.156   7.810
19014TIP3    H156927   3.713   5.081   7.867
19014TIP3    H256928   3.766   5.118   7.730
19015TIP3   OH256929   0.438   0.186   0.642
19015TIP3    H156930   0.344   0.170   0.628
19015TIP3    H256931   0.472   0.101   0.672
19016TIP3   OH256932   9.421   0.402   0.413
19016TIP3    H156933   9.423   0.477   0.354
19016TIP3    H256934   9.331   0.398   0.444
19017TIP3   OH256935   5.725   8.929   0.122
19017TIP3    H156936   5.766   9.013   0.143
19017TIP3    H256937   5.644   8.928   0.172
19018TIP3   OH256938   9.502   0.160   0.310
19018TIP3    H156939   9.486   0.248   0.343
19018TIP3    H256940   9.476   0.102   0.381
19019TIP3   OH256941   9.702   0.725   0.869
19019TIP3    H156942   9.735   0.799   0.819
19019TIP3    H256943   9.779   0.691   0.916
19020TIP3   OH256944   9.341   0.624   0.264
19020TIP3    H156945   9.254   0.633   0.303
19020TIP3    H256946   9.379   0.712   0.269
19021TIP3   OH256947   0.261   0.386   0.826
19021TIP3    H156948   0.252   0.386   0.921
19021TIP3    H256949   0.346   0.345   0.810
19022TIP3   OH256950   3.517   4.882   7.710
19022TIP3    H156951   3.561   4.854   7.791
19022TIP3    H256952   3.431   4.840   7.714
19023TIP3   OH256953   0.510   0.889   0.880
19023TIP3    H156954   0.438   0.827   0.893
19023TIP3    H256955   0.482   0.943   0.806
19024TIP3   OH256956   3.853   5.372   7.538
19024TIP3    H156957   3.896   5.452   7.506
19024TIP3    H256958   3.767   5.401   7.568
19025TIP3   OH256959   3.679   4.795   7.913
19025TIP3    H156960   3.669   4.736   7.988
19025TIP3    H256961   3.763   4.838   7.928
19026TIP3   OH256962   9.116   0.669   1.008
19026TIP3    H156963   9.161   0.619   1.075
19026TIP3    H256964   9.128   0.761   1.034
19027TIP3   OH256965   2.870   4.848   7.727
19027TIP3    H156966   2.881   4.756   7.702
19027TIP3    H256967   2.857   4.846   7.822
19028TIP3   OH256968   9.345   0.244  -0.002
19028TIP3    H156969   9.409   0.219   0.065
19028TIP3    H256970   9.341   0.340   0.003
19029TIP3   OH256971   5.808   9.184   0.200
19029TIP3    H156972   5.745   9.235   0.252
19029TIP3    H256973   5.828   9.240   0.125
19030TIP3   OH256974   6.993   8.854   1.114
19030TIP3    H156975   7.038   8.918   1.059
19030TIP3    H256976   6.985   8.896   1.200
19031TIP3   OH256977   6.860   8.542   0.266
19031TIP3    H156978   6.840   8.562   0.174
19031TIP3    H256979   6.895   8.623   0.301
19032TIP3   OH256980   3.077   5.045   7.936
19032TIP3    H156981   2.993   5.071   7.975
19032TIP3    H256982   3.105   5.121   7.885
19033TIP3   OH256983   6.505   8.755   0.336
19033TIP3    H156984   6.568   8.823   0.313
19033TIP3    H256985   6.530   8.728   0.425
19034TIP3   OH256986   6.857   9.119   1.146
19034TIP3    H156987   6.918   9.147   1.214
19034TIP3    H256988   6.835   9.029   1.170
19035TIP3   OH256989   6.670   8.433   0.433
19035TIP3    H156990   6.655   8.507   0.491
19035TIP3    H256991   6.742   8.460   0.376
19036TIP3   OH256992   9.361   0.516   0.014
19036TIP3    H156993   9.343   0.586  -0.047
19036TIP3    H256994   9.353   0.556   0.100
19037TIP3   OH256995   6.187   8.479   0.244
19037TIP3    H156996   6.182   8.574   0.256
19037TIP3    H256997   6.280   8.459   0.255
19038TIP3   OH256998   7.462   9.052   1.077
19038TIP3    H156999   7.410   8.991   1.130
19038TIP3    H257000   7.460   9.015   0.989
19039TIP3   OH257001   2.566   4.735   7.985
19039TIP3    H157002   2.638   4.798   7.995
19039TIP3    H257003   2.598   4.672   7.921
19040TIP3   OH257004   5.743   8.651   0.100
19040TIP3    H157005   5.760   8.744   0.117
19040TIP3    H257006   5.672   8.652   0.035
19041TIP3   OH257007   0.540   0.868   0.450
19041TIP3    H157008   0.498   0.921   0.382
19041TIP3    H257009   0.634   0.886   0.441
19042TIP3   OH257010   6.232   8.445   0.814
19042TIP3    H157011   6.222   8.395   0.733
19042TIP3    H257012   6.218   8.382   0.884
19043TIP3   OH257013   8.931   0.390   0.384
19043TIP3    H157014   8.893   0.428   0.463
19043TIP3    H257015   8.884   0.432   0.312
19044TIP3   OH257016   9.122   0.934   1.431
19044TIP3    H157017   9.200   0.930   1.486
19044TIP3    H257018   9.089   0.845   1.428
19045TIP3   OH257019   9.588   0.866   1.483
19045TIP3    H157020   9.682   0.867   1.504
19045TIP3    H257021   9.580   0.797   1.417
19046TIP3   OH257022   3.020   5.053   7.615
19046TIP3    H157023   2.974   4.982   7.661
19046TIP3    H257024   3.096   5.010   7.575
19047TIP3   OH257025   0.416   0.775   1.253
19047TIP3    H157026   0.430   0.708   1.320
19047TIP3    H257027   0.490   0.834   1.262
19048TIP3   OH257028   3.461   5.091   7.541
19048TIP3    H157029   3.498   5.028   7.603
19048TIP3    H257030   3.522   5.089   7.467
19049TIP3   OH257031   2.687   4.540   7.838
19049TIP3    H157032   2.737   4.515   7.916
19049TIP3    H257033   2.754   4.554   7.771
19050TIP3   OH257034   0.120   0.473   1.368
19050TIP3    H157035   0.047   0.489   1.309
19050TIP3    H257036   0.096   0.393   1.415
19051TIP3   OH257037   3.263   4.763   7.677
19051TIP3    H157038   3.240   4.774   7.770
19051TIP3    H257039   3.242   4.672   7.658
19052TIP3   OH257040   0.528   0.441   1.008
19052TIP3    H157041   0.607   0.477   0.967
19052TIP3    H257042   0.465   0.513   1.006
19053TIP3   OH257043   6.123   9.098   0.050
19053TIP3    H157044   6.099   9.064   0.136
19053TIP3    H257045   6.175   9.028   0.010
19054TIP3   OH257046   6.393   9.162   1.380
19054TIP3    H157047   6.331   9.229   1.352
19054TIP3    H257048   6.457   9.158   1.308
19055TIP3   OH257049   3.007   4.303   7.895
19055TIP3    H157050   2.977   4.308   7.805
19055TIP3    H257051   3.102   4.310   7.890
19056TIP3   OH257052   0.461   0.336   1.369
19056TIP3    H157053   0.524   0.334   1.298
19056TIP3    H257054   0.495   0.275   1.434
19057TIP3   OH257055   3.801   4.583   7.587
19057TIP3    H157056   3.786   4.543   7.501
19057TIP3    H257057   3.783   4.676   7.573
19058TIP3   OH257058   6.510   8.949   1.508
19058TIP3    H157059   6.463   8.872   1.476
19058TIP3    H257060   6.476   9.022   1.455
19059TIP3   OH257061   6.491   8.780   1.236
19059TIP3    H157062   6.445   8.863   1.224
19059TIP3    H257063   6.423   8.714   1.224
19060TIP3   OH257064   0.085   0.079   1.015
19060TIP3    H157065   0.163   0.057   0.964
19060TIP3    H257066   0.029   0.125   0.952
19061TIP3   OH257067   7.210   9.188   1.477
19061TIP3    H157068   7.232   9.119   1.540
19061TIP3    H257069   7.233   9.151   1.392
19062TIP3   OH257070   0.681   0.310   1.198
19062TIP3    H157071   0.626   0.347   1.129
19062TIP3    H257072   0.770   0.313   1.163
19063TIP3   OH257073   6.676   8.542   1.331
19063TIP3    H157074   6.622   8.597   1.387
19063TIP3    H257075   6.616   8.475   1.297
19064TIP3   OH257076   6.781   8.903   1.525
19064TIP3    H157077   6.823   8.929   1.606
19064TIP3    H257078   6.693   8.940   1.530
19065TIP3   OH257079   6.991   8.970   1.360
19065TIP3    H157080   6.930   8.955   1.432
19065TIP3    H257081   7.076   8.943   1.394
19066TIP3   OH257082   7.290   9.005   1.663
19066TIP3    H157083   7.320   8.914   1.658
19066TIP3    H257084   7.341   9.043   1.735
19067TIP3   OH257085   6.805   8.425   1.548
19067TIP3    H157086   6.878   8.469   1.590
19067TIP3    H257087   6.779   8.483   1.476
19068TIP3   OH257088   2.825   5.341   7.832
19068TIP3    H157089   2.916   5.324   7.808
19068TIP3    H257090   2.789   5.387   7.756
19069TIP3   OH257091   2.293   4.735   8.001
19069TIP3    H157092   2.388   4.744   7.998
19069TIP3    H257093   2.276   4.648   7.966
19070TIP3   OH257094   8.724   0.694   0.459
19070TIP3    H157095   8.659   0.639   0.416
19070TIP3    H257096   8.772   0.635   0.517
19071TIP3   OH257097   8.876   0.533   0.622
19071TIP3    H157098   8.871   0.475   0.697
19071TIP3    H257099   8.928   0.608   0.653
19072TIP3   OH257100   0.802   0.942   0.443
19072TIP3    H157101   0.840   0.981   0.522
19072TIP3    H257102   0.864   0.965   0.373
19073TIP3   OH257103   0.821   0.976   0.735
19073TIP3    H157104   0.781   0.891   0.715
19073TIP3    H257105   0.896   0.955   0.790
19074TIP3   OH257106   0.889   0.670   1.279
19074TIP3    H157107   0.816   0.675   1.340
19074TIP3    H257108   0.935   0.754   1.289
19075TIP3   OH257109   3.945   4.873   7.944
19075TIP3    H157110   4.010   4.918   7.892
19075TIP3    H257111   3.953   4.912   8.031
19076TIP3   OH257112   7.410   9.222   0.049
19076TIP3    H157113   7.336   9.199   0.105
19076TIP3    H257114   7.472   9.266   0.107
19077TIP3   OH257115   0.887   0.407   0.553
19077TIP3    H157116   0.936   0.343   0.501
19077TIP3    H257117   0.885   0.486   0.498
19078TIP3   OH257118   0.684   0.730   0.726
19078TIP3    H157119   0.617   0.779   0.775
19078TIP3    H257120   0.636   0.693   0.652
19079TIP3   OH257121   3.960   4.631   7.804
19079TIP3    H157122   3.902   4.611   7.731
19079TIP3    H257123   3.922   4.710   7.844
19080TIP3   OH257124   3.912   4.236   7.764
19080TIP3    H157125   3.885   4.299   7.697
19080TIP3    H257126   3.870   4.154   7.738
19081TIP3   OH257127   7.188   9.122   0.213
19081TIP3    H157128   7.177   9.028   0.199
19081TIP3    H257129   7.198   9.132   0.307
19082TIP3   OH257130   9.019   0.106   0.858
19082TIP3    H157131   9.035   0.048   0.784
19082TIP3    H257132   9.104   0.117   0.899
19083TIP3   OH257133   0.939   0.322   1.092
19083TIP3    H157134   1.001   0.258   1.058
19083TIP3    H257135   0.962   0.404   1.046
19084TIP3   OH257136   1.112   0.097   1.060
19084TIP3    H157137   1.044   0.084   1.126
19084TIP3    H257138   1.192   0.065   1.102
19085TIP3   OH257139   3.809   3.990   7.698
19085TIP3    H157140   3.878   3.942   7.743
19085TIP3    H257141   3.731   3.936   7.710
19086TIP3   OH257142   7.145   8.850   0.124
19086TIP3    H157143   7.190   8.768   0.142
19086TIP3    H257144   7.171   8.873   0.035
19087TIP3   OH257145   7.383   9.167   0.801
19087TIP3    H157146   7.298   9.178   0.844
19087TIP3    H257147   7.416   9.257   0.791
19088TIP3   OH257148   7.950   8.843   1.386
19088TIP3    H157149   7.947   8.747   1.384
19088TIP3    H257150   8.021   8.866   1.325
19089TIP3   OH257151   7.262   8.608   0.184
19089TIP3    H157152   7.317   8.598   0.262
19089TIP3    H257153   7.206   8.531   0.183
19090TIP3   OH257154   6.006   8.591   0.871
19090TIP3    H157155   6.072   8.525   0.848
19090TIP3    H257156   6.047   8.675   0.851
19091TIP3   OH257157   5.804   8.851   1.259
19091TIP3    H157158   5.804   8.812   1.172
19091TIP3    H257159   5.750   8.929   1.251
19092TIP3   OH257160   7.735   8.918   1.066
19092TIP3    H157161   7.717   8.915   1.160
19092TIP3    H257162   7.676   8.852   1.029
19093TIP3   OH257163   4.041   3.894   7.820
19093TIP3    H157164   4.090   3.835   7.763
19093TIP3    H257165   4.094   3.974   7.823
19094TIP3   OH257166   5.792   8.335   0.514
19094TIP3    H157167   5.704   8.319   0.549
19094TIP3    H257168   5.776   8.391   0.438
19095TIP3   OH257169   0.350   0.847   0.089
19095TIP3    H157170   0.406   0.839   0.012
19095TIP3    H257171   0.395   0.910   0.145
19096TIP3   OH257172   9.292   0.656   1.489
19096TIP3    H157173   9.197   0.663   1.475
19096TIP3    H257174   9.314   0.733   1.541
19097TIP3   OH257175   9.474   0.693   1.020
19097TIP3    H157176   9.423   0.766   0.987
19097TIP3    H257177   9.558   0.700   0.975
19098TIP3   OH257178   0.081   0.916   1.144
19098TIP3    H157179   0.117   0.918   1.233
19098TIP3    H257180   0.142   0.969   1.093
19099TIP3   OH257181   0.272   1.075   1.026
19099TIP3    H157182   0.338   1.028   0.975
19099TIP3    H257183   0.322   1.132   1.084
19100TIP3   OH257184   9.135   0.942   1.055
19100TIP3    H157185   9.044   0.960   1.031
19100TIP3    H257186   9.156   1.009   1.120
19101TIP3   OH257187   9.367   0.922   0.911
19101TIP3    H157188   9.285   0.933   0.958
19101TIP3    H257189   9.347   0.944   0.820
19102TIP3   OH257190   9.780   0.935   0.710
19102TIP3    H157191   9.712   0.947   0.644
19102TIP3    H257192   9.793   1.022   0.747
19103TIP3   OH257193   0.242   0.864   0.759
19103TIP3    H157194   0.152   0.888   0.739
19103TIP3    H257195   0.295   0.928   0.712
19104TIP3   OH257196   0.440   1.028   0.651
19104TIP3    H157197   0.450   1.117   0.617
19104TIP3    H257198   0.473   0.972   0.581
19105TIP3   OH257199   9.047   0.720   0.748
19105TIP3    H157200   9.061   0.709   0.842
19105TIP3    H257201   9.122   0.678   0.707
19106TIP3   OH257202   9.254   0.584   0.639
19106TIP3    H157203   9.265   0.503   0.688
19106TIP3    H257204   9.339   0.627   0.644
19107TIP3   OH257205   9.518   0.673   0.667
19107TIP3    H157206   9.540   0.581   0.651
19107TIP3    H257207   9.572   0.698   0.742
19108TIP3   OH257208   6.821   8.562   0.666
19108TIP3    H157209   6.789   8.487   0.717
19108TIP3    H257210   6.898   8.529   0.620
19109TIP3   OH257211   7.342   8.469   0.616
19109TIP3    H157212   7.376   8.535   0.555
19109TIP3    H257213   7.260   8.507   0.648
19110TIP3   OH257214   7.439   8.595   0.392
19110TIP3    H157215   7.506   8.529   0.376
19110TIP3    H257216   7.481   8.678   0.372
19111TIP3   OH257217   6.145   8.267   0.618
19111TIP3    H157218   6.070   8.267   0.676
19111TIP3    H257219   6.170   8.175   0.610
19112TIP3   OH257220   5.863   8.125   0.352
19112TIP3    H157221   5.903   8.175   0.281
19112TIP3    H257222   5.846   8.190   0.421
19113TIP3   OH257223   6.504   8.306   0.633
19113TIP3    H157224   6.527   8.349   0.551
19113TIP3    H257225   6.577   8.325   0.691
19114TIP3   OH257226   7.051   8.456   0.552
19114TIP3    H157227   7.107   8.415   0.486
19114TIP3    H257228   7.021   8.383   0.607
19115TIP3   OH257229   7.085   8.395   0.198
19115TIP3    H157230   7.003   8.441   0.218
19115TIP3    H257231   7.071   8.306   0.231
19116TIP3   OH257232   8.806   0.504   0.170
19116TIP3    H157233   8.723   0.472   0.135
19116TIP3    H257234   8.814   0.593   0.136
19117TIP3   OH257235   5.986   8.292   0.159
19117TIP3    H157236   6.035   8.235   0.099
19117TIP3    H257237   6.052   8.352   0.193
19118TIP3   OH257238   6.461   8.496   0.259
19118TIP3    H157239   6.524   8.448   0.312
19118TIP3    H257240   6.474   8.588   0.282
19119TIP3   OH257241   3.084   5.272   7.768
19119TIP3    H157242   3.166   5.301   7.730
19119TIP3    H257243   3.053   5.203   7.709
19120TIP3   OH257244   3.761   5.422   7.859
19120TIP3    H157245   3.757   5.327   7.848
19120TIP3    H257246   3.725   5.457   7.778
19121TIP3   OH257247   2.391   5.119   7.819
19121TIP3    H157248   2.394   5.136   7.913
19121TIP3    H257249   2.472   5.072   7.801
19122TIP3   OH257250   7.403   8.755   1.652
19122TIP3    H157251   7.438   8.689   1.593
19122TIP3    H257252   7.481   8.798   1.689
19123TIP3   OH257253   0.731   0.936   1.047
19123TIP3    H157254   0.659   0.908   0.990
19123TIP3    H257255   0.723   1.031   1.050
19124TIP3   OH257256   5.275   4.933   7.793
19124TIP3    H157257   5.240   5.021   7.779
19124TIP3    H257258   5.206   4.874   7.762
19125TIP3   OH257259   2.011   0.312   0.213
19125TIP3    H157260   2.064   0.295   0.291
19125TIP3    H257261   1.966   0.230   0.196
19126TIP3   OH257262   1.305   0.168   0.557
19126TIP3    H157263   1.347   0.123   0.630
19126TIP3    H257264   1.378   0.200   0.504
19127TIP3   OH257265   5.560   5.239   7.896
19127TIP3    H157266   5.539   5.176   7.965
19127TIP3    H257267   5.573   5.322   7.943
19128TIP3   OH257268   1.306   0.626   0.257
19128TIP3    H157269   1.267   0.541   0.239
19128TIP3    H257270   1.398   0.616   0.232
19129TIP3   OH257271   1.060   0.096   0.221
19129TIP3    H157272   1.114   0.027   0.261
19129TIP3    H257273   1.121   0.170   0.209
19130TIP3   OH257274   5.202   5.669   7.904
19130TIP3    H157275   5.226   5.608   7.834
19130TIP3    H257276   5.208   5.617   7.984
19131TIP3   OH257277   1.820   0.532   0.217
19131TIP3    H157278   1.868   0.454   0.188
19131TIP3    H257279   1.888   0.592   0.249
19132TIP3   OH257280   9.389   9.092   0.235
19132TIP3    H157281   9.403   9.178   0.276
19132TIP3    H257282   9.417   9.105   0.144
19133TIP3   OH257283   8.750   9.259   0.252
19133TIP3    H157284   8.784   9.174   0.279
19133TIP3    H257285   8.715   9.244   0.164
19134TIP3   OH257286   8.119   8.923   0.215
19134TIP3    H157287   8.093   8.994   0.156
19134TIP3    H257288   8.068   8.848   0.186
19135TIP3   OH257289   5.542   4.406   7.852
19135TIP3    H157290   5.606   4.400   7.922
19135TIP3    H257291   5.591   4.442   7.778
19136TIP3   OH257292   7.738   9.135   0.341
19136TIP3    H157293   7.823   9.131   0.385
19136TIP3    H257294   7.746   9.077   0.266
19137TIP3   OH257295   1.619   0.090   0.161
19137TIP3    H157296   1.714   0.076   0.166
19137TIP3    H257297   1.585   0.007   0.126
19138TIP3   OH257298   2.904   0.074   0.402
19138TIP3    H157299   2.819   0.117   0.391
19138TIP3    H257300   2.941   0.113   0.480
19139TIP3   OH257301   8.099   8.927   0.658
19139TIP3    H157302   8.048   8.968   0.588
19139TIP3    H257303   8.050   8.947   0.738
19140TIP3   OH257304   5.124   5.140   7.687
19140TIP3    H157305   5.130   5.138   7.592
19140TIP3    H257306   5.088   5.227   7.707
19141TIP3   OH257307   1.654   0.460   0.426
19141TIP3    H157308   1.602   0.533   0.459
19141TIP3    H257309   1.704   0.496   0.353
19142TIP3   OH257310   8.968   9.044   0.073
19142TIP3    H157311   8.924   9.025   0.156
19142TIP3    H257312   9.024   9.119   0.092
19143TIP3   OH257313   7.991   9.042   0.431
19143TIP3    H157314   8.043   9.118   0.456
19143TIP3    H257315   8.041   9.001   0.361
19144TIP3   OH257316   1.506   0.666   0.532
19144TIP3    H157317   1.489   0.752   0.495
19144TIP3    H257318   1.429   0.648   0.587
19145TIP3   OH257319   4.153   4.995   7.810
19145TIP3    H157320   4.134   5.057   7.739
19145TIP3    H257321   4.188   5.050   7.881
19146TIP3   OH257322   2.313   0.868   0.032
19146TIP3    H157323   2.225   0.861   0.068
19146TIP3    H257324   2.312   0.949  -0.018
19147TIP3   OH257325   9.193   8.971   0.400
19147TIP3    H157326   9.107   8.999   0.367
19147TIP3    H257327   9.255   9.002   0.335
19148TIP3   OH257328   8.440   8.618   0.392
19148TIP3    H157329   8.433   8.525   0.416
19148TIP3    H257330   8.365   8.659   0.433
19149TIP3   OH257331   5.283   5.525   7.682
19149TIP3    H157332   5.331   5.442   7.677
19149TIP3    H257333   5.346   5.591   7.652
19150TIP3   OH257334   5.432   5.302   7.658
19150TIP3    H157335   5.459   5.241   7.589
19150TIP3    H257336   5.479   5.272   7.736
19151TIP3   OH257337   2.546   0.759   0.371
19151TIP3    H157338   2.530   0.685   0.313
19151TIP3    H257339   2.531   0.837   0.317
19152TIP3   OH257340   5.102   4.775   7.639
19152TIP3    H157341   5.023   4.827   7.625
19152TIP3    H257342   5.151   4.785   7.557
19153TIP3   OH257343   5.068   4.589   7.334
19153TIP3    H157344   5.133   4.638   7.386
19153TIP3    H257345   5.121   4.525   7.285
19154TIP3   OH257346   2.725   0.418   0.243
19154TIP3    H157347   2.642   0.465   0.241
19154TIP3    H257348   2.762   0.431   0.155
19155TIP3   OH257349   5.461   4.866   7.601
19155TIP3    H157350   5.407   4.896   7.674
19155TIP3    H257351   5.546   4.847   7.641
19156TIP3   OH257352   2.426   0.276   0.550
19156TIP3    H157353   2.423   0.361   0.594
19156TIP3    H257354   2.345   0.272   0.500
19157TIP3   OH257355   1.425   0.224   0.008
19157TIP3    H157356   1.396   0.162  -0.059
19157TIP3    H257357   1.500   0.181   0.050
19158TIP3   OH257358   1.563   0.647   0.142
19158TIP3    H157359   1.535   0.635   0.051
19158TIP3    H257360   1.651   0.610   0.146
19159TIP3   OH257361   1.517   0.228   0.380
19159TIP3    H157362   1.556   0.192   0.300
19159TIP3    H257363   1.565   0.310   0.394
19160TIP3   OH257364   2.073   0.863   0.160
19160TIP3    H157365   2.059   0.944   0.208
19160TIP3    H257366   2.056   0.794   0.224
19161TIP3   OH257367   1.698   0.760   0.706
19161TIP3    H157368   1.637   0.818   0.752
19161TIP3    H257369   1.644   0.712   0.644
19162TIP3   OH257370   5.295   4.728   7.430
19162TIP3    H157371   5.354   4.787   7.477
19162TIP3    H257372   5.318   4.740   7.338
19163TIP3   OH257373   1.463   0.319   0.852
19163TIP3    H157374   1.465   0.413   0.870
19163TIP3    H257375   1.371   0.300   0.831
19164TIP3   OH257376   5.033   5.406   7.699
19164TIP3    H157377   5.119   5.448   7.699
19164TIP3    H257378   4.978   5.463   7.647
19165TIP3   OH257379   1.489   0.920   0.789
19165TIP3    H157380   1.467   0.932   0.696
19165TIP3    H257381   1.405   0.905   0.832
19166TIP3   OH257382   5.807   3.957   7.495
19166TIP3    H157383   5.731   3.981   7.548
19166TIP3    H257384   5.820   4.031   7.436
19167TIP3   OH257385   4.580   4.688   7.802
19167TIP3    H157386   4.507   4.745   7.779
19167TIP3    H257387   4.548   4.599   7.785
19168TIP3   OH257388   1.084   0.491   0.738
19168TIP3    H157389   1.019   0.469   0.671
19168TIP3    H257390   1.126   0.408   0.759
19169TIP3   OH257391   0.915   0.619   0.386
19169TIP3    H157392   0.938   0.611   0.294
19169TIP3    H257393   0.903   0.713   0.400
19170TIP3   OH257394   2.781   1.122   0.440
19170TIP3    H157395   2.784   1.027   0.453
19170TIP3    H257396   2.701   1.149   0.485
19171TIP3   OH257397   1.886   0.906   0.569
19171TIP3    H157398   1.877   0.997   0.596
19171TIP3    H257399   1.819   0.859   0.617
19172TIP3   OH257400   4.928   5.621   7.521
19172TIP3    H157401   4.881   5.601   7.440
19172TIP3    H257402   4.893   5.704   7.551
19173TIP3   OH257403   4.357   5.467   7.915
19173TIP3    H157404   4.412   5.479   7.993
19173TIP3    H257405   4.316   5.382   7.927
19174TIP3   OH257406   5.154   5.523   7.152
19174TIP3    H157407   5.211   5.449   7.132
19174TIP3    H257408   5.182   5.552   7.239
19175TIP3   OH257409   5.183   5.604   7.417
19175TIP3    H157410   5.096   5.605   7.458
19175TIP3    H257411   5.241   5.567   7.484
19176TIP3   OH257412   2.670   0.238   0.713
19176TIP3    H157413   2.587   0.250   0.667
19176TIP3    H257414   2.689   0.144   0.704
19177TIP3   OH257415   1.298   0.662   0.710
19177TIP3    H157416   1.343   0.648   0.793
19177TIP3    H257417   1.219   0.609   0.716
19178TIP3   OH257418   8.206   8.711   0.519
19178TIP3    H157419   8.124   8.680   0.482
19178TIP3    H257420   8.183   8.794   0.562
19179TIP3   OH257421   8.743   8.832   0.721
19179TIP3    H157422   8.812   8.809   0.783
19179TIP3    H257423   8.661   8.817   0.769
19180TIP3   OH257424   2.427   0.009   0.634
19180TIP3    H157425   2.389   0.005   0.722
19180TIP3    H257426   2.414   0.100   0.607
19181TIP3   OH257427   5.356   4.717   7.157
19181TIP3    H157428   5.326   4.715   7.067
19181TIP3    H257429   5.427   4.782   7.157
19182TIP3   OH257430   5.077   4.132   7.492
19182TIP3    H157431   5.042   4.138   7.581
19182TIP3    H257432   5.044   4.048   7.460
19183TIP3   OH257433   1.607   0.012   0.527
19183TIP3    H157434   1.566   0.022   0.613
19183TIP3    H257435   1.584   0.091   0.479
19184TIP3   OH257436   8.005   9.112   0.053
19184TIP3    H157437   7.913   9.094   0.075
19184TIP3    H257438   8.014   9.084  -0.038
19185TIP3   OH257439   5.224   4.570   7.774
19185TIP3    H157440   5.178   4.644   7.734
19185TIP3    H257441   5.286   4.540   7.707
19186TIP3   OH257442   2.156   0.221   0.849
19186TIP3    H157443   2.129   0.154   0.912
19186TIP3    H257444   2.248   0.238   0.869
19187TIP3   OH257445   5.391   4.590   8.002
19187TIP3    H157446   5.324   4.614   7.937
19187TIP3    H257447   5.439   4.518   7.960
19188TIP3   OH257448   1.448   0.026   0.752
19188TIP3    H157449   1.487   0.086   0.815
19188TIP3    H257450   1.438  -0.057   0.800
19189TIP3   OH257451   4.745   4.109   7.469
19189TIP3    H157452   4.738   4.115   7.564
19189TIP3    H257453   4.668   4.154   7.435
19190TIP3   OH257454   7.585   8.796   0.268
19190TIP3    H157455   7.656   8.811   0.331
19190TIP3    H257456   7.618   8.726   0.211
19191TIP3   OH257457   4.164   4.146   7.826
19191TIP3    H157458   4.219   4.190   7.762
19191TIP3    H257459   4.077   4.182   7.812
19192TIP3   OH257460   2.176   0.222   0.428
19192TIP3    H157461   2.198   0.154   0.364
19192TIP3    H257462   2.129   0.175   0.497
19193TIP3   OH257463   8.383   8.907   0.099
19193TIP3    H157464   8.306   8.912   0.157
19193TIP3    H257465   8.457   8.901   0.159
19194TIP3   OH257466   7.768   8.967   0.125
19194TIP3    H157467   7.684   8.926   0.147
19194TIP3    H257468   7.827   8.893   0.110
19195TIP3   OH257469   4.758   4.379   7.803
19195TIP3    H157470   4.852   4.391   7.799
19195TIP3    H257471   4.726   4.400   7.715
19196TIP3   OH257472   8.824   8.997   0.309
19196TIP3    H157473   8.805   9.015   0.401
19196TIP3    H257474   8.755   8.936   0.282
19197TIP3   OH257475   4.642   4.410   7.554
19197TIP3    H157476   4.587   4.354   7.499
19197TIP3    H257477   4.698   4.457   7.492
19198TIP3   OH257478   2.492   1.464   0.527
19198TIP3    H157479   2.488   1.481   0.433
19198TIP3    H257480   2.572   1.509   0.556
19199TIP3   OH257481   1.436   0.579   0.949
19199TIP3    H157482   1.517   0.600   0.995
19199TIP3    H257483   1.367   0.593   1.014
19200TIP3   OH257484   1.893   0.040   0.206
19200TIP3    H157485   1.963  -0.003   0.157
19200TIP3    H257486   1.896  -0.002   0.292
19201TIP3   OH257487   7.933   8.744   0.096
19201TIP3    H157488   7.904   8.666   0.143
19201TIP3    H257489   7.961   8.713   0.010
19202TIP3   OH257490   8.404   9.183   0.473
19202TIP3    H157491   8.318   9.219   0.494
19202TIP3    H257492   8.465   9.235   0.525
19203TIP3   OH257493   4.868   4.916   7.593
19203TIP3    H157494   4.789   4.872   7.562
19203TIP3    H257495   4.841   4.962   7.673
19204TIP3   OH257496   2.493   0.556   0.193
19204TIP3    H157497   2.528   0.605   0.118
19204TIP3    H257498   2.413   0.515   0.159
19205TIP3   OH257499   5.332   4.234   7.498
19205TIP3    H157500   5.238   4.216   7.491
19205TIP3    H257501   5.338   4.329   7.506
19206TIP3   OH257502   2.009   0.635   0.611
19206TIP3    H157503   2.067   0.630   0.688
19206TIP3    H257504   1.972   0.723   0.615
19207TIP3   OH257505   5.394   4.499   7.560
19207TIP3    H157506   5.488   4.507   7.572
19207TIP3    H257507   5.370   4.577   7.509
19208TIP3   OH257508   1.274   0.269   0.235
19208TIP3    H157509   1.316   0.272   0.149
19208TIP3    H257510   1.346   0.265   0.297
19209TIP3   OH257511   5.010   5.071   7.416
19209TIP3    H157512   4.968   5.157   7.422
19209TIP3    H257513   4.965   5.018   7.482
19210TIP3   OH257514   1.189   0.262   0.851
19210TIP3    H157515   1.198   0.229   0.941
19210TIP3    H257516   1.113   0.215   0.816
19211TIP3   OH257517   1.928   0.382   0.886
19211TIP3    H157518   1.863   0.333   0.836
19211TIP3    H257519   2.012   0.341   0.862
19212TIP3   OH257520   2.155   0.925   0.491
19212TIP3    H157521   2.060   0.914   0.495
19212TIP3    H257522   2.179   0.964   0.575
19213TIP3   OH257523   5.804   4.593   7.377
19213TIP3    H157524   5.747   4.545   7.316
19213TIP3    H257525   5.806   4.682   7.343
19214TIP3   OH257526   2.792   0.840   0.462
19214TIP3    H157527   2.697   0.826   0.454
19214TIP3    H257528   2.827   0.811   0.378
19215TIP3   OH257529   5.502   5.358   7.267
19215TIP3    H157530   5.497   5.289   7.333
19215TIP3    H257531   5.483   5.313   7.184
19216TIP3   OH257532   2.264   0.419   0.095
19216TIP3    H157533   2.173   0.398   0.118
19216TIP3    H257534   2.297   0.339   0.054
19217TIP3   OH257535   4.663   5.270   7.912
19217TIP3    H157536   4.659   5.346   7.854
19217TIP3    H257537   4.573   5.258   7.942
19218TIP3   OH257538   4.227   4.592   7.684
19218TIP3    H157539   4.283   4.670   7.677
19218TIP3    H257540   4.181   4.588   7.600
19219TIP3   OH257541   4.747   5.029   7.808
19219TIP3    H157542   4.730   5.118   7.837
19219TIP3    H257543   4.729   4.975   7.884
19220TIP3   OH257544   1.704   0.975   0.359
19220TIP3    H157545   1.737   1.050   0.310
19220TIP3    H257546   1.779   0.944   0.409
19221TIP3   OH257547   4.586   5.494   7.758
19221TIP3    H157548   4.500   5.498   7.800
19221TIP3    H257549   4.621   5.582   7.765
19222TIP3   OH257550   2.049   0.643   0.336
19222TIP3    H157551   2.035   0.637   0.431
19222TIP3    H257552   2.133   0.600   0.321
19223TIP3   OH257553   2.306   1.139   0.371
19223TIP3    H157554   2.234   1.077   0.387
19223TIP3    H257555   2.275   1.193   0.299
19224TIP3   OH257556   5.657   5.636   7.001
19224TIP3    H157557   5.694   5.723   6.982
19224TIP3    H257558   5.572   5.653   7.039
19225TIP3   OH257559   7.942   9.013   0.870
19225TIP3    H157560   7.847   9.022   0.863
19225TIP3    H257561   7.955   8.966   0.953
19226TIP3   OH257562   5.517   5.116   7.471
19226TIP3    H157563   5.485   5.031   7.501
19226TIP3    H257564   5.605   5.098   7.437
19227TIP3   OH257565   1.121   0.888   0.527
19227TIP3    H157566   1.176   0.818   0.561
19227TIP3    H257567   1.157   0.968   0.566
19228TIP3   OH257568   4.656   5.109   7.220
19228TIP3    H157569   4.680   5.020   7.195
19228TIP3    H257570   4.649   5.106   7.315
19229TIP3   OH257571   4.606   5.123   7.494
19229TIP3    H157572   4.673   5.103   7.559
19229TIP3    H257573   4.600   5.218   7.494
19230TIP3   OH257574   4.353   4.829   7.711
19230TIP3    H157575   4.296   4.886   7.763
19230TIP3    H257576   4.375   4.880   7.634
19231TIP3   OH257577   8.767   9.061   0.570
19231TIP3    H157578   8.845   9.108   0.600
19231TIP3    H257579   8.761   8.985   0.627
19232TIP3   OH257580   5.395   4.186   7.764
19232TIP3    H157581   5.374   4.205   7.673
19232TIP3    H257582   5.438   4.265   7.796
19233TIP3   OH257583   4.870   5.304   7.430
19233TIP3    H157584   4.786   5.333   7.466
19233TIP3    H257585   4.898   5.376   7.374
19234TIP3   OH257586   5.036   4.386   7.852
19234TIP3    H157587   5.098   4.452   7.822
19234TIP3    H257588   5.064   4.365   7.941
19235TIP3   OH257589   2.074   0.058   0.626
19235TIP3    H157590   2.101   0.103   0.705
19235TIP3    H257591   2.126  -0.023   0.625
19236TIP3   OH257592   5.207   4.079   7.936
19236TIP3    H157593   5.184   4.155   7.988
19236TIP3    H257594   5.278   4.109   7.879
19237TIP3   OH257595   4.620   5.395   7.503
19237TIP3    H157596   4.608   5.469   7.443
19237TIP3    H257597   4.606   5.433   7.590
19238TIP3   OH257598   4.718   4.106   7.749
19238TIP3    H157599   4.708   4.197   7.775
19238TIP3    H257600   4.813   4.090   7.754
19239TIP3   OH257601   9.229   9.211   0.622
19239TIP3    H157602   9.134   9.207   0.628
19239TIP3    H257603   9.248   9.179   0.533
19240TIP3   OH257604   2.355   0.160   0.004
19240TIP3    H157605   2.277   0.106   0.016
19240TIP3    H257606   2.422   0.120   0.059
19241TIP3   OH257607   4.362   4.987   7.484
19241TIP3    H157608   4.429   5.054   7.493
19241TIP3    H257609   4.396   4.929   7.415
19242TIP3   OH257610   4.262   4.309   7.627
19242TIP3    H157611   4.273   4.402   7.644
19242TIP3    H257612   4.258   4.302   7.532
19243TIP3   OH257613   5.601   5.750   7.943
19243TIP3    H157614   5.558   5.803   7.876
19243TIP3    H257615   5.694   5.765   7.928
19244TIP3   OH257616   7.951   8.622   0.461
19244TIP3    H157617   7.919   8.590   0.377
19244TIP3    H257618   7.941   8.547   0.520
19245TIP3   OH257619   1.127   1.176   0.938
19245TIP3    H157620   1.209   1.181   0.988
19245TIP3    H257621   1.117   1.083   0.919
19246TIP3   OH257622   1.589   1.083   0.989
19246TIP3    H157623   1.683   1.063   0.995
19246TIP3    H257624   1.558   1.030   0.915
19247TIP3   OH257625   4.836   5.285   7.102
19247TIP3    H157626   4.778   5.225   7.150
19247TIP3    H257627   4.915   5.233   7.086
19248TIP3   OH257628   2.212   1.026   0.739
19248TIP3    H157629   2.224   0.956   0.803
19248TIP3    H257630   2.287   1.084   0.751
19249TIP3   OH257631   1.228   0.579   1.136
19249TIP3    H157632   1.247   0.486   1.143
19249TIP3    H257633   1.142   0.583   1.095
19250TIP3   OH257634   4.479   4.793   7.326
19250TIP3    H157635   4.533   4.776   7.404
19250TIP3    H257636   4.542   4.812   7.257
19251TIP3   OH257637   1.851   0.655   0.910
19251TIP3    H157638   1.808   0.678   0.828
19251TIP3    H257639   1.891   0.570   0.893
19252TIP3   OH257640   4.970   5.025   7.147
19252TIP3    H157641   4.993   5.041   7.239
19252TIP3    H257642   4.978   4.930   7.137
19253TIP3   OH257643   2.320   0.700   0.520
19253TIP3    H157644   2.399   0.727   0.473
19253TIP3    H257645   2.258   0.771   0.506
19254TIP3   OH257646   1.338   0.320   1.124
19254TIP3    H157647   1.409   0.313   1.060
19254TIP3    H257648   1.382   0.341   1.207
19255TIP3   OH257649   4.656   4.742   7.533
19255TIP3    H157650   4.656   4.716   7.625
19255TIP3    H257651   4.711   4.677   7.489
19256TIP3   OH257652   1.698   0.187   0.785
19256TIP3    H157653   1.625   0.245   0.806
19256TIP3    H257654   1.739   0.227   0.708
19257TIP3   OH257655   4.796   4.557   7.379
19257TIP3    H157656   4.769   4.562   7.287
19257TIP3    H257657   4.891   4.566   7.377
19258TIP3   OH257658   2.205   0.576   0.874
19258TIP3    H157659   2.275   0.540   0.819
19258TIP3    H257660   2.204   0.520   0.951
19259TIP3   OH257661   5.562   4.889   7.084
19259TIP3    H157662   5.555   4.859   6.993
19259TIP3    H257663   5.523   4.977   7.083
19260TIP3   OH257664   8.348   9.209   0.902
19260TIP3    H157665   8.354   9.137   0.839
19260TIP3    H257666   8.312   9.282   0.852
19261TIP3   OH257667   8.358   9.011   0.698
19261TIP3    H157668   8.386   9.051   0.616
19261TIP3    H257669   8.267   8.985   0.682
19262TIP3   OH257670   1.828   0.323   0.590
19262TIP3    H157671   1.914   0.363   0.574
19262TIP3    H257672   1.769   0.371   0.533
19263TIP3   OH257673   2.421   0.266   0.949
19263TIP3    H157674   2.478   0.190   0.950
19263TIP3    H257675   2.481   0.341   0.944
19264TIP3   OH257676   2.446   0.524   0.684
19264TIP3    H157677   2.392   0.585   0.634
19264TIP3    H257678   2.535   0.540   0.653
19265TIP3   OH257679   1.711   0.071   1.142
19265TIP3    H157680   1.640   0.011   1.167
19265TIP3    H257681   1.736   0.043   1.055
19266TIP3   OH257682   8.477   8.779   0.796
19266TIP3    H157683   8.437   8.860   0.764
19266TIP3    H257684   8.408   8.713   0.784
19267TIP3   OH257685   2.070   0.012   1.007
19267TIP3    H157686   2.061   0.000   1.101
19267TIP3    H257687   1.984  -0.008   0.971
19268TIP3   OH257688   8.849   9.204   0.875
19268TIP3    H157689   8.771   9.206   0.931
19268TIP3    H257690   8.921   9.186   0.936
19269TIP3   OH257691   9.084   9.172   1.024
19269TIP3    H157692   9.097   9.077   1.033
19269TIP3    H257693   9.078   9.204   1.114
19270TIP3   OH257694   8.085   9.100   1.222
19270TIP3    H157695   8.094   9.017   1.175
19270TIP3    H257696   8.128   9.085   1.306
19271TIP3   OH257697   8.548   8.765   1.058
19271TIP3    H157698   8.616   8.697   1.054
19271TIP3    H257699   8.517   8.773   0.968
19272TIP3   OH257700   8.640   8.976   1.208
19272TIP3    H157701   8.610   8.907   1.149
19272TIP3    H257702   8.565   9.037   1.213
19273TIP3   OH257703   4.641   5.602   7.319
19273TIP3    H157704   4.726   5.575   7.286
19273TIP3    H257705   4.600   5.648   7.246
19274TIP3   OH257706   4.085   4.992   7.456
19274TIP3    H157707   4.178   5.005   7.476
19274TIP3    H257708   4.078   4.898   7.439
19275TIP3   OH257709   3.976   5.576   7.938
19275TIP3    H157710   3.910   5.517   7.901
19275TIP3    H257711   4.018   5.524   8.007
19276TIP3   OH257712   0.836   0.817   0.129
19276TIP3    H157713   0.874   0.735   0.096
19276TIP3    H257714   0.908   0.858   0.178
19277TIP3   OH257715   5.872   5.804   7.937
19277TIP3    H157716   5.891   5.834   8.026
19277TIP3    H257717   5.927   5.859   7.881
19278TIP3   OH257718   2.620   1.221   0.215
19278TIP3    H157719   2.573   1.137   0.211
19278TIP3    H257720   2.691   1.206   0.278
19279TIP3   OH257721   2.676   0.904   0.788
19279TIP3    H157722   2.602   0.917   0.848
19279TIP3    H257723   2.721   0.989   0.786
19280TIP3   OH257724   5.779   5.045   7.407
19280TIP3    H157725   5.833   5.118   7.374
19280TIP3    H257726   5.831   5.007   7.478
19281TIP3   OH257727   5.910   4.900   7.604
19281TIP3    H157728   5.838   4.872   7.660
19281TIP3    H257729   5.971   4.944   7.664
19282TIP3   OH257730   5.946   5.314   8.035
19282TIP3    H157731   5.993   5.246   7.987
19282TIP3    H257732   5.945   5.389   7.976
19283TIP3   OH257733   2.480   0.980   0.223
19283TIP3    H157734   2.413   1.026   0.274
19283TIP3    H257735   2.433   0.940   0.151
19284TIP3   OH257736   5.786   4.833   7.235
19284TIP3    H157737   5.711   4.845   7.177
19284TIP3    H257738   5.782   4.908   7.295
19285TIP3   OH257739   5.651   4.470   7.186
19285TIP3    H157740   5.608   4.513   7.113
19285TIP3    H257741   5.644   4.376   7.168
19286TIP3   OH257742   5.693   4.777   7.737
19286TIP3    H157743   5.696   4.683   7.723
19286TIP3    H257744   5.672   4.787   7.830
19287TIP3   OH257745   1.042   0.171   0.492
19287TIP3    H157746   1.036   0.160   0.397
19287TIP3    H257747   1.135   0.179   0.510
19288TIP3   OH257748   2.704   0.568   0.592
19288TIP3    H157749   2.771   0.503   0.573
19288TIP3    H257750   2.720   0.639   0.529
19289TIP3   OH257751   2.881   0.356   0.584
19289TIP3    H157752   2.808   0.318   0.632
19289TIP3    H257753   2.956   0.301   0.607
19290TIP3   OH257754   5.621   4.196   7.154
19290TIP3    H157755   5.683   4.174   7.224
19290TIP3    H257756   5.537   4.164   7.185
19291TIP3   OH257757   5.684   4.499   7.622
19291TIP3    H157758   5.731   4.416   7.633
19291TIP3    H257759   5.724   4.539   7.545
19292TIP3   OH257760   2.572   0.038   0.145
19292TIP3    H157761   2.651   0.057   0.095
19292TIP3    H257762   2.586   0.080   0.230
19293TIP3   OH257763   2.645   0.188   0.373
19293TIP3    H157764   2.573   0.216   0.429
19293TIP3    H257765   2.675   0.268   0.330
19294TIP3   OH257766   7.832   9.186   1.186
19294TIP3    H157767   7.924   9.164   1.201
19294TIP3    H257768   7.789   9.101   1.172
19295TIP3   OH257769   9.644   9.021   0.910
19295TIP3    H157770   9.709   8.967   0.865
19295TIP3    H257771   9.604   9.073   0.840
19296TIP3   OH257772   5.801   4.248   7.673
19296TIP3    H157773   5.847   4.232   7.756
19296TIP3    H257774   5.738   4.177   7.666
19297TIP3   OH257775   7.791   8.843   0.440
19297TIP3    H157776   7.845   8.768   0.464
19297TIP3    H257777   7.849   8.919   0.446
19298TIP3   OH257778   7.571   9.124   0.570
19298TIP3    H157779   7.622   9.093   0.495
19298TIP3    H257780   7.563   9.219   0.557
19299TIP3   OH257781   9.491   9.144   0.722
19299TIP3    H157782   9.414   9.186   0.759
19299TIP3    H257783   9.456   9.076   0.664
19300TIP3   OH257784   5.853   4.149   7.304
19300TIP3    H157785   5.907   4.092   7.249
19300TIP3    H257786   5.901   4.232   7.308
19301TIP3   OH257787   7.526   8.621   0.039
19301TIP3    H157788   7.443   8.607   0.085
19301TIP3    H257789   7.505   8.683  -0.031
19302TIP3   OH257790   5.443   5.711   7.566
19302TIP3    H157791   5.491   5.681   7.488
19302TIP3    H257792   5.490   5.789   7.594
19303TIP3   OH257793   1.260   0.897   0.951
19303TIP3    H157794   1.167   0.876   0.949
19303TIP3    H257795   1.282   0.903   1.044
19304TIP3   OH257796   1.474   0.945   0.508
19304TIP3    H157797   1.425   1.020   0.475
19304TIP3    H257798   1.559   0.951   0.464
19305TIP3   OH257799   1.868   1.173   0.645
19305TIP3    H157800   1.906   1.165   0.732
19305TIP3    H257801   1.930   1.227   0.596
19306TIP3   OH257802   2.059   1.327   0.519
19306TIP3    H157803   2.121   1.275   0.468
19306TIP3    H257804   2.114   1.385   0.571
19307TIP3   OH257805   9.398   8.903   0.602
19307TIP3    H157806   9.317   8.908   0.552
19307TIP3    H257807   9.425   8.812   0.595
19308TIP3   OH257808   1.143   1.193   0.556
19308TIP3    H157809   1.050   1.205   0.533
19308TIP3    H257810   1.161   1.262   0.620
19309TIP3   OH257811   1.368   1.175   0.402
19309TIP3    H157812   1.286   1.183   0.451
19309TIP3    H257813   1.344   1.196   0.312
19310TIP3   OH257814   1.775   1.189   0.199
19310TIP3    H157815   1.705   1.199   0.135
19310TIP3    H257816   1.786   1.276   0.237
19311TIP3   OH257817   2.038   1.123   0.248
19311TIP3    H157818   1.947   1.144   0.227
19311TIP3    H257819   2.089   1.188   0.200
19312TIP3   OH257820   2.239   1.290   0.144
19312TIP3    H157821   2.242   1.378   0.107
19312TIP3    H257822   2.269   1.233   0.074
19313TIP3   OH257823   1.034   0.954   0.276
19313TIP3    H157824   1.062   0.933   0.365
19313TIP3    H257825   1.108   0.926   0.221
19314TIP3   OH257826   1.249   0.864   0.137
19314TIP3    H157827   1.258   0.779   0.180
19314TIP3    H257828   1.338   0.900   0.138
19315TIP3   OH257829   1.521   0.928   0.154
19315TIP3    H157830   1.536   0.835   0.137
19315TIP3    H257831   1.576   0.948   0.229
19316TIP3   OH257832   8.608   8.817   0.241
19316TIP3    H157833   8.567   8.746   0.291
19316TIP3    H257834   8.676   8.774   0.190
19317TIP3   OH257835   9.112   8.731   0.128
19317TIP3    H157836   9.150   8.780   0.055
19317TIP3    H257837   9.022   8.763   0.132
19318TIP3   OH257838   5.960   4.189   7.893
19318TIP3    H157839   6.028   4.129   7.865
19318TIP3    H257840   5.999   4.276   7.883
19319TIP3   OH257841   7.846   8.517   0.229
19319TIP3    H157842   7.759   8.483   0.246
19319TIP3    H257843   7.901   8.439   0.220
19320TIP3   OH257844   4.400   3.808   7.890
19320TIP3    H157845   4.431   3.855   7.812
19320TIP3    H257846   4.359   3.876   7.944
19321TIP3   OH257847   8.328   8.561   0.135
19321TIP3    H157848   8.376   8.605   0.065
19321TIP3    H257849   8.371   8.590   0.215
19322TIP3   OH257850   8.819   8.693   0.114
19322TIP3    H157851   8.844   8.660   0.028
19322TIP3    H257852   8.829   8.618   0.172
19323TIP3   OH257853   5.616   4.037   7.678
19323TIP3    H157854   5.537   4.085   7.703
19323TIP3    H257855   5.605   3.950   7.716
19324TIP3   OH257856   4.125   5.319   7.583
19324TIP3    H157857   4.031   5.335   7.579
19324TIP3    H257858   4.155   5.369   7.658
19325TIP3   OH257859   4.511   3.936   7.657
19325TIP3    H157860   4.558   3.876   7.598
19325TIP3    H257861   4.580   3.992   7.693
19326TIP3   OH257862   4.993   4.132   7.757
19326TIP3    H157863   5.056   4.082   7.809
19326TIP3    H257864   5.006   4.223   7.784
19327TIP3   OH257865   4.890   5.514   7.243
19327TIP3    H157866   4.978   5.537   7.212
19327TIP3    H257867   4.864   5.441   7.187
19328TIP3   OH257868   5.578   5.626   7.335
19328TIP3    H157869   5.564   5.533   7.316
19328TIP3    H257870   5.539   5.672   7.260
19329TIP3   OH257871   8.103   8.848   1.130
19329TIP3    H157872   8.079   8.755   1.131
19329TIP3    H257873   8.197   8.848   1.151
19330TIP3   OH257874   8.350   8.824   1.245
19330TIP3    H157875   8.423   8.800   1.189
19330TIP3    H257876   8.343   8.751   1.307
19331TIP3   OH257877   4.187   5.366   7.312
19331TIP3    H157878   4.175   5.353   7.406
19331TIP3    H257879   4.269   5.322   7.292
19332TIP3   OH257880   9.147   8.900   1.031
19332TIP3    H157881   9.166   8.871   1.121
19332TIP3    H257882   9.232   8.895   0.987
19333TIP3   OH257883   2.530   1.191   0.532
19333TIP3    H157884   2.454   1.161   0.481
19333TIP3    H257885   2.517   1.285   0.541
19334TIP3   OH257886   7.075   5.198   7.279
19334TIP3    H157887   7.045   5.285   7.251
19334TIP3    H257888   7.004   5.139   7.252
19335TIP3   OH257889   7.075   5.190   7.699
19335TIP3    H157890   7.127   5.172   7.777
19335TIP3    H257891   7.029   5.108   7.681
19336TIP3   OH257892   3.106   0.431   0.045
19336TIP3    H157893   3.145   0.379   0.115
19336TIP3    H257894   3.179   0.456  -0.012
19337TIP3   OH257895   7.346   5.494   7.372
19337TIP3    H157896   7.330   5.429   7.440
19337TIP3    H257897   7.364   5.575   7.419
19338TIP3   OH257898   6.364   5.478   7.731
19338TIP3    H157899   6.346   5.385   7.738
19338TIP3    H257900   6.460   5.483   7.721
19339TIP3   OH257901   6.045   4.673   7.517
19339TIP3    H157902   6.011   4.757   7.546
19339TIP3    H257903   5.972   4.632   7.469
19340TIP3   OH257904   6.132   5.000   7.744
19340TIP3    H157905   6.184   4.923   7.767
19340TIP3    H257906   6.197   5.066   7.720
19341TIP3   OH257907   7.000   5.929   7.382
19341TIP3    H157908   7.028   5.866   7.316
19341TIP3    H257909   6.988   5.878   7.462
19342TIP3   OH257910   6.879   5.411   7.702
19342TIP3    H157911   6.925   5.332   7.673
19342TIP3    H257912   6.949   5.467   7.737
19343TIP3   OH257913   7.918   4.730   7.722
19343TIP3    H157914   7.931   4.817   7.760
19343TIP3    H257915   7.941   4.741   7.630
19344TIP3   OH257916   7.286   4.895   7.740
19344TIP3    H157917   7.320   4.810   7.767
19344TIP3    H257918   7.250   4.879   7.652
19345TIP3   OH257919   6.643   4.556   7.700
19345TIP3    H157920   6.622   4.630   7.643
19345TIP3    H257921   6.587   4.485   7.668
19346TIP3   OH257922   7.339   4.659   7.336
19346TIP3    H157923   7.403   4.653   7.407
19346TIP3    H257924   7.389   4.692   7.261
19347TIP3   OH257925   6.267   4.773   7.832
19347TIP3    H157926   6.351   4.755   7.874
19347TIP3    H257927   6.270   4.722   7.750
19348TIP3   OH257928   6.686   4.973   7.648
19348TIP3    H157929   6.780   4.959   7.652
19348TIP3    H257930   6.650   4.891   7.614
19349TIP3   OH257931   7.969   4.956   7.885
19349TIP3    H157932   7.879   4.989   7.878
19349TIP3    H257933   8.003   4.994   7.965
19350TIP3   OH257934   0.089   9.183   0.152
19350TIP3    H157935   0.041   9.219   0.077
19350TIP3    H257936   0.033   9.201   0.227
19351TIP3   OH257937   6.976   5.417   7.139
19351TIP3    H157938   6.936   5.387   7.057
19351TIP3    H257939   6.923   5.491   7.166
19352TIP3   OH257940   6.712   5.339   7.911
19352TIP3    H157941   6.659   5.411   7.945
19352TIP3    H257942   6.761   5.377   7.839
19353TIP3   OH257943   7.495   4.683   7.560
19353TIP3    H157944   7.456   4.659   7.644
19353TIP3    H257945   7.552   4.757   7.580
19354TIP3   OH257946   6.515   4.668   7.921
19354TIP3    H157947   6.569   4.744   7.943
19354TIP3    H257948   6.561   4.626   7.849
19355TIP3   OH257949   3.291   0.921   0.018
19355TIP3    H157950   3.279   1.012  -0.011
19355TIP3    H257951   3.213   0.903   0.070
19356TIP3   OH257952   5.943   5.238   7.292
19356TIP3    H157953   5.908   5.246   7.203
19356TIP3    H257954   5.963   5.328   7.318
19357TIP3   OH257955   7.378   5.741   7.507
19357TIP3    H157956   7.292   5.733   7.550
19357TIP3    H257957   7.374   5.825   7.461
19358TIP3   OH257958   7.718   4.622   7.891
19358TIP3    H157959   7.632   4.639   7.852
19358TIP3    H257960   7.781   4.648   7.824
19359TIP3   OH257961   6.966   4.253   7.887
19359TIP3    H157962   6.957   4.161   7.911
19359TIP3    H257963   6.888   4.295   7.925
19360TIP3   OH257964   7.087   5.778   7.166
19360TIP3    H157965   7.139   5.698   7.156
19360TIP3    H257966   7.146   5.848   7.139
19361TIP3   OH257967   7.226   5.547   7.128
19361TIP3    H157968   7.154   5.485   7.126
19361TIP3    H257969   7.277   5.521   7.205
19362TIP3   OH257970   7.616   5.615   7.856
19362TIP3    H157971   7.589   5.545   7.797
19362TIP3    H257972   7.604   5.695   7.805
19363TIP3   OH257973   6.901   5.036   7.132
19363TIP3    H157974   6.819   5.081   7.113
19363TIP3    H257975   6.947   5.034   7.048
19364TIP3   OH257976   6.874   4.843   6.813
19364TIP3    H157977   6.939   4.893   6.862
19364TIP3    H257978   6.924   4.772   6.772
19365TIP3   OH257979   7.783   5.297   7.727
19365TIP3    H157980   7.697   5.337   7.720
19365TIP3    H257981   7.822   5.307   7.640
19366TIP3   OH257982   7.259   5.129   7.089
19366TIP3    H157983   7.205   5.157   7.163
19366TIP3    H257984   7.342   5.102   7.128
19367TIP3   OH257985   4.218   0.529   0.027
19367TIP3    H157986   4.211   0.613   0.073
19367TIP3    H257987   4.137   0.522  -0.023
19368TIP3   OH257988   6.486   5.105   7.496
19368TIP3    H157989   6.450   5.045   7.430
19368TIP3    H257990   6.559   5.057   7.534
19369TIP3   OH257991   6.626   5.528   7.634
19369TIP3    H157992   6.600   5.515   7.543
19369TIP3    H257993   6.714   5.490   7.639
19370TIP3   OH257994   6.583   5.101   7.870
19370TIP3    H157995   6.622   5.065   7.790
19370TIP3    H257996   6.630   5.184   7.884
19371TIP3   OH257997   7.147   5.732   7.649
19371TIP3    H157998   7.127   5.813   7.696
19371TIP3    H257999   7.127   5.663   7.712
19372TIP3   OH258000   3.489   1.006   0.193
19372TIP3    H158001   3.431   1.066   0.240
19372TIP3    H258002   3.431   0.959   0.133
19373TIP3   OH258003   7.089   4.989   6.923
19373TIP3    H158004   7.148   5.047   6.971
19373TIP3    H258005   7.117   4.994   6.832
19374TIP3   OH258006   3.244   0.558   0.343
19374TIP3    H158007   3.249   0.652   0.356
19374TIP3    H258008   3.150   0.540   0.333
19375TIP3   OH258009   6.840   5.655   7.181
19375TIP3    H158010   6.921   5.707   7.182
19375TIP3    H258011   6.778   5.709   7.131
19376TIP3   OH258012   3.281   1.169   0.275
19376TIP3    H158013   3.258   1.184   0.184
19376TIP3    H258014   3.197   1.156   0.320
19377TIP3   OH258015   7.595   4.219   6.960
19377TIP3    H158016   7.521   4.247   7.013
19377TIP3    H258017   7.589   4.272   6.880
19378TIP3   OH258018   6.362   4.948   7.295
19378TIP3    H158019   6.287   4.999   7.264
19378TIP3    H258020   6.326   4.860   7.311
19379TIP3   OH258021   7.426   5.590   6.536
19379TIP3    H158022   7.418   5.683   6.516
19379TIP3    H258023   7.517   5.569   6.513
19380TIP3   OH258024   2.878   0.733   0.227
19380TIP3    H158025   2.809   0.717   0.163
19380TIP3    H258026   2.912   0.646   0.248
19381TIP3   OH258027   5.984   5.551   7.887
19381TIP3    H158028   6.074   5.579   7.905
19381TIP3    H258029   5.931   5.627   7.911
19382TIP3   OH258030   7.830   6.005   7.905
19382TIP3    H158031   7.841   5.911   7.920
19382TIP3    H258032   7.747   6.027   7.948
19383TIP3   OH258033   3.675   1.145   0.049
19383TIP3    H158034   3.660   1.236   0.075
19383TIP3    H258035   3.610   1.095   0.098
19384TIP3   OH258036   6.729   5.882   7.006
19384TIP3    H158037   6.683   5.860   6.926
19384TIP3    H258038   6.689   5.963   7.036
19385TIP3   OH258039   6.160   5.739   7.386
19385TIP3    H158040   6.204   5.729   7.471
19385TIP3    H258041   6.112   5.656   7.375
19386TIP3   OH258042   6.932   5.816   6.634
19386TIP3    H158043   6.982   5.742   6.599
19386TIP3    H258044   6.967   5.828   6.723
19387TIP3   OH258045   6.983   5.858   6.905
19387TIP3    H158046   6.896   5.862   6.943
19387TIP3    H258047   7.038   5.819   6.974
19388TIP3   OH258048   4.461   0.483   0.173
19388TIP3    H158049   4.377   0.499   0.129
19388TIP3    H258050   4.479   0.390   0.157
19389TIP3   OH258051   3.076   0.921   0.191
19389TIP3    H158052   3.127   0.908   0.271
19389TIP3    H258053   3.003   0.860   0.198
19390TIP3   OH258054   0.193   8.964   0.010
19390TIP3    H158055   0.110   8.932  -0.023
19390TIP3    H258056   0.171   9.046   0.055
19391TIP3   OH258057   0.729   9.089   0.210
19391TIP3    H158058   0.796   9.064   0.273
19391TIP3    H258059   0.646   9.075   0.256
19392TIP3   OH258060   4.222   0.266   0.125
19392TIP3    H158061   4.181   0.263   0.211
19392TIP3    H258062   4.206   0.356   0.094
19393TIP3   OH258063   7.166   4.973   6.663
19393TIP3    H158064   7.121   4.970   6.578
19393TIP3    H258065   7.249   5.017   6.645
19394TIP3   OH258066   6.850   4.396   6.966
19394TIP3    H158067   6.822   4.396   7.057
19394TIP3    H258068   6.834   4.306   6.936
19395TIP3   OH258069   3.399   0.260   0.016
19395TIP3    H158070   3.355   0.268   0.100
19395TIP3    H258071   3.378   0.342  -0.030
19396TIP3   OH258072   6.545   4.758   7.543
19396TIP3    H158073   6.455   4.735   7.567
19396TIP3    H258074   6.554   4.727   7.453
19397TIP3   OH258075   7.024   4.830   7.266
19397TIP3    H158076   6.977   4.903   7.226
19397TIP3    H258077   7.083   4.799   7.197
19398TIP3   OH258078   3.943   0.468   0.323
19398TIP3    H158079   3.918   0.406   0.391
19398TIP3    H258080   4.036   0.484   0.338
19399TIP3   OH258081   7.192   4.843   7.488
19399TIP3    H158082   7.124   4.864   7.424
19399TIP3    H258083   7.240   4.771   7.448
19400TIP3   OH258084   3.240   0.278   0.239
19400TIP3    H158085   3.248   0.344   0.307
19400TIP3    H258086   3.220   0.197   0.287
19401TIP3   OH258087   6.524   4.358   6.962
19401TIP3    H158088   6.520   4.373   7.056
19401TIP3    H258089   6.456   4.414   6.925
19402TIP3   OH258090   6.092   4.414   7.830
19402TIP3    H158091   6.164   4.452   7.880
19402TIP3    H258092   6.125   4.412   7.740
19403TIP3   OH258093   5.989   4.392   7.316
19403TIP3    H158094   6.035   4.428   7.240
19403TIP3    H258095   5.926   4.459   7.341
19404TIP3   OH258096   7.237   5.098   7.911
19404TIP3    H158097   7.260   5.030   7.847
19404TIP3    H258098   7.188   5.050   7.979
19405TIP3   OH258099   6.912   4.543   7.589
19405TIP3    H158100   6.834   4.544   7.645
19405TIP3    H258101   6.985   4.537   7.650
19406TIP3   OH258102   6.305   4.632   7.600
19406TIP3    H158103   6.218   4.635   7.561
19406TIP3    H258104   6.336   4.542   7.583
19407TIP3   OH258105   6.562   4.636   7.298
19407TIP3    H158106   6.657   4.645   7.289
19407TIP3    H258107   6.528   4.655   7.210
19408TIP3   OH258108   7.359   4.634   7.802
19408TIP3    H158109   7.338   4.653   7.893
19408TIP3    H258110   7.291   4.573   7.773
19409TIP3   OH258111   6.458   4.658   7.046
19409TIP3    H158112   6.390   4.617   6.993
19409TIP3    H258113   6.512   4.707   6.984
19410TIP3   OH258114   7.565   6.309   7.967
19410TIP3    H158115   7.529   6.324   7.880
19410TIP3    H258116   7.632   6.376   7.978
19411TIP3   OH258117   3.224   0.826   0.424
19411TIP3    H158118   3.305   0.849   0.470
19411TIP3    H258119   3.155   0.839   0.489
19412TIP3   OH258120   6.959   4.920   7.694
19412TIP3    H158121   7.026   4.873   7.645
19412TIP3    H258122   6.957   4.877   7.779
19413TIP3   OH258123   6.448   4.384   7.584
19413TIP3    H158124   6.420   4.308   7.635
19413TIP3    H258125   6.469   4.348   7.497
19414TIP3   OH258126   6.928   4.816   7.956
19414TIP3    H158127   6.842   4.850   7.980
19414TIP3    H258128   6.990   4.869   8.008
19415TIP3   OH258129   6.664   5.172   7.077
19415TIP3    H158130   6.589   5.119   7.052
19415TIP3    H258131   6.638   5.214   7.159
19416TIP3   OH258132   7.548   5.426   7.672
19416TIP3    H158133   7.583   5.475   7.598
19416TIP3    H258134   7.469   5.384   7.638
19417TIP3   OH258135   7.112   4.492   6.992
19417TIP3    H158136   7.019   4.478   6.975
19417TIP3    H258137   7.122   4.587   6.998
19418TIP3   OH258138   3.810   0.879   0.097
19418TIP3    H158139   3.863   0.865   0.175
19418TIP3    H258140   3.773   0.967   0.109
19419TIP3   OH258141   7.188   4.757   7.049
19419TIP3    H158142   7.283   4.757   7.056
19419TIP3    H258143   7.167   4.835   6.998
19420TIP3   OH258144   6.352   5.187   7.723
19420TIP3    H158145   6.390   5.170   7.637
19420TIP3    H258146   6.421   5.159   7.784
19421TIP3   OH258147   6.817   5.335   6.920
19421TIP3    H158148   6.770   5.418   6.917
19421TIP3    H258149   6.761   5.278   6.973
19422TIP3   OH258150   2.970   0.495   0.355
19422TIP3    H158151   2.970   0.468   0.447
19422TIP3    H258152   2.893   0.452   0.318
19423TIP3   OH258153   3.713   0.629   0.372
19423TIP3    H158154   3.643   0.570   0.343
19423TIP3    H258155   3.793   0.588   0.341
19424TIP3   OH258156   7.206   5.799   7.968
19424TIP3    H158157   7.113   5.779   7.975
19424TIP3    H258158   7.228   5.839   8.052
19425TIP3   OH258159   7.614   4.828   6.861
19425TIP3    H158160   7.565   4.771   6.803
19425TIP3    H258161   7.604   4.915   6.823
19426TIP3   OH258162   7.856   5.735   7.934
19426TIP3    H158163   7.767   5.702   7.949
19426TIP3    H258164   7.883   5.696   7.851
19427TIP3   OH258165   7.348   5.660   6.804
19427TIP3    H158166   7.317   5.591   6.863
19427TIP3    H258167   7.364   5.614   6.721
19428TIP3   OH258168   7.323   5.291   7.573
19428TIP3    H158169   7.234   5.270   7.598
19428TIP3    H258170   7.357   5.210   7.534
19429TIP3   OH258171   6.478   5.531   7.394
19429TIP3    H158172   6.475   5.607   7.336
19429TIP3    H258173   6.388   5.520   7.424
19430TIP3   OH258174   6.034   4.822   7.108
19430TIP3    H158175   6.076   4.905   7.130
19430TIP3    H258176   5.949   4.826   7.152
19431TIP3   OH258177   6.566   5.288   7.300
19431TIP3    H158178   6.547   5.377   7.328
19431TIP3    H258179   6.538   5.233   7.373
19432TIP3   OH258180   6.762   5.850   7.845
19432TIP3    H158181   6.799   5.922   7.793
19432TIP3    H258182   6.836   5.815   7.894
19433TIP3   OH258183   6.397   5.753   7.244
19433TIP3    H158184   6.309   5.761   7.281
19433TIP3    H258185   6.433   5.842   7.248
19434TIP3   OH258186   7.109   5.514   7.823
19434TIP3    H158187   7.097   5.508   7.918
19434TIP3    H258188   7.186   5.459   7.805
19435TIP3   OH258189   7.113   5.397   6.683
19435TIP3    H158190   7.162   5.370   6.761
19435TIP3    H258191   7.030   5.350   6.690
19436TIP3   OH258192   7.368   5.987   7.837
19436TIP3    H158193   7.294   5.932   7.862
19436TIP3    H258194   7.331   6.049   7.773
19437TIP3   OH258195   7.415   5.862   6.491
19437TIP3    H158196   7.417   5.917   6.412
19437TIP3    H258197   7.349   5.904   6.546
19438TIP3   OH258198   3.182   0.023   0.357
19438TIP3    H158199   3.087   0.032   0.360
19438TIP3    H258200   3.205  -0.027   0.435
19439TIP3   OH258201   7.283   5.314   6.881
19439TIP3    H158202   7.267   5.260   6.958
19439TIP3    H258203   7.378   5.320   6.874
19440TIP3   OH258204   2.925   1.130   0.006
19440TIP3    H158205   2.980   1.074   0.061
19440TIP3    H258206   2.937   1.218   0.042
19441TIP3   OH258207   6.467   5.360   6.701
19441TIP3    H158208   6.476   5.269   6.675
19441TIP3    H258209   6.452   5.357   6.795
19442TIP3   OH258210   6.410   5.378   6.972
19442TIP3    H158211   6.470   5.354   7.042
19442TIP3    H258212   6.404   5.474   6.977
19443TIP3   OH258213   6.139   5.070   7.187
19443TIP3    H158214   6.074   5.118   7.238
19443TIP3    H258215   6.157   5.127   7.112
19444TIP3   OH258216   4.029   0.078   0.060
19444TIP3    H158217   4.107   0.123   0.093
19444TIP3    H258218   4.019   0.002   0.117
19445TIP3   OH258219   7.191   4.438   7.252
19445TIP3    H158220   7.165   4.456   7.161
19445TIP3    H258221   7.235   4.518   7.280
19446TIP3   OH258222   6.676   5.566   6.915
19446TIP3    H158223   6.590   5.589   6.951
19446TIP3    H258224   6.697   5.639   6.855
19447TIP3   OH258225   6.841   4.636   7.337
19447TIP3    H158226   6.902   4.705   7.310
19447TIP3    H258227   6.865   4.616   7.427
19448TIP3   OH258228   3.866   0.311   0.103
19448TIP3    H158229   3.891   0.356   0.183
19448TIP3    H258230   3.918   0.231   0.103
19449TIP3   OH258231   7.001   4.334   7.423
19449TIP3    H158232   6.977   4.411   7.474
19449TIP3    H258233   7.072   4.364   7.365
19450TIP3   OH258234   6.425   5.651   6.991
19450TIP3    H158235   6.405   5.722   6.931
19450TIP3    H258236   6.412   5.688   7.078
19451TIP3   OH258237   6.511   4.365   7.243
19451TIP3    H158238   6.503   4.457   7.269
19451TIP3    H258239   6.606   4.349   7.244
19452TIP3   OH258240   4.485   0.210   0.096
19452TIP3    H158241   4.391   0.218   0.111
19452TIP3    H258242   4.492   0.151   0.021
19453TIP3   OH258243   7.417   5.033   7.487
19453TIP3    H158244   7.341   4.976   7.498
19453TIP3    H258245   7.484   4.993   7.543
19454TIP3   OH258246   6.170   5.237   6.965
19454TIP3    H158247   6.239   5.303   6.971
19454TIP3    H258248   6.201   5.176   6.899
19455TIP3   OH258249   6.061   4.544   7.098
19455TIP3    H158250   6.072   4.638   7.114
19455TIP3    H258251   6.008   4.539   7.019
19456TIP3   OH258252   7.393   6.007   7.421
19456TIP3    H158253   7.350   6.062   7.355
19456TIP3    H258254   7.487   6.018   7.403
19457TIP3   OH258255   6.464   4.260   7.969
19457TIP3    H158256   6.435   4.229   7.883
19457TIP3    H258257   6.455   4.184   8.027
19458TIP3   OH258258   5.993   5.513   7.359
19458TIP3    H158259   5.939   5.548   7.430
19458TIP3    H258260   5.957   5.552   7.279
19459TIP3   OH258261   2.921   1.427   0.429
19459TIP3    H158262   3.002   1.431   0.478
19459TIP3    H258263   2.905   1.333   0.417
19460TIP3   OH258264   3.380   1.332   0.473
19460TIP3    H158265   3.471   1.305   0.484
19460TIP3    H258266   3.348   1.280   0.400
19461TIP3   OH258267   6.615   5.564   6.590
19461TIP3    H158268   6.568   5.493   6.635
19461TIP3    H258269   6.689   5.521   6.548
19462TIP3   OH258270   3.997   1.280   0.212
19462TIP3    H158271   4.009   1.205   0.270
19462TIP3    H258272   4.073   1.336   0.228
19463TIP3   OH258273   7.058   5.605   6.514
19463TIP3    H158274   7.092   5.540   6.575
19463TIP3    H258275   7.115   5.598   6.438
19464TIP3   OH258276   3.021   0.828   0.616
19464TIP3    H158277   3.038   0.734   0.628
19464TIP3    H258278   2.934   0.831   0.577
19465TIP3   OH258279   6.289   5.047   6.811
19465TIP3    H158280   6.340   5.026   6.890
19465TIP3    H258281   6.355   5.064   6.744
19466TIP3   OH258282   3.645   0.903   0.394
19466TIP3    H158283   3.600   0.926   0.313
19466TIP3    H258284   3.681   0.815   0.378
19467TIP3   OH258285   6.864   5.274   6.657
19467TIP3    H158286   6.838   5.286   6.748
19467TIP3    H258287   6.841   5.183   6.637
19468TIP3   OH258288   7.380   5.582   8.004
19468TIP3    H158289   7.459   5.609   7.957
19468TIP3    H258290   7.316   5.650   7.985
19469TIP3   OH258291   3.137   0.571   0.627
19469TIP3    H158292   3.209   0.563   0.564
19469TIP3    H258293   3.179   0.593   0.710
19470TIP3   OH258294   6.457   4.995   7.028
19470TIP3    H158295   6.435   4.965   7.116
19470TIP3    H258296   6.508   4.924   6.990
19471TIP3   OH258297   3.505   0.458   0.282
19471TIP3    H158298   3.419   0.498   0.295
19471TIP3    H258299   3.534   0.489   0.196
19472TIP3   OH258300   6.603   4.814   6.874
19472TIP3    H158301   6.571   4.820   6.784
19472TIP3    H258302   6.698   4.822   6.866
19473TIP3   OH258303   3.992   0.807   0.333
19473TIP3    H158304   4.067   0.770   0.288
19473TIP3    H258305   3.981   0.753   0.411
19474TIP3   OH258306   7.387   5.102   6.554
19474TIP3    H158307   7.374   5.059   6.470
19474TIP3    H258308   7.364   5.194   6.538
19475TIP3   OH258309   3.610   0.227   0.388
19475TIP3    H158310   3.613   0.157   0.322
19475TIP3    H258311   3.576   0.303   0.341
19476TIP3   OH258312   3.616   0.028   0.185
19476TIP3    H158313   3.643   0.065   0.102
19476TIP3    H258314   3.524   0.002   0.172
19477TIP3   OH258315   3.617   0.565   0.059
19477TIP3    H158316   3.703   0.606   0.052
19477TIP3    H258317   3.559   0.620   0.006
19478TIP3   OH258318   4.213   0.513   0.414
19478TIP3    H158319   4.268   0.436   0.423
19478TIP3    H258320   4.274   0.587   0.415
19479TIP3   OH258321   4.228   0.775   0.159
19479TIP3    H158322   4.175   0.840   0.114
19479TIP3    H258323   4.316   0.786   0.122
19480TIP3   OH258324   3.492   0.300   0.632
19480TIP3    H158325   3.421   0.239   0.648
19480TIP3    H258326   3.521   0.280   0.543
19481TIP3   OH258327   0.467   9.039   0.294
19481TIP3    H158328   0.428   9.119   0.259
19481TIP3    H258329   0.401   8.971   0.279
19482TIP3   OH258330   3.864   0.266   0.495
19482TIP3    H158331   3.853   0.255   0.590
19482TIP3    H258332   3.778   0.247   0.459
19483TIP3   OH258333   4.105   0.216   0.361
19483TIP3    H158334   4.028   0.219   0.418
19483TIP3    H258335   4.178   0.194   0.420
19484TIP3   OH258336   4.348   0.177   0.498
19484TIP3    H158337   4.358   0.083   0.506
19484TIP3    H258338   4.337   0.208   0.588
19485TIP3   OH258339   3.318   0.088   0.695
19485TIP3    H158340   3.325  -0.001   0.660
19485TIP3    H258341   3.357   0.082   0.782
19486TIP3   OH258342   0.531   9.004   0.559
19486TIP3    H158343   0.601   8.939   0.551
19486TIP3    H258344   0.503   9.020   0.468
19487TIP3   OH258345   0.626   9.214   0.709
19487TIP3    H158346   0.595   9.145   0.652
19487TIP3    H258347   0.556   9.279   0.710
19488TIP3   OH258348   6.424   5.861   6.811
19488TIP3    H158349   6.512   5.841   6.780
19488TIP3    H258350   6.382   5.904   6.737
19489TIP3   OH258351   5.902   5.220   7.017
19489TIP3    H158352   5.994   5.233   6.992
19489TIP3    H258353   5.874   5.145   6.964
19490TIP3   OH258354   5.773   5.805   7.433
19490TIP3    H158355   5.716   5.743   7.387
19490TIP3    H258356   5.821   5.751   7.496
19491TIP3   OH258357   5.926   5.659   7.613
19491TIP3    H158358   5.919   5.589   7.678
19491TIP3    H258359   5.978   5.726   7.656
19492TIP3   OH258360   7.663   6.055   7.405
19492TIP3    H158361   7.678   6.073   7.498
19492TIP3    H258362   7.706   6.126   7.358
19493TIP3   OH258363   7.675   6.075   7.679
19493TIP3    H158364   7.632   5.990   7.682
19493TIP3    H258365   7.746   6.069   7.743
19494TIP3   OH258366   4.440   1.117   0.224
19494TIP3    H158367   4.374   1.136   0.291
19494TIP3    H258368   4.476   1.203   0.202
19495TIP3   OH258369   7.562   5.309   6.878
19495TIP3    H158370   7.619   5.381   6.850
19495TIP3    H258371   7.605   5.274   6.957
19496TIP3   OH258372   7.682   5.173   7.087
19496TIP3    H158373   7.615   5.131   7.141
19496TIP3    H258374   7.747   5.204   7.150
19497TIP3   OH258375   7.734   5.566   7.514
19497TIP3    H158376   7.785   5.499   7.469
19497TIP3    H258377   7.737   5.642   7.456
19498TIP3   OH258378   7.549   5.833   7.704
19498TIP3    H158379   7.480   5.880   7.751
19498TIP3    H258380   7.504   5.793   7.629
19499TIP3   OH258381   7.587   5.074   6.737
19499TIP3    H158382   7.517   5.076   6.672
19499TIP3    H258383   7.575   5.153   6.789
19500TIP3   OH258384   7.478   4.672   6.681
19500TIP3    H158385   7.424   4.668   6.602
19500TIP3    H258386   7.507   4.582   6.694
19501TIP3   OH258387   7.484   5.025   7.217
19501TIP3    H158388   7.489   4.931   7.200
19501TIP3    H258389   7.466   5.031   7.311
19502TIP3   OH258390   6.107   5.079   8.003
19502TIP3    H158391   6.098   5.056   7.911
19502TIP3    H258392   6.201   5.080   8.019
19503TIP3   OH258393   4.473   0.803   0.038
19503TIP3    H158394   4.544   0.744   0.012
19503TIP3    H258395   4.457   0.857  -0.039
19504TIP3   OH258396   4.674   0.611   0.055
19504TIP3    H158397   4.602   0.569   0.102
19504TIP3    H258398   4.752   0.566   0.087
19505TIP3   OH258399   7.482   4.752   7.104
19505TIP3    H158400   7.525   4.668   7.120
19505TIP3    H258401   7.524   4.786   7.025
19506TIP3   OH258402   7.634   4.914   7.630
19506TIP3    H158403   7.715   4.931   7.581
19506TIP3    H258404   7.649   4.954   7.715
19507TIP3   OH258405   7.706   5.064   7.856
19507TIP3    H158406   7.631   5.091   7.909
19507TIP3    H258407   7.736   5.145   7.814
19508TIP3   OH258408   3.056   0.148   0.633
19508TIP3    H158409   3.150   0.145   0.651
19508TIP3    H258410   3.022   0.068   0.673
19509TIP3   OH258411   4.904   0.039   0.389
19509TIP3    H158412   4.968  -0.018   0.346
19509TIP3    H258413   4.865   0.089   0.318
19510TIP3   OH258414   7.596   4.506   7.161
19510TIP3    H158415   7.642   4.485   7.242
19510TIP3    H258416   7.537   4.431   7.148
19511TIP3   OH258417   6.305   4.487   7.995
19511TIP3    H158418   6.358   4.407   7.996
19511TIP3    H258419   6.366   4.557   7.973
19512TIP3   OH258420   2.811   0.136   0.042
19512TIP3    H158421   2.867   0.122  -0.035
19512TIP3    H258422   2.824   0.228   0.064
19513TIP3   OH258423   4.754   0.162   0.200
19513TIP3    H158424   4.678   0.202   0.244
19513TIP3    H258425   4.715   0.096   0.142
19514TIP3   OH258426   6.062   4.270   7.551
19514TIP3    H158427   5.977   4.259   7.593
19514TIP3    H258428   6.045   4.321   7.473
19515TIP3   OH258429   7.237   5.978   7.068
19515TIP3    H158430   7.291   5.966   6.990
19515TIP3    H258431   7.276   6.052   7.114
19516TIP3   OH258432   9.565   8.925   0.371
19516TIP3    H158433   9.516   8.927   0.454
19516TIP3    H258434   9.511   8.977   0.311
19517TIP3   OH258435   3.056   1.147   0.440
19517TIP3    H158436   2.963   1.128   0.434
19517TIP3    H258437   3.075   1.148   0.534
19518TIP3   OH258438   6.535   5.818   7.996
19518TIP3    H158439   6.482   5.890   7.962
19518TIP3    H258440   6.620   5.828   7.953
19519TIP3   OH258441   3.632   1.409   0.112
19519TIP3    H158442   3.675   1.405   0.198
19519TIP3    H258443   3.690   1.463   0.059
19520TIP3   OH258444   7.080   6.171   7.968
19520TIP3    H158445   7.131   6.119   7.907
19520TIP3    H258446   7.146   6.214   8.023
19521TIP3   OH258447   1.393   9.153   0.089
19521TIP3    H158448   1.310   9.153   0.041
19521TIP3    H258449   1.425   9.063   0.081
19522TIP3   OH258450   2.925   1.423   0.042
19522TIP3    H158451   2.835   1.444   0.019
19522TIP3    H258452   2.949   1.490   0.107
19523TIP3   OH258453   6.416   6.039   7.885
19523TIP3    H158454   6.333   6.042   7.934
19523TIP3    H258455   6.392   6.065   7.796
19524TIP3   OH258456   6.836   6.054   7.671
19524TIP3    H158457   6.761   6.061   7.612
19524TIP3    H258458   6.843   6.141   7.711
19525TIP3   OH258459   7.098   5.996   7.726
19525TIP3    H158460   7.007   6.013   7.702
19525TIP3    H258461   7.148   6.058   7.673
19526TIP3   OH258462   7.296   6.163   7.625
19526TIP3    H158463   7.291   6.250   7.586
19526TIP3    H258464   7.328   6.107   7.554
19527TIP3   OH258465   6.104   5.835   7.758
19527TIP3    H158466   6.130   5.812   7.847
19527TIP3    H258467   6.174   5.802   7.702
19528TIP3   OH258468   6.307   5.721   7.619
19528TIP3    H158469   6.319   5.636   7.662
19528TIP3    H258470   6.394   5.761   7.623
19529TIP3   OH258471   6.575   5.804   7.643
19529TIP3    H158472   6.595   5.712   7.627
19529TIP3    H258473   6.628   5.828   7.719
19530TIP3   OH258474   7.141   4.456   7.733
19530TIP3    H158475   7.101   4.384   7.782
19530TIP3    H258476   7.209   4.414   7.680
19531TIP3   OH258477   7.638   4.381   7.633
19531TIP3    H158478   7.674   4.424   7.555
19531TIP3    H258479   7.543   4.393   7.626
19532TIP3   OH258480   7.751   4.439   7.387
19532TIP3    H158481   7.819   4.381   7.355
19532TIP3    H258482   7.786   4.527   7.374
19533TIP3   OH258483   6.377   4.156   7.728
19533TIP3    H158484   6.288   4.123   7.738
19533TIP3    H258485   6.431   4.078   7.719
19534TIP3   OH258486   6.200   4.078   7.403
19534TIP3    H158487   6.215   4.129   7.323
19534TIP3    H258488   6.158   4.139   7.463
19535TIP3   OH258489   6.859   4.194   7.625
19535TIP3    H158490   6.906   4.239   7.555
19535TIP3    H258491   6.902   4.224   7.706
19536TIP3   OH258492   7.354   4.338   7.601
19536TIP3    H158493   7.364   4.307   7.511
19536TIP3    H258494   7.360   4.259   7.655
19537TIP3   OH258495   7.415   4.292   7.162
19537TIP3    H158496   7.334   4.337   7.186
19537TIP3    H258497   7.405   4.204   7.199
19538TIP3   OH258498   5.897   5.635   7.134
19538TIP3    H158499   5.817   5.595   7.100
19538TIP3    H258500   5.890   5.727   7.107
19539TIP3   OH258501   6.297   4.200   7.160
19539TIP3    H158502   6.343   4.116   7.150
19539TIP3    H258503   6.364   4.261   7.191
19540TIP3   OH258504   6.788   4.386   7.236
19540TIP3    H158505   6.848   4.332   7.288
19540TIP3    H258506   6.806   4.476   7.264
19541TIP3   OH258507   6.678   5.785   6.737
19541TIP3    H158508   6.760   5.814   6.698
19541TIP3    H258509   6.647   5.716   6.678
19542TIP3   OH258510   7.384   5.929   6.837
19542TIP3    H158511   7.376   5.834   6.830
19542TIP3    H258512   7.337   5.962   6.761
19543TIP3   OH258513   0.070   9.058   0.607
19543TIP3    H158514   0.037   8.991   0.666
19543TIP3    H258515   0.163   9.068   0.631
19544TIP3   OH258516   0.317   9.065   0.731
19544TIP3    H158517   0.393   9.041   0.678
19544TIP3    H258518   0.310   8.996   0.797
19545TIP3   OH258519   5.979   5.622   6.792
19545TIP3    H158520   5.973   5.623   6.888
19545TIP3    H258521   6.062   5.578   6.774
19546TIP3   OH258522   1.140   9.145   0.506
19546TIP3    H158523   1.159   9.119   0.596
19546TIP3    H258524   1.224   9.144   0.461
19547TIP3   OH258525   7.578   6.041   8.005
19547TIP3    H158526   7.505   6.005   7.954
19547TIP3    H258527   7.566   6.136   8.000
19548TIP3   OH258528   8.873   5.459   6.763
19548TIP3    H158529   8.843   5.545   6.734
19548TIP3    H258530   8.802   5.400   6.740
19549TIP3   OH258531   8.871   5.444   7.183
19549TIP3    H158532   8.919   5.427   7.263
19549TIP3    H258533   8.823   5.363   7.165
19550TIP3   OH258534   8.167   5.303   7.529
19550TIP3    H158535   8.205   5.247   7.597
19550TIP3    H258536   8.241   5.329   7.474
19551TIP3   OH258537   9.139   5.743   6.868
19551TIP3    H158538   9.120   5.667   6.923
19551TIP3    H258539   9.165   5.811   6.929
19552TIP3   OH258540   8.167   5.743   7.216
19552TIP3    H158541   8.147   5.649   7.224
19552TIP3    H258542   8.262   5.746   7.209
19553TIP3   OH258543   7.841   4.957   7.005
19553TIP3    H158544   7.790   5.035   7.026
19553TIP3    H258545   7.779   4.897   6.964
19554TIP3   OH258546   7.914   5.244   7.231
19554TIP3    H158547   7.964   5.165   7.253
19554TIP3    H258548   7.978   5.303   7.192
19555TIP3   OH258549   8.812   6.199   6.871
19555TIP3    H158550   8.832   6.134   6.802
19555TIP3    H258551   8.788   6.146   6.947
19556TIP3   OH258552   8.678   5.666   7.185
19556TIP3    H158553   8.721   5.586   7.156
19556TIP3    H258554   8.749   5.719   7.222
19557TIP3   OH258555   9.672   4.994   7.230
19557TIP3    H158556   9.691   5.080   7.267
19557TIP3    H258557   9.689   5.002   7.137
19558TIP3   OH258558   9.086   5.153   7.229
19558TIP3    H158559   9.119   5.067   7.256
19558TIP3    H258560   9.046   5.137   7.144
19559TIP3   OH258561   8.440   4.809   7.181
19559TIP3    H158562   8.414   4.884   7.127
19559TIP3    H258563   8.386   4.737   7.149
19560TIP3   OH258564   9.129   4.922   6.824
19560TIP3    H158565   9.192   4.913   6.896
19560TIP3    H258566   9.181   4.956   6.751
19561TIP3   OH258567   8.060   5.024   7.315
19561TIP3    H158568   8.144   5.005   7.356
19561TIP3    H258569   8.061   4.973   7.234
19562TIP3   OH258570   8.480   5.231   7.134
19562TIP3    H158571   8.574   5.214   7.138
19562TIP3    H258572   8.442   5.149   7.103
19563TIP3   OH258573   9.737   5.222   7.378
19563TIP3    H158574   9.649   5.257   7.367
19563TIP3    H258575   9.766   5.256   7.463
19564TIP3   OH258576   8.416   4.820   7.638
19564TIP3    H158577   8.366   4.853   7.564
19564TIP3    H258578   8.360   4.836   7.714
19565TIP3   OH258579   8.777   5.676   6.621
19565TIP3    H158580   8.730   5.645   6.543
19565TIP3    H258581   8.726   5.752   6.650
19566TIP3   OH258582   8.513   5.593   7.395
19566TIP3    H158583   8.459   5.664   7.429
19566TIP3    H258584   8.561   5.631   7.322
19567TIP3   OH258585   9.286   4.940   7.045
19567TIP3    H158586   9.253   4.914   7.131
19567TIP3    H258587   9.346   5.013   7.064
19568TIP3   OH258588   8.310   4.921   7.403
19568TIP3    H158589   8.365   4.996   7.424
19568TIP3    H258590   8.356   4.877   7.331
19569TIP3   OH258591   8.356   5.794   7.500
19569TIP3    H158592   8.342   5.884   7.469
19569TIP3    H258593   8.275   5.771   7.545
19570TIP3   OH258594   7.734   5.502   6.764
19570TIP3    H158595   7.697   5.520   6.677
19570TIP3    H258596   7.756   5.588   6.799
19571TIP3   OH258597   9.171   6.002   6.996
19571TIP3    H158598   9.090   5.988   7.044
19571TIP3    H258599   9.144   6.015   6.905
19572TIP3   OH258600   9.485   4.875   7.395
19572TIP3    H158601   9.398   4.881   7.355
19572TIP3    H258602   9.545   4.906   7.326
19573TIP3   OH258603   8.759   4.512   7.373
19573TIP3    H158604   8.750   4.419   7.397
19573TIP3    H258605   8.681   4.553   7.411
19574TIP3   OH258606   8.892   6.052   6.645
19574TIP3    H158607   8.944   5.972   6.639
19574TIP3    H258608   8.955   6.122   6.627
19575TIP3   OH258609   9.030   5.819   6.624
19575TIP3    H158610   8.966   5.752   6.602
19575TIP3    H258611   9.075   5.785   6.702
19576TIP3   OH258612   9.393   5.908   7.336
19576TIP3    H158613   9.377   5.832   7.280
19576TIP3    H258614   9.378   5.983   7.279
19577TIP3   OH258615   8.699   5.295   6.617
19577TIP3    H158616   8.615   5.337   6.600
19577TIP3    H258617   8.744   5.294   6.532
19578TIP3   OH258618   8.674   5.096   6.296
19578TIP3    H158619   8.734   5.149   6.348
19578TIP3    H258620   8.730   5.035   6.249
19579TIP3   OH258621   9.583   5.564   7.202
19579TIP3    H158622   9.498   5.607   7.204
19579TIP3    H258623   9.606   5.560   7.109
19580TIP3   OH258624   9.054   5.386   6.573
19580TIP3    H158625   9.000   5.413   6.648
19580TIP3    H258626   9.137   5.358   6.613
19581TIP3   OH258627   9.278   5.404   7.511
19581TIP3    H158628   9.280   5.489   7.554
19581TIP3    H258629   9.193   5.402   7.467
19582TIP3   OH258630   8.282   5.362   6.979
19582TIP3    H158631   8.244   5.300   6.916
19582TIP3    H258632   8.354   5.313   7.020
19583TIP3   OH258633   8.429   5.790   7.118
19583TIP3    H158634   8.401   5.773   7.028
19583TIP3    H258635   8.515   5.748   7.125
19584TIP3   OH258636   8.381   5.356   7.358
19584TIP3    H158637   8.418   5.320   7.278
19584TIP3    H258638   8.429   5.438   7.372
19585TIP3   OH258639   8.945   5.975   7.136
19585TIP3    H158640   8.916   6.057   7.177
19585TIP3    H258641   8.924   5.908   7.201
19586TIP3   OH258642   8.552   5.884   7.674
19586TIP3    H158643   8.491   5.941   7.720
19586TIP3    H258644   8.498   5.833   7.614
19587TIP3   OH258645   8.883   5.251   6.405
19587TIP3    H158646   8.943   5.309   6.453
19587TIP3    H258647   8.913   5.257   6.314
19588TIP3   OH258648   8.307   5.415   7.810
19588TIP3    H158649   8.321   5.507   7.830
19588TIP3    H258650   8.213   5.407   7.797
19589TIP3   OH258651   8.648   5.918   6.666
19589TIP3    H158652   8.725   5.975   6.664
19589TIP3    H258653   8.581   5.968   6.619
19590TIP3   OH258654   8.334   6.040   7.745
19590TIP3    H158655   8.325   6.058   7.651
19590TIP3    H258656   8.248   6.007   7.772
19591TIP3   OH258657   9.383   4.483   6.481
19591TIP3    H158658   9.302   4.499   6.529
19591TIP3    H258659   9.398   4.564   6.431
19592TIP3   OH258660   8.154   5.203   6.780
19592TIP3    H158661   8.075   5.249   6.751
19592TIP3    H258662   8.125   5.114   6.799
19593TIP3   OH258663   9.189   5.859   6.023
19593TIP3    H158664   9.192   5.951   5.996
19593TIP3    H258665   9.278   5.827   6.012
19594TIP3   OH258666   7.933   5.604   7.708
19594TIP3    H158667   7.863   5.584   7.646
19594TIP3    H258668   7.969   5.519   7.733
19595TIP3   OH258669   7.780   5.805   7.369
19595TIP3    H158670   7.868   5.836   7.393
19595TIP3    H258671   7.723   5.879   7.385
19596TIP3   OH258672   8.751   6.018   7.539
19596TIP3    H158673   8.743   6.111   7.560
19596TIP3    H258674   8.679   5.976   7.587
19597TIP3   OH258675   8.526   6.148   6.488
19597TIP3    H158676   8.472   6.123   6.413
19597TIP3    H258677   8.483   6.226   6.524
19598TIP3   OH258678   7.959   5.994   6.867
19598TIP3    H158679   8.000   5.986   6.953
19598TIP3    H258680   7.906   5.915   6.858
19599TIP3   OH258681   8.727   6.078   6.119
19599TIP3    H158682   8.774   6.002   6.084
19599TIP3    H258683   8.760   6.088   6.208
19600TIP3   OH258684   8.780   6.116   6.392
19600TIP3    H158685   8.690   6.125   6.425
19600TIP3    H258686   8.828   6.076   6.464
19601TIP3   OH258687   9.529   5.372   7.642
19601TIP3    H158688   9.443   5.385   7.602
19601TIP3    H258689   9.544   5.278   7.639
19602TIP3   OH258690   8.116   5.798   7.640
19602TIP3    H158691   8.125   5.837   7.727
19602TIP3    H258692   8.056   5.725   7.652
19603TIP3   OH258693   8.522   4.602   7.498
19603TIP3    H158694   8.439   4.568   7.464
19603TIP3    H258695   8.498   4.683   7.543
19604TIP3   OH258696   9.060   4.729   7.696
19604TIP3    H158697   9.129   4.700   7.756
19604TIP3    H258698   8.978   4.711   7.743
19605TIP3   OH258699   9.279   5.146   7.620
19605TIP3    H158700   9.242   5.148   7.708
19605TIP3    H258701   9.263   5.234   7.585
19606TIP3   OH258702   8.965   5.244   6.145
19606TIP3    H158703   8.918   5.242   6.061
19606TIP3    H258704   9.050   5.283   6.123
19607TIP3   OH258705   8.462   5.132   7.501
19607TIP3    H158706   8.416   5.136   7.584
19607TIP3    H258707   8.439   5.214   7.457
19608TIP3   OH258708   8.336   5.018   7.035
19608TIP3    H158709   8.247   4.990   7.058
19608TIP3    H258710   8.349   4.983   6.947
19609TIP3   OH258711   8.824   5.092   6.753
19609TIP3    H158712   8.775   5.164   6.714
19609TIP3    H258713   8.885   5.065   6.685
19610TIP3   OH258714   8.998   5.348   7.817
19610TIP3    H158715   8.979   5.281   7.882
19610TIP3    H258716   9.085   5.380   7.839
19611TIP3   OH258717   8.985   5.103   6.979
19611TIP3    H158718   8.917   5.124   6.915
19611TIP3    H258719   9.033   5.030   6.941
19612TIP3   OH258720   8.299   5.143   7.720
19612TIP3    H158721   8.305   5.213   7.785
19612TIP3    H258722   8.279   5.065   7.770
19613TIP3   OH258723   7.882   4.662   7.311
19613TIP3    H158724   7.958   4.699   7.356
19613TIP3    H258725   7.912   4.643   7.223
19614TIP3   OH258726   7.864   4.697   6.831
19614TIP3    H158727   7.896   4.714   6.742
19614TIP3    H258728   7.775   4.731   6.832
19615TIP3   OH258729   9.027   5.356   7.398
19615TIP3    H158730   9.054   5.288   7.336
19615TIP3    H258731   8.981   5.309   7.467
19616TIP3   OH258732   8.707   4.803   7.074
19616TIP3    H158733   8.628   4.802   7.127
19616TIP3    H258734   8.778   4.796   7.138
19617TIP3   OH258735   8.097   4.887   7.081
19617TIP3    H158736   8.010   4.898   7.044
19617TIP3    H258737   8.122   4.797   7.060
19618TIP3   OH258738   8.365   4.893   6.796
19618TIP3    H158739   8.460   4.895   6.783
19618TIP3    H258740   8.329   4.912   6.709
19619TIP3   OH258741   9.155   4.890   7.292
19619TIP3    H158742   9.132   4.910   7.382
19619TIP3    H258743   9.087   4.830   7.262
19620TIP3   OH258744   8.253   4.925   6.552
19620TIP3    H158745   8.186   4.867   6.516
19620TIP3    H258746   8.301   4.957   6.475
19621TIP3   OH258747   8.324   5.663   7.917
19621TIP3    H158748   8.397   5.680   7.976
19621TIP3    H258749   8.246   5.681   7.969
19622TIP3   OH258750   8.754   5.177   7.180
19622TIP3    H158751   8.819   5.126   7.131
19622TIP3    H258752   8.750   5.136   7.266
19623TIP3   OH258753   8.249   4.638   7.063
19623TIP3    H158754   8.219   4.562   7.112
19623TIP3    H258755   8.260   4.605   6.973
19624TIP3   OH258756   8.725   5.076   7.440
19624TIP3    H158757   8.638   5.106   7.465
19624TIP3    H258758   8.785   5.128   7.495
19625TIP3   OH258759   8.460   5.425   6.563
19625TIP3    H158760   8.386   5.369   6.538
19625TIP3    H258761   8.431   5.468   6.643
19626TIP3   OH258762   9.342   5.694   7.164
19626TIP3    H158763   9.373   5.740   7.086
19626TIP3    H258764   9.265   5.645   7.134
19627TIP3   OH258765   8.898   4.778   6.483
19627TIP3    H158766   8.803   4.782   6.479
19627TIP3    H258767   8.926   4.869   6.493
19628TIP3   OH258768   8.873   5.753   7.583
19628TIP3    H158769   8.928   5.744   7.661
19628TIP3    H258770   8.833   5.840   7.592
19629TIP3   OH258771   8.991   5.029   6.537
19629TIP3    H158772   9.086   5.032   6.548
19629TIP3    H258773   8.970   5.105   6.484
19630TIP3   OH258774   8.158   5.459   7.208
19630TIP3    H158775   8.194   5.435   7.122
19630TIP3    H258776   8.221   5.422   7.270
19631TIP3   OH258777   8.609   5.593   6.408
19631TIP3    H158778   8.562   5.676   6.406
19631TIP3    H258779   8.553   5.535   6.460
19632TIP3   OH258780   8.031   5.371   7.833
19632TIP3    H158781   8.039   5.340   7.923
19632TIP3    H258782   7.955   5.325   7.798
19633TIP3   OH258783   8.769   5.494   7.858
19633TIP3    H158784   8.698   5.437   7.831
19633TIP3    H258785   8.849   5.451   7.826
19634TIP3   OH258786   9.017   6.056   7.459
19634TIP3    H158787   8.924   6.038   7.476
19634TIP3    H258788   9.051   6.086   7.544
19635TIP3   OH258789   9.398   5.101   6.357
19635TIP3    H158790   9.344   5.054   6.293
19635TIP3    H258791   9.400   5.191   6.325
19636TIP3   OH258792   9.643   5.945   7.447
19636TIP3    H158793   9.548   5.950   7.435
19636TIP3    H258794   9.676   5.913   7.364
19637TIP3   OH258795   9.151   5.915   6.297
19637TIP3    H158796   9.116   5.846   6.352
19637TIP3    H258797   9.150   5.879   6.209
19638TIP3   OH258798   9.121   5.543   7.066
19638TIP3    H158799   9.031   5.522   7.093
19638TIP3    H258800   9.154   5.461   7.029
19639TIP3   OH258801   8.274   5.788   6.881
19639TIP3    H158802   8.267   5.862   6.821
19639TIP3    H258803   8.188   5.782   6.923
19640TIP3   OH258804   7.827   5.064   6.603
19640TIP3    H158805   7.869   5.148   6.623
19640TIP3    H258806   7.746   5.065   6.655
19641TIP3   OH258807   8.356   5.545   6.781
19641TIP3    H158808   8.338   5.633   6.813
19641TIP3    H258809   8.331   5.487   6.854
19642TIP3   OH258810   8.564   6.105   7.332
19642TIP3    H158811   8.597   6.181   7.283
19642TIP3    H258812   8.642   6.069   7.374
19643TIP3   OH258813   8.194   6.007   6.724
19643TIP3    H158814   8.106   6.014   6.763
19643TIP3    H258815   8.230   6.095   6.731
19644TIP3   OH258816   8.909   5.761   7.311
19644TIP3    H158817   8.894   5.757   7.405
19644TIP3    H258818   8.985   5.705   7.296
19645TIP3   OH258819   8.901   5.660   6.179
19645TIP3    H158820   8.947   5.638   6.260
19645TIP3    H258821   8.818   5.612   6.184
19646TIP3   OH258822   9.133   6.282   7.342
19646TIP3    H158823   9.079   6.207   7.369
19646TIP3    H258824   9.088   6.316   7.264
19647TIP3   OH258825   9.209   6.130   5.972
19647TIP3    H158826   9.202   6.181   5.891
19647TIP3    H258827   9.145   6.171   6.032
19648TIP3   OH258828   8.241   4.896   7.843
19648TIP3    H158829   8.146   4.908   7.846
19648TIP3    H258830   8.260   4.841   7.920
19649TIP3   OH258831   9.065   5.593   6.387
19649TIP3    H158832   9.050   5.529   6.457
19649TIP3    H258833   9.160   5.593   6.375
19650TIP3   OH258834   7.982   5.988   7.475
19650TIP3    H158835   8.037   5.929   7.525
19650TIP3    H258836   8.000   6.075   7.511
19651TIP3   OH258837   8.260   5.615   6.192
19651TIP3    H158838   8.269   5.524   6.166
19651TIP3    H258839   8.244   5.612   6.286
19652TIP3   OH258840   8.197   5.638   6.462
19652TIP3    H158841   8.251   5.615   6.538
19652TIP3    H258842   8.194   5.734   6.463
19653TIP3   OH258843   7.925   5.320   6.672
19653TIP3    H158844   7.861   5.369   6.724
19653TIP3    H258845   7.944   5.376   6.598
19654TIP3   OH258846   9.090   4.958   7.549
19654TIP3    H158847   9.168   5.003   7.582
19654TIP3    H258848   9.081   4.881   7.604
19655TIP3   OH258849   8.973   4.709   6.741
19655TIP3    H158850   8.945   4.731   6.651
19655TIP3    H258851   9.020   4.787   6.771
19656TIP3   OH258852   8.472   5.827   6.403
19656TIP3    H158853   8.384   5.848   6.435
19656TIP3    H258854   8.493   5.899   6.343
19657TIP3   OH258855   8.646   4.891   6.817
19657TIP3    H158856   8.706   4.962   6.795
19657TIP3    H258857   8.665   4.870   6.909
19658TIP3   OH258858   8.928   5.190   7.592
19658TIP3    H158859   8.952   5.232   7.675
19658TIP3    H258860   8.979   5.109   7.591
19659TIP3   OH258861   8.793   4.591   6.911
19659TIP3    H158862   8.766   4.668   6.961
19659TIP3    H258863   8.862   4.624   6.853
19660TIP3   OH258864   8.219   5.913   6.467
19660TIP3    H158865   8.195   5.985   6.409
19660TIP3    H258866   8.205   5.948   6.555
19661TIP3   OH258867   8.304   4.615   6.753
19661TIP3    H158868   8.295   4.709   6.771
19661TIP3    H258869   8.397   4.603   6.734
19662TIP3   OH258870   9.541   5.092   7.588
19662TIP3    H158871   9.447   5.102   7.608
19662TIP3    H258872   9.543   5.029   7.516
19663TIP3   OH258873   9.207   5.289   6.974
19663TIP3    H158874   9.130   5.233   6.985
19663TIP3    H258875   9.275   5.248   7.028
19664TIP3   OH258876   7.956   5.496   6.456
19664TIP3    H158877   8.026   5.561   6.463
19664TIP3    H258878   7.988   5.433   6.391
19665TIP3   OH258879   7.895   4.798   6.562
19665TIP3    H158880   7.874   4.889   6.583
19665TIP3    H258881   7.814   4.762   6.526
19666TIP3   OH258882   8.262   4.513   7.455
19666TIP3    H158883   8.233   4.482   7.369
19666TIP3    H258884   8.250   4.438   7.512
19667TIP3   OH258885   7.781   5.774   6.842
19667TIP3    H158886   7.736   5.809   6.919
19667TIP3    H258887   7.736   5.814   6.768
19668TIP3   OH258888   7.933   6.266   7.847
19668TIP3    H158889   8.022   6.272   7.882
19668TIP3    H258890   7.907   6.175   7.864
19669TIP3   OH258891   8.417   6.135   7.984
19669TIP3    H158892   8.497   6.183   7.960
19669TIP3    H258893   8.384   6.100   7.901
19670TIP3   OH258894   8.410   5.817   6.078
19670TIP3    H158895   8.362   5.747   6.124
19670TIP3    H258896   8.484   5.772   6.037
19671TIP3   OH258897   9.129   6.134   7.698
19671TIP3    H158898   9.115   6.070   7.768
19671TIP3    H258899   9.220   6.162   7.710
19672TIP3   OH258900   8.851   5.863   6.003
19672TIP3    H158901   8.884   5.799   6.066
19672TIP3    H258902   8.910   5.857   5.928
19673TIP3   OH258903   4.818   1.029   0.063
19673TIP3    H158904   4.817   0.934   0.067
19673TIP3    H258905   4.734   1.052   0.024
19674TIP3   OH258906   8.084   5.308   6.302
19674TIP3    H158907   8.135   5.284   6.380
19674TIP3    H258908   8.149   5.322   6.234
19675TIP3   OH258909   8.716   5.765   7.864
19675TIP3    H158910   8.661   5.787   7.789
19675TIP3    H258911   8.742   5.674   7.848
19676TIP3   OH258912   8.656   5.532   6.144
19676TIP3    H158913   8.629   5.543   6.235
19676TIP3    H258914   8.635   5.441   6.124
19677TIP3   OH258915   9.182   5.830   7.495
19677TIP3    H158916   9.258   5.861   7.446
19677TIP3    H258917   9.114   5.895   7.478
19678TIP3   OH258918   4.945   0.768   0.080
19678TIP3    H158919   5.006   0.776   0.006
19678TIP3    H258920   4.990   0.813   0.152
19679TIP3   OH258921   8.255   5.244   6.515
19679TIP3    H158922   8.229   5.218   6.603
19679TIP3    H258923   8.302   5.167   6.480
19680TIP3   OH258924   8.569   5.325   7.762
19680TIP3    H158925   8.480   5.359   7.771
19680TIP3    H258926   8.599   5.357   7.677
19681TIP3   OH258927   8.399   5.053   6.357
19681TIP3    H158928   8.370   5.064   6.266
19681TIP3    H258929   8.494   5.065   6.353
19682TIP3   OH258930   9.068   5.703   7.862
19682TIP3    H158931   9.164   5.696   7.866
19682TIP3    H258932   9.037   5.640   7.926
19683TIP3   OH258933   9.187   5.360   6.027
19683TIP3    H158934   9.172   5.321   5.941
19683TIP3    H258935   9.160   5.451   6.017
19684TIP3   OH258936   8.675   5.098   7.873
19684TIP3    H158937   8.676   5.027   7.809
19684TIP3    H258938   8.638   5.173   7.826
19685TIP3   OH258939   8.677   4.903   7.669
19685TIP3    H158940   8.702   4.940   7.585
19685TIP3    H258941   8.585   4.878   7.657
19686TIP3   OH258942   8.684   5.436   7.543
19686TIP3    H158943   8.769   5.479   7.538
19686TIP3    H258944   8.626   5.492   7.491
19687TIP3   OH258945   9.320   5.380   8.003
19687TIP3    H158946   9.350   5.307   7.948
19687TIP3    H258947   9.377   5.453   7.978
19688TIP3   OH258948   9.320   5.642   7.636
19688TIP3    H158949   9.261   5.706   7.596
19688TIP3    H258950   9.408   5.677   7.622
19689TIP3   OH258951   5.289   0.556   0.114
19689TIP3    H158952   5.216   0.497   0.133
19689TIP3    H258953   5.318   0.532   0.026
19690TIP3   OH258954   8.797   4.674   7.775
19690TIP3    H158955   8.756   4.754   7.740
19690TIP3    H258956   8.730   4.606   7.762
19691TIP3   OH258957   8.926   5.142   7.984
19691TIP3    H158958   8.910   5.131   8.078
19691TIP3    H258959   8.842   5.120   7.944
19692TIP3   OH258960   9.180   5.120   7.868
19692TIP3    H158961   9.099   5.110   7.918
19692TIP3    H258962   9.248   5.084   7.924
19693TIP3   OH258963   6.137   0.427   0.011
19693TIP3    H158964   6.151   0.332   0.012
19693TIP3    H258965   6.129   0.451   0.104
19694TIP3   OH258966   5.116   0.341   0.178
19694TIP3    H158967   5.120   0.252   0.141
19694TIP3    H258968   5.158   0.333   0.264
19695TIP3   OH258969   5.597   0.027   0.036
19695TIP3    H158970   5.666  -0.039   0.029
19695TIP3    H258971   5.567   0.040  -0.054
19696TIP3   OH258972   5.686   0.241   0.184
19696TIP3    H158973   5.656   0.170   0.127
19696TIP3    H258974   5.616   0.305   0.182
19697TIP3   OH258975   8.219   6.129   6.284
19697TIP3    H158976   8.306   6.101   6.256
19697TIP3    H258977   8.184   6.179   6.210
19698TIP3   OH258978   7.682   5.505   6.471
19698TIP3    H158979   7.778   5.513   6.470
19698TIP3    H258980   7.664   5.421   6.430
19699TIP3   OH258981   7.590   6.082   6.931
19699TIP3    H158982   7.525   6.030   6.885
19699TIP3    H258983   7.634   6.021   6.989
19700TIP3   OH258984   7.731   5.911   7.096
19700TIP3    H158985   7.724   5.841   7.162
19700TIP3    H258986   7.780   5.980   7.140
19701TIP3   OH258987   9.463   6.367   7.150
19701TIP3    H158988   9.419   6.282   7.149
19701TIP3    H258989   9.511   6.368   7.233
19702TIP3   OH258990   9.340   5.570   6.370
19702TIP3    H158991   9.401   5.639   6.345
19702TIP3    H258992   9.383   5.525   6.443
19703TIP3   OH258993   9.467   5.419   6.560
19703TIP3    H158994   9.403   5.379   6.618
19703TIP3    H258995   9.531   5.459   6.618
19704TIP3   OH258996   9.509   5.829   6.989
19704TIP3    H158997   9.558   5.755   6.952
19704TIP3    H258998   9.525   5.901   6.926
19705TIP3   OH258999   9.322   6.133   7.188
19705TIP3    H159000   9.256   6.170   7.246
19705TIP3    H259001   9.271   6.085   7.121
19706TIP3   OH259002   9.377   5.341   6.222
19706TIP3    H159003   9.309   5.339   6.155
19706TIP3    H259004   9.356   5.419   6.274
19707TIP3   OH259005   9.247   4.992   6.158
19707TIP3    H159006   9.208   5.021   6.076
19707TIP3    H259007   9.229   4.898   6.161
19708TIP3   OH259008   9.277   5.283   6.706
19708TIP3    H159009   9.280   5.189   6.689
19708TIP3    H259010   9.258   5.290   6.800
19709TIP3   OH259011   7.902   5.338   7.486
19709TIP3    H159012   7.891   5.308   7.396
19709TIP3    H259013   7.996   5.337   7.501
19710TIP3   OH259014   9.575   5.733   7.613
19710TIP3    H159015   9.650   5.674   7.614
19710TIP3    H259016   9.607   5.813   7.571
19711TIP3   OH259017   9.752   5.519   7.583
19711TIP3    H159018   9.666   5.479   7.602
19711TIP3    H259019   9.815   5.451   7.606
19712TIP3   OH259020   9.188   4.726   6.169
19712TIP3    H159021   9.260   4.702   6.228
19712TIP3    H259022   9.115   4.671   6.198
19713TIP3   OH259023   9.271   5.018   6.594
19713TIP3    H159024   9.308   4.931   6.610
19713TIP3    H259025   9.319   5.050   6.517
19714TIP3   OH259026   9.423   5.174   7.111
19714TIP3    H159027   9.501   5.200   7.062
19714TIP3    H259028   9.434   5.215   7.197
19715TIP3   OH259029   9.488   5.332   7.332
19715TIP3    H159030   9.413   5.358   7.386
19715TIP3    H259031   9.516   5.414   7.291
19716TIP3   OH259032   4.853   0.407   0.119
19716TIP3    H159033   4.948   0.402   0.136
19716TIP3    H259034   4.818   0.326   0.156
19717TIP3   OH259035   0.160   4.963   7.895
19717TIP3    H159036   0.214   4.891   7.861
19717TIP3    H259037   0.114   4.997   7.818
19718TIP3   OH259038   9.363   4.765   6.660
19718TIP3    H159039   9.403   4.742   6.744
19718TIP3    H259040   9.302   4.694   6.642
19719TIP3   OH259041   8.099   4.738   7.473
19719TIP3    H159042   8.152   4.659   7.476
19719TIP3    H259043   8.162   4.808   7.451
19720TIP3   OH259044   7.877   5.006   7.532
19720TIP3    H159045   7.929   4.989   7.453
19720TIP3    H259046   7.897   5.096   7.555
19721TIP3   OH259047   9.791   5.036   7.692
19721TIP3    H159048   9.704   5.074   7.696
19721TIP3    H259049   9.782   4.960   7.634
19722TIP3   OH259050   9.430   4.696   6.313
19722TIP3    H159051   9.459   4.637   6.244
19722TIP3    H259052   9.486   4.773   6.304
19723TIP3   OH259053   7.869   4.519   7.039
19723TIP3    H159054   7.776   4.508   7.060
19723TIP3    H259055   7.870   4.581   6.966
19724TIP3   OH259056   9.058   6.257   6.573
19724TIP3    H159057   9.100   6.231   6.491
19724TIP3    H259058   9.094   6.344   6.590
19725TIP3   OH259059   8.095   4.569   7.863
19725TIP3    H159060   8.043   4.566   7.943
19725TIP3    H259061   8.040   4.618   7.801
19726TIP3   OH259062   8.099   5.962   7.864
19726TIP3    H159063   8.004   5.971   7.863
19726TIP3    H259064   8.125   5.991   7.951
19727TIP3   OH259065   8.332   6.072   7.472
19727TIP3    H159066   8.281   6.144   7.436
19727TIP3    H259067   8.418   6.080   7.430
19728TIP3   OH259068   8.765   6.287   7.588
19728TIP3    H159069   8.812   6.276   7.671
19728TIP3    H259070   8.820   6.348   7.538
19729TIP3   OH259071   8.939   6.467   7.475
19729TIP3    H159072   9.017   6.420   7.445
19729TIP3    H259073   8.972   6.531   7.538
19730TIP3   OH259074   9.714   4.801   7.568
19730TIP3    H159075   9.628   4.804   7.528
19730TIP3    H259076   9.738   4.708   7.567
19731TIP3   OH259077   7.984   6.278   7.500
19731TIP3    H159078   7.895   6.292   7.467
19731TIP3    H259079   7.998   6.349   7.563
19732TIP3   OH259080   8.219   6.297   7.361
19732TIP3    H159081   8.136   6.292   7.408
19732TIP3    H259082   8.196   6.325   7.273
19733TIP3   OH259083   8.622   6.320   7.166
19733TIP3    H159084   8.546   6.332   7.109
19733TIP3    H259085   8.634   6.405   7.209
19734TIP3   OH259086   8.878   6.235   7.197
19734TIP3    H159087   8.788   6.263   7.185
19734TIP3    H259088   8.930   6.298   7.147
19735TIP3   OH259089   9.075   6.395   7.088
19735TIP3    H159090   9.074   6.478   7.040
19735TIP3    H259091   9.140   6.342   7.041
19736TIP3   OH259092   7.900   6.096   7.231
19736TIP3    H159093   7.918   6.066   7.320
19736TIP3    H259094   7.974   6.064   7.179
19737TIP3   OH259095   8.108   5.981   7.100
19737TIP3    H159096   8.118   5.898   7.147
19737TIP3    H259097   8.195   6.022   7.105
19738TIP3   OH259098   8.377   6.065   7.126
19738TIP3    H159099   8.395   5.972   7.110
19738TIP3    H259100   8.430   6.087   7.202
19739TIP3   OH259101   8.936   4.715   7.221
19739TIP3    H159102   8.894   4.644   7.270
19739TIP3    H259103   8.998   4.670   7.163
19740TIP3   OH259104   9.396   4.656   7.144
19740TIP3    H159105   9.436   4.686   7.063
19740TIP3    H259106   9.302   4.651   7.125
19741TIP3   OH259107   9.512   4.683   6.888
19741TIP3    H159108   9.589   4.643   6.847
19741TIP3    H259109   9.531   4.777   6.887
19742TIP3   OH259110   8.174   4.412   7.213
19742TIP3    H159111   8.084   4.380   7.220
19742TIP3    H259112   8.227   4.333   7.203
19743TIP3   OH259113   7.989   4.316   6.868
19743TIP3    H159114   8.013   4.365   6.790
19743TIP3    H259115   7.945   4.380   6.924
19744TIP3   OH259116   8.659   4.446   7.113
19744TIP3    H159117   8.703   4.495   7.043
19744TIP3    H259118   8.697   4.479   7.194
19745TIP3   OH259119   9.132   4.584   7.076
19745TIP3    H159120   9.131   4.547   6.987
19745TIP3    H259121   9.140   4.508   7.133
19746TIP3   OH259122   9.183   4.554   6.652
19746TIP3    H159123   9.104   4.603   6.674
19746TIP3    H259124   9.173   4.470   6.697
19747TIP3   OH259125   7.663   5.890   6.621
19747TIP3    H159126   7.578   5.862   6.587
19747TIP3    H259127   7.672   5.981   6.594
19748TIP3   OH259128   8.110   4.447   6.640
19748TIP3    H159129   8.162   4.388   6.586
19748TIP3    H259130   8.175   4.504   6.682
19749TIP3   OH259131   8.577   4.641   6.723
19749TIP3    H159132   8.644   4.586   6.765
19749TIP3    H259133   8.601   4.730   6.745
19750TIP3   OH259134   8.471   6.042   6.218
19750TIP3    H159135   8.554   6.070   6.180
19750TIP3    H259136   8.442   5.969   6.163
19751TIP3   OH259137   9.182   6.185   6.333
19751TIP3    H159138   9.174   6.090   6.326
19751TIP3    H259139   9.136   6.219   6.257
19752TIP3   OH259140   5.135   0.072   0.095
19752TIP3    H159141   5.102   0.004   0.154
19752TIP3    H259142   5.228   0.080   0.117
19753TIP3   OH259143   5.386   0.076   0.209
19753TIP3    H159144   5.462   0.055   0.156
19753TIP3    H259145   5.380   0.005   0.273
19754TIP3   OH259146   7.780   5.884   6.278
19754TIP3    H159147   7.775   5.894   6.373
19754TIP3    H259148   7.861   5.837   6.263
19755TIP3   OH259149   6.201   0.158   0.001
19755TIP3    H159150   6.219   0.124   0.088
19755TIP3    H259151   6.287   0.160  -0.042
19756TIP3   OH259152   0.108   5.551   7.071
19756TIP3    H159153   0.138   5.491   7.138
19756TIP3    H259154   0.139   5.637   7.100
19757TIP3   OH259155   0.068   5.978   6.745
19757TIP3    H159156   0.054   5.891   6.783
19757TIP3    H259157   0.162   5.985   6.735
19758TIP3   OH259158   9.638   5.208   6.487
19758TIP3    H159159   9.585   5.286   6.503
19758TIP3    H259160   9.574   5.138   6.472
19759TIP3   OH259161   9.692   5.516   6.683
19759TIP3    H159162   9.742   5.437   6.703
19759TIP3    H259163   9.751   5.568   6.627
19760TIP3   OH259164   0.624   5.950   6.734
19760TIP3    H159165   0.692   5.982   6.674
19760TIP3    H259166   0.657   5.974   6.821
19761TIP3   OH259167   0.547   5.126   6.809
19761TIP3    H159168   0.478   5.193   6.809
19761TIP3    H259169   0.500   5.043   6.814
19762TIP3   OH259170   0.016   5.284   6.766
19762TIP3    H159171   0.080   5.264   6.834
19762TIP3    H259172   0.029   5.215   6.700
19763TIP3   OH259173   0.559   5.490   6.657
19763TIP3    H159174   0.645   5.521   6.627
19763TIP3    H259175   0.499   5.511   6.586
19764TIP3   OH259176   0.365   5.017   7.187
19764TIP3    H159177   0.338   4.926   7.180
19764TIP3    H259178   0.302   5.056   7.249
19765TIP3   OH259179   0.435   5.945   6.984
19765TIP3    H159180   0.404   5.881   7.048
19765TIP3    H259181   0.526   5.961   7.008
19766TIP3   OH259182   0.179   5.213   6.975
19766TIP3    H159183   0.232   5.283   7.013
19766TIP3    H259184   0.243   5.146   6.950
19767TIP3   OH259185   9.519   5.754   6.262
19767TIP3    H159186   9.472   5.762   6.179
19767TIP3    H259187   9.538   5.844   6.288
19768TIP3   OH259188   0.064   5.702   6.540
19768TIP3    H159189   0.078   5.660   6.455
19768TIP3    H259190   0.064   5.795   6.520
19769TIP3   OH259191   0.426   6.151   6.588
19769TIP3    H159192   0.400   6.072   6.636
19769TIP3    H259193   0.518   6.165   6.613
19770TIP3   OH259194   0.395   5.681   6.783
19770TIP3    H159195   0.449   5.616   6.738
19770TIP3    H259196   0.442   5.699   6.864
19771TIP3   OH259197   0.208   5.784   7.208
19771TIP3    H159198   0.176   5.871   7.186
19771TIP3    H259199   0.140   5.747   7.265
19772TIP3   OH259200   0.718   6.205   6.260
19772TIP3    H159201   0.776   6.280   6.272
19772TIP3    H259202   0.680   6.217   6.173
19773TIP3   OH259203   0.115   5.578   6.306
19773TIP3    H159204   0.042   5.583   6.244
19773TIP3    H259205   0.118   5.486   6.331
19774TIP3   OH259206   9.694   5.849   7.194
19774TIP3    H159207   9.624   5.850   7.129
19774TIP3    H259208   9.702   5.758   7.220
19775TIP3   OH259209   9.615   6.041   6.835
19775TIP3    H159210   9.698   6.018   6.794
19775TIP3    H259211   9.638   6.105   6.902
19776TIP3   OH259212   0.463   6.490   5.966
19776TIP3    H159213   0.473   6.419   5.903
19776TIP3    H259214   0.370   6.492   5.985
19777TIP3   OH259215   9.742   6.232   6.356
19777TIP3    H159216   9.766   6.231   6.449
19777TIP3    H259217   9.679   6.161   6.347
19778TIP3   OH259218   0.077   6.048   7.188
19778TIP3    H159219   0.080   6.077   7.279
19778TIP3    H259220   0.006   5.984   7.186
19779TIP3   OH259221   0.504   4.804   6.998
19779TIP3    H159222   0.442   4.745   6.954
19779TIP3    H259223   0.467   4.891   6.986
19780TIP3   OH259224   0.648   5.384   6.910
19780TIP3    H159225   0.581   5.338   6.960
19780TIP3    H259226   0.604   5.411   6.829
19781TIP3   OH259227   0.383   5.188   6.499
19781TIP3    H159228   0.298   5.190   6.455
19781TIP3    H259229   0.438   5.247   6.447
19782TIP3   OH259230   0.240   5.377   7.248
19782TIP3    H159231   0.234   5.437   7.322
19782TIP3    H259232   0.227   5.290   7.286
19783TIP3   OH259233   0.420   4.938   5.920
19783TIP3    H159234   0.391   4.873   5.857
19783TIP3    H259235   0.385   5.021   5.887
19784TIP3   OH259236   9.581   4.937   6.840
19784TIP3    H159237   9.659   4.974   6.883
19784TIP3    H259238   9.594   4.957   6.747
19785TIP3   OH259239   9.591   4.915   6.268
19785TIP3    H159240   9.635   4.965   6.199
19785TIP3    H259241   9.536   4.980   6.313
19786TIP3   OH259242   0.062   5.081   6.574
19786TIP3    H159243  -0.025   5.108   6.543
19786TIP3    H259244   0.062   4.985   6.563
19787TIP3   OH259245   0.275   5.173   6.237
19787TIP3    H159246   0.358   5.180   6.190
19787TIP3    H259247   0.220   5.118   6.182
19788TIP3   OH259248   0.105   5.226   6.000
19788TIP3    H159249   0.037   5.168   6.034
19788TIP3    H259250   0.165   5.168   5.953
19789TIP3   OH259251   0.248   4.764   6.494
19789TIP3    H159252   0.285   4.808   6.571
19789TIP3    H259253   0.293   4.805   6.420
19790TIP3   OH259254   0.504   5.698   6.108
19790TIP3    H159255   0.444   5.630   6.076
19790TIP3    H259256   0.472   5.718   6.196
19791TIP3   OH259257   0.120   5.712   6.806
19791TIP3    H159258   0.097   5.696   6.715
19791TIP3    H259259   0.213   5.692   6.811
19792TIP3   OH259260   9.816   5.627   7.341
19792TIP3    H159261   9.805   5.603   7.433
19792TIP3    H259262   9.744   5.584   7.296
19793TIP3   OH259263   0.175   6.009   6.357
19793TIP3    H159264   0.233   6.083   6.338
19793TIP3    H259265   0.087   6.048   6.363
19794TIP3   OH259266   9.596   5.336   6.062
19794TIP3    H159267   9.640   5.418   6.084
19794TIP3    H259268   9.520   5.333   6.120
19795TIP3   OH259269   0.328   5.784   6.316
19795TIP3    H159270   0.270   5.855   6.344
19795TIP3    H259271   0.279   5.704   6.333
19796TIP3   OH259272   0.171   6.293   6.217
19796TIP3    H159273   0.092   6.279   6.269
19796TIP3    H259274   0.191   6.386   6.227
19797TIP3   OH259275   0.198   5.129   7.369
19797TIP3    H159276   0.104   5.147   7.371
19797TIP3    H259277   0.214   5.080   7.450
19798TIP3   OH259278   9.759   6.224   6.998
19798TIP3    H159279   9.816   6.158   7.037
19798TIP3    H259280   9.758   6.295   7.062
19799TIP3   OH259281   0.279   5.877   5.669
19799TIP3    H159282   0.274   5.797   5.617
19799TIP3    H259283   0.299   5.846   5.758
19800TIP3   OH259284   0.113   5.919   5.994
19800TIP3    H159285   0.196   5.929   6.040
19800TIP3    H259286   0.075   6.007   5.994
19801TIP3   OH259287   9.699   5.587   6.133
19801TIP3    H159288   9.637   5.624   6.195
19801TIP3    H259289   9.694   5.645   6.057
19802TIP3   OH259290   0.326   6.089   5.865
19802TIP3    H159291   0.348   6.044   5.946
19802TIP3    H259292   0.410   6.119   5.830
19803TIP3   OH259293   0.075   6.196   5.980
19803TIP3    H159294   0.018   6.272   5.964
19803TIP3    H259295   0.120   6.217   6.062
19804TIP3   OH259296   0.353   4.765   6.113
19804TIP3    H159297   0.279   4.820   6.139
19804TIP3    H259298   0.394   4.813   6.041
19805TIP3   OH259299   9.696   5.769   5.926
19805TIP3    H159300   9.767   5.829   5.951
19805TIP3    H259301   9.731   5.722   5.850
19806TIP3   OH259302   9.675   5.075   6.057
19806TIP3    H159303   9.637   5.163   6.060
19806TIP3    H259304   9.625   5.030   5.990
19807TIP3   OH259305   0.178   4.785   7.017
19807TIP3    H159306   0.165   4.742   6.932
19807TIP3    H259307   0.175   4.714   7.081
19808TIP3   OH259308   9.554   6.032   6.313
19808TIP3    H159309   9.486   6.054   6.377
19808TIP3    H259310   9.522   6.068   6.231
19809TIP3   OH259311   0.397   6.107   5.579
19809TIP3    H159312   0.365   6.024   5.615
19809TIP3    H259313   0.468   6.082   5.520
19810TIP3   OH259314   0.033   5.618   5.747
19810TIP3    H159315   0.062   5.555   5.812
19810TIP3    H259316   0.107   5.627   5.687
19811TIP3   OH259317   0.125   5.498   5.985
19811TIP3    H159318   0.056   5.518   6.048
19811TIP3    H259319   0.141   5.404   5.996
19812TIP3   OH259320   0.608   5.505   7.269
19812TIP3    H159321   0.539   5.556   7.312
19812TIP3    H259322   0.614   5.544   7.182
19813TIP3   OH259323   0.368   5.209   5.868
19813TIP3    H159324   0.329   5.274   5.809
19813TIP3    H259325   0.457   5.197   5.835
19814TIP3   OH259326   0.591   5.206   7.349
19814TIP3    H159327   0.662   5.264   7.377
19814TIP3    H259328   0.554   5.250   7.273
19815TIP3   OH259329   0.692   5.013   7.126
19815TIP3    H159330   0.713   5.073   7.054
19815TIP3    H259331   0.614   5.050   7.166
19816TIP3   OH259332   0.359   5.246   7.648
19816TIP3    H159333   0.343   5.153   7.634
19816TIP3    H259334   0.402   5.251   7.733
19817TIP3   OH259335   0.170   6.342   5.753
19817TIP3    H159336   0.263   6.363   5.744
19817TIP3    H259337   0.127   6.397   5.687
19818TIP3   OH259338   9.435   5.744   5.996
19818TIP3    H159339   9.523   5.770   5.967
19818TIP3    H259340   9.415   5.666   5.944
19819TIP3   OH259341   9.370   6.349   6.449
19819TIP3    H159342   9.307   6.298   6.396
19819TIP3    H259343   9.416   6.284   6.501
19820TIP3   OH259344   9.512   6.178   6.605
19820TIP3    H159345   9.515   6.101   6.662
19820TIP3    H259346   9.560   6.246   6.654
19821TIP3   OH259347   9.666   5.609   6.941
19821TIP3    H159348   9.660   5.578   6.850
19821TIP3    H259349   9.759   5.604   6.962
19822TIP3   OH259350   0.087   5.284   7.613
19822TIP3    H159351   0.182   5.282   7.624
19822TIP3    H259352   0.057   5.203   7.655
19823TIP3   OH259353   0.003   5.000   6.987
19823TIP3    H159354   0.063   4.928   7.005
19823TIP3    H259355   0.059   5.078   6.988
19824TIP3   OH259356   9.656   5.282   7.007
19824TIP3    H159357   9.687   5.277   6.917
19824TIP3    H259358   9.719   5.339   7.051
19825TIP3   OH259359   9.581   4.914   6.564
19825TIP3    H159360   9.505   4.859   6.582
19825TIP3    H259361   9.641   4.857   6.516
19826TIP3   OH259362   0.068   4.831   7.333
19826TIP3    H159363   0.030   4.819   7.420
19826TIP3    H259364   0.002   4.880   7.284
19827TIP3   OH259365   9.669   6.354   6.766
19827TIP3    H159366   9.691   6.320   6.852
19827TIP3    H259367   9.735   6.317   6.707
19828TIP3   OH259368   0.046   6.225   6.608
19828TIP3    H159369   0.066   6.144   6.654
19828TIP3    H259370   0.127   6.275   6.610
19829TIP3   OH259371   0.274   6.373   6.611
19829TIP3    H159372   0.334   6.299   6.603
19829TIP3    H259373   0.329   6.450   6.597
19830TIP3   OH259374   0.167   4.659   6.780
19830TIP3    H159375   0.081   4.621   6.765
19830TIP3    H259376   0.225   4.584   6.789
19831TIP3   OH259377   9.706   4.542   6.327
19831TIP3    H159378   9.714   4.596   6.248
19831TIP3    H259379   9.717   4.603   6.399
19832TIP3   OH259380   9.466   6.146   6.074
19832TIP3    H159381   9.376   6.125   6.049
19832TIP3    H259382   9.472   6.241   6.065
19833TIP3   OH259383   0.028   4.725   6.159
19833TIP3    H159384   0.059   4.677   6.082
19833TIP3    H259385   0.082   4.692   6.231
19834TIP3   OH259386   0.445   6.319   5.751
19834TIP3    H159387   0.537   6.344   5.742
19834TIP3    H259388   0.432   6.254   5.682
19835TIP3   OH259389   0.299   4.980   7.595
19835TIP3    H159390   0.287   4.903   7.650
19835TIP3    H259391   0.378   4.961   7.545
19836TIP3   OH259392   0.569   4.998   7.799
19836TIP3    H159393   0.609   5.079   7.766
19836TIP3    H259394   0.582   5.002   7.894
19837TIP3   OH259395   9.550   6.115   5.793
19837TIP3    H159396   9.532   6.125   5.887
19837TIP3    H259397   9.574   6.023   5.783
19838TIP3   OH259398   7.863   1.616   0.456
19838TIP3    H159399   7.823   1.701   0.438
19838TIP3    H259400   7.797   1.552   0.430
19839TIP3   OH259401   7.870   1.567   0.857
19839TIP3    H159402   7.910   1.555   0.943
19839TIP3    H259403   7.824   1.485   0.840
19840TIP3   OH259404   8.119   1.845   0.498
19840TIP3    H159405   8.093   1.784   0.567
19840TIP3    H259406   8.156   1.920   0.545
19841TIP3   OH259407   7.709   2.336   0.457
19841TIP3    H159408   7.753   2.260   0.418
19841TIP3    H259409   7.642   2.299   0.514
19842TIP3   OH259410   7.681   1.773   0.884
19842TIP3    H159411   7.743   1.701   0.873
19842TIP3    H259412   7.701   1.834   0.813
19843TIP3   OH259413   8.693   1.159   0.888
19843TIP3    H159414   8.715   1.238   0.937
19843TIP3    H259415   8.721   1.178   0.799
19844TIP3   OH259416   8.074   1.286   0.894
19844TIP3    H159417   8.114   1.202   0.919
19844TIP3    H259418   8.031   1.268   0.811
19845TIP3   OH259419   7.473   0.980   0.864
19845TIP3    H159420   7.428   1.060   0.836
19845TIP3    H259421   7.417   0.909   0.833
19846TIP3   OH259422   8.129   1.078   0.504
19846TIP3    H159423   8.191   1.073   0.577
19846TIP3    H259424   8.180   1.115   0.432
19847TIP3   OH259425   7.503   1.403   0.746
19847TIP3    H159426   7.590   1.371   0.767
19847TIP3    H259427   7.451   1.323   0.732
19848TIP3   OH259428   8.764   1.366   1.059
19848TIP3    H159429   8.675   1.403   1.057
19848TIP3    H259430   8.802   1.402   1.140
19849TIP3   OH259431   7.694   1.808   0.354
19849TIP3    H159432   7.688   1.787   0.261
19849TIP3    H259433   7.656   1.896   0.361
19850TIP3   OH259434   8.286   1.100   0.727
19850TIP3    H159435   8.254   1.068   0.811
19850TIP3    H259436   8.342   1.175   0.749
19851TIP3   OH259437   8.196   2.067   0.642
19851TIP3    H159438   8.175   2.075   0.735
19851TIP3    H259439   8.133   2.125   0.598
19852TIP3   OH259440   8.489   1.056   1.057
19852TIP3    H159441   8.403   1.070   1.017
19852TIP3    H259442   8.551   1.086   0.990
19853TIP3   OH259443   7.770   0.686   1.024
19853TIP3    H159444   7.757   0.594   1.048
19853TIP3    H259445   7.702   0.734   1.071
19854TIP3   OH259446   7.875   2.149   0.327
19854TIP3    H159447   7.916   2.064   0.311
19854TIP3    H259448   7.938   2.213   0.292
19855TIP3   OH259449   8.011   1.928   0.262
19855TIP3    H159450   8.027   1.861   0.196
19855TIP3    H259451   8.052   1.894   0.341
19856TIP3   OH259452   8.467   1.964   1.043
19856TIP3    H159453   8.420   1.885   1.016
19856TIP3    H259454   8.428   2.034   0.990
19857TIP3   OH259455   7.687   1.463   0.300
19857TIP3    H159456   7.605   1.509   0.285
19857TIP3    H259457   7.733   1.468   0.216
19858TIP3   OH259458   7.660   1.264   0.001
19858TIP3    H159459   7.723   1.318   0.049
19858TIP3    H259460   7.713   1.198  -0.042
19859TIP3   OH259461   8.592   1.694   0.882
19859TIP3    H159462   8.503   1.727   0.877
19859TIP3    H259463   8.632   1.719   0.799
19860TIP3   OH259464   8.048   1.543   0.267
19860TIP3    H159465   7.994   1.573   0.340
19860TIP3    H259466   8.131   1.517   0.307
19861TIP3   OH259467   8.270   1.470   1.239
19861TIP3    H159468   8.272   1.557   1.279
19861TIP3    H259469   8.193   1.471   1.182
19862TIP3   OH259470   7.438   1.487   0.996
19862TIP3    H159471   7.451   1.471   0.903
19862TIP3    H259472   7.525   1.511   1.029
19863TIP3   OH259473   8.048   2.165   0.853
19863TIP3    H159474   8.031   2.259   0.863
19863TIP3    H259475   7.992   2.139   0.779
19864TIP3   OH259476   7.878   1.412   0.094
19864TIP3    H159477   7.939   1.467   0.143
19864TIP3    H259478   7.908   1.417   0.003
19865TIP3   OH259479   7.611   2.069   0.358
19865TIP3    H159480   7.704   2.086   0.343
19865TIP3    H259481   7.566   2.125   0.294
19866TIP3   OH259482   8.383   0.637   0.154
19866TIP3    H159483   8.307   0.659   0.209
19866TIP3    H259484   8.394   0.713   0.097
19867TIP3   OH259485   1.679   6.628   7.705
19867TIP3    H159486   1.676   6.720   7.678
19867TIP3    H259487   1.770   6.601   7.689
19868TIP3   OH259488   8.682   2.469   0.976
19868TIP3    H159489   8.683   2.393   0.918
19868TIP3    H259490   8.687   2.433   1.064
19869TIP3   OH259491   7.671   2.185   1.329
19869TIP3    H159492   7.724   2.265   1.333
19869TIP3    H259493   7.622   2.194   1.247
19870TIP3   OH259494   7.518   2.263   0.181
19870TIP3    H159495   7.477   2.253   0.095
19870TIP3    H259496   7.504   2.354   0.204
19871TIP3   OH259497   1.180   6.845   7.807
19871TIP3    H159498   1.232   6.774   7.769
19871TIP3    H259499   1.215   6.855   7.896
19872TIP3   OH259500   7.773   2.245   0.073
19872TIP3    H159501   7.685   2.251   0.110
19872TIP3    H259502   7.822   2.194   0.137
19873TIP3   OH259503   8.547   1.508   1.383
19873TIP3    H159504   8.457   1.540   1.380
19873TIP3    H259505   8.542   1.419   1.350
19874TIP3   OH259506   7.571   0.792   1.175
19874TIP3    H159507   7.486   0.821   1.142
19874TIP3    H259508   7.601   0.864   1.229
19875TIP3   OH259509   7.928   0.917   1.352
19875TIP3    H159510   7.930   0.900   1.446
19875TIP3    H259511   7.839   0.947   1.335
19876TIP3   OH259512   8.273   1.245   1.392
19876TIP3    H159513   8.264   1.274   1.483
19876TIP3    H259514   8.268   1.326   1.341
19877TIP3   OH259515   1.423   6.001   7.833
19877TIP3    H159516   1.376   6.009   7.750
19877TIP3    H259517   1.505   6.048   7.818
19878TIP3   OH259518   7.652   0.813   0.148
19878TIP3    H159519   7.622   0.817   0.239
19878TIP3    H259520   7.623   0.727   0.117
19879TIP3   OH259521   7.439   1.279   1.175
19879TIP3    H159522   7.355   1.276   1.220
19879TIP3    H259523   7.428   1.345   1.107
19880TIP3   OH259524   7.333   1.180   0.725
19880TIP3    H159525   7.242   1.207   0.738
19880TIP3    H259526   7.332   1.129   0.644
19881TIP3   OH259527   7.803   1.250   0.425
19881TIP3    H159528   7.757   1.325   0.387
19881TIP3    H259529   7.863   1.221   0.356
19882TIP3   OH259530   7.967   1.247   0.649
19882TIP3    H159531   7.900   1.272   0.585
19882TIP3    H259532   8.019   1.180   0.605
19883TIP3   OH259533   7.314   0.772   0.110
19883TIP3    H159534   7.292   0.790   0.201
19883TIP3    H259535   7.236   0.799   0.061
19884TIP3   OH259536   8.034   1.461   1.093
19884TIP3    H159537   8.054   1.401   1.021
19884TIP3    H259538   7.982   1.409   1.154
19885TIP3   OH259539   7.725   0.983   0.757
19885TIP3    H159540   7.644   0.983   0.808
19885TIP3    H259541   7.794   0.972   0.823
19886TIP3   OH259542   7.345   1.045   0.486
19886TIP3    H159543   7.439   1.060   0.482
19886TIP3    H259544   7.312   1.075   0.401
19887TIP3   OH259545   8.174   1.041   0.979
19887TIP3    H159546   8.153   1.066   1.069
19887TIP3    H259547   8.103   0.981   0.954
19888TIP3   OH259548   7.237   1.103   0.241
19888TIP3    H159549   7.154   1.086   0.195
19888TIP3    H259550   7.297   1.133   0.173
19889TIP3   OH259551   8.364   2.753   1.311
19889TIP3    H159552   8.327   2.824   1.258
19889TIP3    H259553   8.439   2.793   1.354
19890TIP3   OH259554   7.747   1.314   0.848
19890TIP3    H159555   7.809   1.258   0.802
19890TIP3    H259556   7.733   1.270   0.932
19891TIP3   OH259557   7.306   0.796   0.741
19891TIP3    H159558   7.214   0.771   0.729
19891TIP3    H259559   7.350   0.762   0.662
19892TIP3   OH259560   7.698   1.210   1.106
19892TIP3    H159561   7.611   1.240   1.130
19892TIP3    H259562   7.757   1.261   1.162
19893TIP3   OH259563   7.450   1.601   0.249
19893TIP3    H159564   7.379   1.537   0.240
19893TIP3    H259565   7.431   1.645   0.332
19894TIP3   OH259566   8.345   1.817   0.803
19894TIP3    H159567   8.382   1.892   0.757
19894TIP3    H259568   8.267   1.794   0.753
19895TIP3   OH259569   7.908   0.915   0.154
19895TIP3    H159570   7.814   0.897   0.149
19895TIP3    H259571   7.913   1.010   0.164
19896TIP3   OH259572   7.897   1.866   1.335
19896TIP3    H159573   7.881   1.865   1.429
19896TIP3    H259574   7.890   1.959   1.311
19897TIP3   OH259575   7.976   1.178   0.217
19897TIP3    H159576   8.071   1.182   0.230
19897TIP3    H259577   7.956   1.257   0.166
19898TIP3   OH259578   7.609   1.749   0.088
19898TIP3    H159579   7.562   1.832   0.081
19898TIP3    H259580   7.550   1.693   0.138
19899TIP3   OH259581   7.883   2.315   1.036
19899TIP3    H159582   7.875   2.226   1.002
19899TIP3    H259583   7.871   2.305   1.131
19900TIP3   OH259584   8.383   1.269   0.039
19900TIP3    H159585   8.325   1.224  -0.023
19900TIP3    H259586   8.392   1.358   0.004
19901TIP3   OH259587   8.707   2.077   1.107
19901TIP3    H159588   8.615   2.049   1.105
19901TIP3    H259589   8.741   2.055   1.021
19902TIP3   OH259590   1.587   6.712   7.956
19902TIP3    H159591   1.563   6.641   8.016
19902TIP3    H259592   1.612   6.667   7.875
19903TIP3   OH259593   8.093   1.681   0.727
19903TIP3    H159594   8.007   1.645   0.749
19903TIP3    H259595   8.144   1.606   0.698
19904TIP3   OH259596   7.422   1.709   0.499
19904TIP3    H159597   7.504   1.756   0.511
19904TIP3    H259598   7.412   1.657   0.579
19905TIP3   OH259599   8.002   1.855   0.929
19905TIP3    H159600   7.966   1.789   0.989
19905TIP3    H259601   8.039   1.804   0.857
19906TIP3   OH259602   1.375   6.436   7.865
19906TIP3    H159603   1.418   6.408   7.946
19906TIP3    H259604   1.291   6.391   7.865
19907TIP3   OH259605   8.215   2.376   1.018
19907TIP3    H159606   8.164   2.413   1.089
19907TIP3    H259607   8.198   2.433   0.943
19908TIP3   OH259608   1.683   6.895   7.646
19908TIP3    H159609   1.704   6.949   7.570
19908TIP3    H259610   1.610   6.940   7.689
19909TIP3   OH259611   8.071   1.734   0.073
19909TIP3    H159612   8.060   1.664   0.137
19909TIP3    H259613   8.165   1.738   0.057
19910TIP3   OH259614   0.799   6.367   7.889
19910TIP3    H159615   0.781   6.282   7.848
19910TIP3    H259616   0.784   6.352   7.982
19911TIP3   OH259617   8.094   1.108   1.235
19911TIP3    H159618   8.162   1.137   1.295
19911TIP3    H259619   8.052   1.035   1.279
19912TIP3   OH259620   7.977   0.864   0.417
19912TIP3    H159621   7.954   0.883   0.326
19912TIP3    H259622   8.022   0.943   0.448
19913TIP3   OH259623   7.461   1.976   0.090
19913TIP3    H159624   7.397   2.011   0.152
19913TIP3    H259625   7.470   2.044   0.024
19914TIP3   OH259626   7.622   1.065   0.513
19914TIP3    H159627   7.681   1.132   0.479
19914TIP3    H259628   7.654   1.047   0.601
19915TIP3   OH259629   7.896   1.306   1.275
19915TIP3    H159630   7.893   1.332   1.367
19915TIP3    H259631   7.962   1.236   1.272
19916TIP3   OH259632   7.794   0.767   0.595
19916TIP3    H159633   7.776   0.844   0.649
19916TIP3    H259634   7.862   0.794   0.534
19917TIP3   OH259635   7.305   0.781   0.392
19917TIP3    H159636   7.291   0.867   0.431
19917TIP3    H259637   7.400   0.769   0.393
19918TIP3   OH259638   8.531   1.245   1.289
19918TIP3    H159639   8.448   1.224   1.331
19918TIP3    H259640   8.528   1.201   1.204
19919TIP3   OH259641   8.209   1.437   0.660
19919TIP3    H159642   8.133   1.382   0.680
19919TIP3    H259643   8.278   1.403   0.716
19920TIP3   OH259644   8.181   2.438   0.545
19920TIP3    H159645   8.091   2.453   0.514
19920TIP3    H259646   8.236   2.461   0.470
19921TIP3   OH259647   0.870   6.599   7.764
19921TIP3    H159648   0.839   6.524   7.814
19921TIP3    H259649   0.949   6.568   7.719
19922TIP3   OH259650   8.195   2.239   1.406
19922TIP3    H159651   8.126   2.213   1.467
19922TIP3    H259652   8.156   2.310   1.355
19923TIP3   OH259653   1.317   6.640   7.689
19923TIP3    H159654   1.356   6.579   7.750
19923TIP3    H259655   1.374   6.638   7.612
19924TIP3   OH259656   7.661   1.713   1.554
19924TIP3    H159657   7.632   1.791   1.505
19924TIP3    H259658   7.748   1.736   1.586
19925TIP3   OH259659   1.131   6.310   7.826
19925TIP3    H159660   1.098   6.325   7.915
19925TIP3    H259661   1.103   6.221   7.805
19926TIP3   OH259662   8.156   1.864   1.215
19926TIP3    H159663   8.173   1.954   1.189
19926TIP3    H259664   8.070   1.866   1.257
19927TIP3   OH259665   7.270   1.399   0.225
19927TIP3    H159666   7.226   1.336   0.282
19927TIP3    H259667   7.313   1.346   0.158
19928TIP3   OH259668   7.610   1.415   1.382
19928TIP3    H159669   7.523   1.449   1.406
19928TIP3    H259670   7.620   1.438   1.290
19929TIP3   OH259671   7.391   1.223   0.050
19929TIP3    H159672   7.363   1.229  -0.041
19929TIP3    H259673   7.486   1.233   0.047
19930TIP3   OH259674   8.149   1.981   1.509
19930TIP3    H159675   8.226   2.003   1.456
19930TIP3    H259676   8.176   1.903   1.558
19931TIP3   OH259677   1.639   6.141   7.733
19931TIP3    H159678   1.628   6.098   7.648
19931TIP3    H259679   1.617   6.233   7.717
19932TIP3   OH259680   7.670   1.014   1.306
19932TIP3    H159681   7.680   1.072   1.230
19932TIP3    H259682   7.614   1.063   1.366
19933TIP3   OH259683   7.666   1.545   1.141
19933TIP3    H159684   7.747   1.593   1.126
19933TIP3    H259685   7.616   1.599   1.203
19934TIP3   OH259686   8.327   1.708   1.362
19934TIP3    H159687   8.262   1.763   1.319
19934TIP3    H259688   8.411   1.743   1.333
19935TIP3   OH259689   8.441   2.503   0.454
19935TIP3    H159690   8.463   2.478   0.544
19935TIP3    H259691   8.525   2.526   0.414
19936TIP3   OH259692   8.438   2.523   0.859
19936TIP3    H159693   8.412   2.444   0.811
19936TIP3    H259694   8.507   2.494   0.918
19937TIP3   OH259695   8.634   2.162   1.461
19937TIP3    H159696   8.545   2.182   1.490
19937TIP3    H259697   8.655   2.232   1.398
19938TIP3   OH259698   8.346   1.732   0.058
19938TIP3    H159699   8.403   1.802   0.026
19938TIP3    H259700   8.394   1.695   0.132
19939TIP3   OH259701   8.478   1.591   0.257
19939TIP3    H159702   8.413   1.552   0.316
19939TIP3    H259703   8.544   1.627   0.316
19940TIP3   OH259704   8.524   1.997   0.669
19940TIP3    H159705   8.572   1.919   0.642
19940TIP3    H259706   8.548   2.064   0.605
19941TIP3   OH259707   8.348   2.150   0.886
19941TIP3    H159708   8.304   2.228   0.917
19941TIP3    H259709   8.348   2.159   0.790
19942TIP3   OH259710   1.851   6.128   7.906
19942TIP3    H159711   1.779   6.127   7.844
19942TIP3    H259712   1.836   6.206   7.959
19943TIP3   OH259713   1.691   5.776   7.849
19943TIP3    H159714   1.646   5.810   7.771
19943TIP3    H259715   1.690   5.681   7.838
19944TIP3   OH259716   8.277   1.446   0.392
19944TIP3    H159717   8.282   1.352   0.372
19944TIP3    H259718   8.258   1.449   0.486
19945TIP3   OH259719   8.563   1.828   1.260
19945TIP3    H159720   8.627   1.761   1.235
19945TIP3    H259721   8.537   1.868   1.177
19946TIP3   OH259722   8.742   1.631   1.237
19946TIP3    H159723   8.676   1.586   1.288
19946TIP3    H259724   8.823   1.583   1.254
19947TIP3   OH259725   1.665   5.504   7.813
19947TIP3    H159726   1.730   5.478   7.878
19947TIP3    H259727   1.582   5.467   7.845
19948TIP3   OH259728   8.267   1.176   0.277
19948TIP3    H159729   8.314   1.093   0.290
19948TIP3    H259730   8.307   1.214   0.199
19949TIP3   OH259731   8.422   1.330   0.807
19949TIP3    H159732   8.501   1.349   0.758
19949TIP3    H259733   8.437   1.367   0.894
19950TIP3   OH259734   8.505   1.472   1.036
19950TIP3    H159735   8.431   1.495   1.092
19950TIP3    H259736   8.530   1.554   0.994
19951TIP3   OH259737   8.901   1.039   1.564
19951TIP3    H159738   8.986   1.014   1.526
19951TIP3    H259739   8.881   1.123   1.523
19952TIP3   OH259740   8.383   0.927   0.332
19952TIP3    H159741   8.428   0.914   0.416
19952TIP3    H259742   8.320   0.855   0.327
19953TIP3   OH259743   8.797   1.206   1.360
19953TIP3    H159744   8.707   1.237   1.359
19953TIP3    H259745   8.794   1.121   1.317
19954TIP3   OH259746   1.889   5.457   7.971
19954TIP3    H159747   1.940   5.397   7.917
19954TIP3    H259748   1.942   5.536   7.977
19955TIP3   OH259749   8.046   2.326   0.222
19955TIP3    H159750   8.071   2.326   0.129
19955TIP3    H259751   8.100   2.395   0.261
19956TIP3   OH259752   7.805   2.452   1.290
19956TIP3    H159753   7.746   2.451   1.366
19956TIP3    H259754   7.833   2.543   1.283
19957TIP3   OH259755   7.900   2.711   1.261
19957TIP3    H159756   7.956   2.678   1.191
19957TIP3    H259757   7.961   2.745   1.327
19958TIP3   OH259758   8.715   0.968   1.241
19958TIP3    H159759   8.628   0.964   1.201
19958TIP3    H259760   8.744   0.876   1.242
19959TIP3   OH259761   7.567   2.345   0.863
19959TIP3    H159762   7.472   2.360   0.860
19959TIP3    H259763   7.598   2.403   0.933
19960TIP3   OH259764   7.852   2.410   0.751
19960TIP3    H159765   7.785   2.408   0.819
19960TIP3    H259766   7.878   2.502   0.745
19961TIP3   OH259767   8.143   2.522   0.802
19961TIP3    H159768   8.066   2.578   0.792
19961TIP3    H259769   8.165   2.495   0.713
19962TIP3   OH259770   7.941   0.887   0.907
19962TIP3    H159771   7.894   0.813   0.945
19962TIP3    H259772   8.003   0.847   0.845
19963TIP3   OH259773   8.422   0.800   0.794
19963TIP3    H159774   8.461   0.848   0.721
19963TIP3    H259775   8.328   0.821   0.788
19964TIP3   OH259776   8.538   0.874   0.556
19964TIP3    H159777   8.605   0.813   0.525
19964TIP3    H259778   8.577   0.960   0.545
19965TIP3   OH259779   7.636   0.630   0.781
19965TIP3    H159780   7.685   0.676   0.713
19965TIP3    H259781   7.677   0.658   0.863
19966TIP3   OH259782   8.141   0.780   0.749
19966TIP3    H159783   8.154   0.744   0.661
19966TIP3    H259784   8.136   0.704   0.806
19967TIP3   OH259785   8.198   0.716   0.340
19967TIP3    H159786   8.117   0.763   0.362
19967TIP3    H259787   8.186   0.629   0.378
19968TIP3   OH259788   7.178   0.528   0.344
19968TIP3    H159789   7.180   0.526   0.248
19968TIP3    H259790   7.218   0.612   0.367
19969TIP3   OH259791   7.579   0.813   0.414
19969TIP3    H159792   7.640   0.762   0.467
19969TIP3    H259793   7.591   0.903   0.444
19970TIP3   OH259794   0.930   6.815   7.921
19970TIP3    H159795   1.008   6.847   7.875
19970TIP3    H259796   0.887   6.758   7.858
19971TIP3   OH259797   1.631   6.981   7.970
19971TIP3    H159798   1.623   6.886   7.960
19971TIP3    H259799   1.576   7.017   7.900
19972TIP3   OH259800   8.417   2.519   1.158
19972TIP3    H159801   8.351   2.474   1.105
19972TIP3    H259802   8.367   2.586   1.206
19973TIP3   OH259803   3.118   6.492   7.940
19973TIP3    H159804   3.083   6.580   7.926
19973TIP3    H259805   3.049   6.433   7.911
19974TIP3   OH259806   9.647   1.874   0.367
19974TIP3    H159807   9.703   1.856   0.443
19974TIP3    H259808   9.604   1.790   0.348
19975TIP3   OH259809   8.951   1.731   0.712
19975TIP3    H159810   8.989   1.678   0.782
19975TIP3    H259811   9.025   1.755   0.657
19976TIP3   OH259812   0.119   2.180   0.034
19976TIP3    H159813   0.108   2.115   0.103
19976TIP3    H259814   0.141   2.261   0.080
19977TIP3   OH259815   8.929   2.145   0.396
19977TIP3    H159816   8.918   2.050   0.396
19977TIP3    H259817   9.024   2.157   0.392
19978TIP3   OH259818   8.623   1.361   0.177
19978TIP3    H159819   8.586   1.446   0.201
19978TIP3    H259820   8.550   1.315   0.136
19979TIP3   OH259821   8.706   1.676   0.396
19979TIP3    H159822   8.755   1.598   0.423
19979TIP3    H259823   8.774   1.740   0.372
19980TIP3   OH259824   9.586   2.598   0.058
19980TIP3    H159825   9.605   2.538  -0.015
19980TIP3    H259826   9.604   2.546   0.136
19981TIP3   OH259827   9.456   2.094   0.369
19981TIP3    H159828   9.502   2.015   0.341
19981TIP3    H259829   9.526   2.154   0.396
19982TIP3   OH259830   0.696   1.407   0.384
19982TIP3    H159831   0.710   1.492   0.425
19982TIP3    H259832   0.729   1.417   0.295
19983TIP3   OH259833   0.057   1.581   0.403
19983TIP3    H159834   0.091   1.496   0.430
19983TIP3    H259835   0.023   1.566   0.314
19984TIP3   OH259836   9.219   1.238   0.363
19984TIP3    H159837   9.200   1.312   0.305
19984TIP3    H259838   9.163   1.167   0.330
19985TIP3   OH259839   3.382   5.962   8.001
19985TIP3    H159840   3.445   5.956   8.073
19985TIP3    H259841   3.433   5.997   7.928
19986TIP3   OH259842   8.844   1.457   0.494
19986TIP3    H159843   8.929   1.441   0.535
19986TIP3    H259844   8.848   1.405   0.413
19987TIP3   OH259845   9.262   1.654   0.312
19987TIP3    H159846   9.357   1.641   0.317
19987TIP3    H259847   9.228   1.572   0.276
19988TIP3   OH259848   0.743   1.625   0.554
19988TIP3    H159849   0.662   1.675   0.540
19988TIP3    H259850   0.785   1.668   0.629
19989TIP3   OH259851   9.205   1.242   0.809
19989TIP3    H159852   9.154   1.280   0.737
19989TIP3    H259853   9.152   1.258   0.887
19990TIP3   OH259854   2.970   6.701   7.838
19990TIP3    H159855   2.956   6.687   7.745
19990TIP3    H259856   2.934   6.788   7.855
19991TIP3   OH259857   9.291   2.018   0.576
19991TIP3    H159858   9.241   2.092   0.610
19991TIP3    H259859   9.342   2.055   0.504
19992TIP3   OH259860   0.272   1.366   0.224
19992TIP3    H159861   0.229   1.347   0.307
19992TIP3    H259862   0.330   1.439   0.243
19993TIP3   OH259863   9.092   1.354   0.582
19993TIP3    H159864   9.148   1.428   0.604
19993TIP3    H259865   9.138   1.310   0.511
19994TIP3   OH259866   9.144   2.226   0.682
19994TIP3    H159867   9.133   2.316   0.653
19994TIP3    H259868   9.066   2.208   0.735
19995TIP3   OH259869   1.980   6.537   7.939
19995TIP3    H159870   1.951   6.553   7.850
19995TIP3    H259871   2.010   6.623   7.970
19996TIP3   OH259872   0.151   2.429   0.175
19996TIP3    H159873   0.061   2.425   0.207
19996TIP3    H259874   0.156   2.511   0.126
19997TIP3   OH259875   0.502   1.284   0.549
19997TIP3    H159876   0.418   1.319   0.519
19997TIP3    H259877   0.565   1.316   0.484
19998TIP3   OH259878   9.545   0.936   0.545
19998TIP3    H159879   9.537   0.844   0.570
19998TIP3    H259880   9.468   0.978   0.582
19999TIP3   OH259881   3.126   7.072   7.834
19999TIP3    H159882   3.177   6.992   7.822
19999TIP3    H259883   3.185   7.142   7.807
20000TIP3   OH259884   3.277   6.854   7.786
20000TIP3    H159885   3.293   6.781   7.726
20000TIP3    H259886   3.318   6.826   7.868
20001TIP3   OH259887   0.376   2.319   0.518
20001TIP3    H159888   0.365   2.245   0.459
20001TIP3    H259889   0.365   2.396   0.462
20002TIP3   OH259890   2.945   6.333   7.787
20002TIP3    H159891   2.864   6.381   7.770
20002TIP3    H259892   2.994   6.340   7.705
20003TIP3   OH259893   2.917   6.133   7.498
20003TIP3    H159894   2.981   6.186   7.545
20003TIP3    H259895   2.970   6.070   7.449
20004TIP3   OH259896   0.568   1.975   0.399
20004TIP3    H159897   0.485   2.024   0.393
20004TIP3    H259898   0.608   1.986   0.313
20005TIP3   OH259899   3.304   6.428   7.749
20005TIP3    H159900   3.249   6.454   7.823
20005TIP3    H259901   3.388   6.404   7.789
20006TIP3   OH259902   0.266   1.834   0.702
20006TIP3    H159903   0.263   1.919   0.747
20006TIP3    H259904   0.185   1.831   0.651
20007TIP3   OH259905   9.063   1.785   0.159
20007TIP3    H159906   9.029   1.724   0.092
20007TIP3    H259907   9.138   1.739   0.197
20008TIP3   OH259908   9.197   2.203   0.303
20008TIP3    H159909   9.176   2.194   0.210
20008TIP3    H259910   9.286   2.167   0.311
20009TIP3   OH259911   9.158   1.784   0.532
20009TIP3    H159912   9.198   1.747   0.454
20009TIP3    H259913   9.206   1.865   0.548
20010TIP3   OH259914   9.703   2.427   0.295
20010TIP3    H159915   9.697   2.506   0.350
20010TIP3    H259916   9.693   2.355   0.357
20011TIP3   OH259917   9.336   2.319   0.859
20011TIP3    H159918   9.275   2.378   0.905
20011TIP3    H259919   9.281   2.270   0.798
20012TIP3   OH259920   3.140   6.283   7.582
20012TIP3    H159921   3.200   6.342   7.628
20012TIP3    H259922   3.167   6.289   7.490
20013TIP3   OH259923   9.107   1.864   0.988
20013TIP3    H159924   9.109   1.958   1.009
20013TIP3    H259925   9.014   1.842   0.986
20014TIP3   OH259926   2.872   6.964   7.848
20014TIP3    H159927   2.960   7.002   7.851
20014TIP3    H259928   2.821   7.025   7.795
20015TIP3   OH259929   9.132   2.485   0.952
20015TIP3    H159930   9.105   2.493   0.860
20015TIP3    H259931   9.054   2.454   0.997
20016TIP3   OH259932   3.633   5.516   7.633
20016TIP3    H159933   3.559   5.542   7.688
20016TIP3    H259934   3.648   5.591   7.575
20017TIP3   OH259935   2.406   6.246   7.961
20017TIP3    H159936   2.330   6.295   7.929
20017TIP3    H259937   2.374   6.157   7.973
20018TIP3   OH259938   3.476   6.893   7.197
20018TIP3    H159939   3.471   6.986   7.174
20018TIP3    H259940   3.566   6.867   7.175
20019TIP3   OH259941   8.764   1.999   0.850
20019TIP3    H159942   8.709   1.965   0.779
20019TIP3    H259943   8.803   1.921   0.890
20020TIP3   OH259944   8.626   2.214   0.517
20020TIP3    H159945   8.696   2.182   0.461
20020TIP3    H259946   8.668   2.278   0.574
20021TIP3   OH259947   0.609   2.658   0.591
20021TIP3    H159948   0.613   2.564   0.606
20021TIP3    H259949   0.527   2.686   0.632
20022TIP3   OH259950   9.533   2.456   0.725
20022TIP3    H159951   9.521   2.548   0.747
20022TIP3    H259952   9.462   2.411   0.771
20023TIP3   OH259953   2.774   7.176   7.678
20023TIP3    H159954   2.738   7.157   7.591
20023TIP3    H259955   2.738   7.262   7.700
20024TIP3   OH259956   8.751   2.410   0.036
20024TIP3    H159957   8.800   2.397   0.117
20024TIP3    H259958   8.705   2.327   0.023
20025TIP3   OH259959   2.972   7.115   7.299
20025TIP3    H159960   3.022   7.042   7.264
20025TIP3    H259961   3.009   7.130   7.386
20026TIP3   OH259962   3.028   7.159   7.568
20026TIP3    H159963   2.944   7.159   7.615
20026TIP3    H259964   3.091   7.124   7.630
20027TIP3   OH259965   0.497   1.801   0.879
20027TIP3    H159966   0.422   1.807   0.819
20027TIP3    H259967   0.523   1.709   0.876
20028TIP3   OH259968   8.933   2.221   0.856
20028TIP3    H159969   8.981   2.204   0.937
20028TIP3    H259970   8.868   2.151   0.850
20029TIP3   OH259971   9.306   1.028   0.664
20029TIP3    H159972   9.223   1.000   0.627
20029TIP3    H259973   9.286   1.109   0.710
20030TIP3   OH259974   0.051   1.152   0.868
20030TIP3    H159975   0.121   1.130   0.930
20030TIP3    H259976  -0.030   1.136   0.917
20031TIP3   OH259977   0.267   1.565   0.781
20031TIP3    H159978   0.230   1.560   0.869
20031TIP3    H259979   0.255   1.656   0.754
20032TIP3   OH259980   3.208   6.257   7.315
20032TIP3    H159981   3.155   6.276   7.238
20032TIP3    H259982   3.293   6.298   7.296
20033TIP3   OH259983   2.912   5.693   7.638
20033TIP3    H159984   2.880   5.699   7.728
20033TIP3    H259985   2.883   5.606   7.608
20034TIP3   OH259986   9.245   1.563   0.678
20034TIP3    H159987   9.202   1.569   0.763
20034TIP3    H259988   9.224   1.645   0.633
20035TIP3   OH259989   9.123   1.439   0.203
20035TIP3    H159990   9.034   1.416   0.227
20035TIP3    H259991   9.133   1.407   0.113
20036TIP3   OH259992   3.068   6.130   7.925
20036TIP3    H159993   3.021   6.203   7.884
20036TIP3    H259994   3.128   6.098   7.858
20037TIP3   OH259995  -0.005   1.780   0.993
20037TIP3    H159996  -0.031   1.713   1.057
20037TIP3    H259997   0.088   1.795   1.012
20038TIP3   OH259998   9.767   1.528   0.150
20038TIP3    H159999   9.701   1.550   0.085
20038TIP3    H260000   9.816   1.456   0.111
20039TIP3   OH260001   9.086   1.572   0.902
20039TIP3    H160002   9.107   1.633   0.972
20039TIP3    H260003   9.070   1.488   0.946
20040TIP3   OH260004   2.587   5.663   7.617
20040TIP3    H160005   2.580   5.673   7.712
20040TIP3    H260006   2.512   5.712   7.582
20041TIP3   OH260007   8.673   1.096   0.486
20041TIP3    H160008   8.740   1.136   0.541
20041TIP3    H260009   8.713   1.090   0.400
20042TIP3   OH260010   2.037   5.692   7.983
20042TIP3    H160011   2.083   5.727   7.906
20042TIP3    H260012   1.975   5.760   8.007
20043TIP3   OH260013   0.015   1.782   0.578
20043TIP3    H160014   0.037   1.716   0.514
20043TIP3    H260015  -0.031   1.734   0.647
20044TIP3   OH260016   9.488   1.224   0.249
20044TIP3    H160017   9.411   1.225   0.306
20044TIP3    H260018   9.562   1.218   0.309
20045TIP3   OH260019   8.882   1.315   0.262
20045TIP3    H160020   8.795   1.319   0.222
20045TIP3    H260021   8.914   1.227   0.243
20046TIP3   OH260022   2.602   5.936   7.958
20046TIP3    H160023   2.697   5.947   7.950
20046TIP3    H260024   2.568   5.954   7.871
20047TIP3   OH260025   0.127   1.318   0.459
20047TIP3    H160026   0.108   1.335   0.551
20047TIP3    H260027   0.059   1.257   0.431
20048TIP3   OH260028   2.492   5.954   7.709
20048TIP3    H160029   2.429   5.908   7.653
20048TIP3    H260030   2.545   6.005   7.647
20049TIP3   OH260031   0.316   3.011   0.668
20049TIP3    H160032   0.312   3.029   0.574
20049TIP3    H260033   0.398   3.051   0.697
20050TIP3   OH260034   9.091   2.130   1.082
20050TIP3    H160035   9.174   2.149   1.124
20050TIP3    H260036   9.027   2.130   1.153
20051TIP3   OH260037   9.535   1.601   0.357
20051TIP3    H160038   9.604   1.558   0.307
20051TIP3    H260039   9.537   1.559   0.442
20052TIP3   OH260040   9.024   1.069   0.239
20052TIP3    H160041   8.996   0.992   0.288
20052TIP3    H260042   9.048   1.036   0.153
20053TIP3   OH260043   9.510   1.501   0.622
20053TIP3    H160044   9.424   1.536   0.644
20053TIP3    H260045   9.571   1.554   0.674
20054TIP3   OH260046   2.708   6.471   7.735
20054TIP3    H160047   2.631   6.420   7.709
20054TIP3    H260048   2.682   6.513   7.817
20055TIP3   OH260049   0.337   2.115   0.338
20055TIP3    H160050   0.377   2.162   0.265
20055TIP3    H260051   0.259   2.075   0.300
20056TIP3   OH260052   3.169   5.793   7.632
20056TIP3    H160053   3.075   5.775   7.632
20056TIP3    H260054   3.176   5.887   7.648
20057TIP3   OH260055   9.649   2.190   0.749
20057TIP3    H160056   9.709   2.183   0.823
20057TIP3    H260057   9.616   2.280   0.754
20058TIP3   OH260058   3.235   6.053   7.712
20058TIP3    H160059   3.330   6.057   7.724
20058TIP3    H260060   3.214   6.131   7.661
20059TIP3   OH260061   8.926   1.860   0.385
20059TIP3    H160062   8.965   1.844   0.299
20059TIP3    H260063   8.994   1.835   0.447
20060TIP3   OH260064   2.866   6.635   7.582
20060TIP3    H160065   2.817   6.717   7.580
20060TIP3    H260066   2.810   6.575   7.633
20061TIP3   OH260067   8.838   1.789   1.015
20061TIP3    H160068   8.847   1.771   1.109
20061TIP3    H260069   8.763   1.736   0.988
20062TIP3   OH260070   9.563   1.931   1.036
20062TIP3    H160071   9.495   1.870   1.006
20062TIP3    H260072   9.645   1.892   1.006
20063TIP3   OH260073   9.803   2.487   0.660
20063TIP3    H160074   9.709   2.476   0.669
20063TIP3    H260075   9.830   2.531   0.741
20064TIP3   OH260076   3.645   6.149   7.534
20064TIP3    H160077   3.586   6.102   7.475
20064TIP3    H260078   3.651   6.237   7.496
20065TIP3   OH260079   0.622   2.373   0.617
20065TIP3    H160080   0.529   2.363   0.596
20065TIP3    H260081   0.667   2.356   0.535
20066TIP3   OH260082   3.383   6.962   7.454
20066TIP3    H160083   3.360   6.885   7.506
20066TIP3    H260084   3.410   6.927   7.369
20067TIP3   OH260085   0.105   1.979   0.238
20067TIP3    H160086   0.015   1.958   0.260
20067TIP3    H260087   0.141   1.898   0.200
20068TIP3   OH260088   9.073   2.214   0.052
20068TIP3    H160089   9.082   2.289  -0.006
20068TIP3    H260090   8.979   2.206   0.067
20069TIP3   OH260091   2.088   6.118   7.765
20069TIP3    H160092   2.132   6.200   7.787
20069TIP3    H260093   2.008   6.119   7.817
20070TIP3   OH260094   2.603   6.583   7.957
20070TIP3    H160095   2.599   6.673   7.988
20070TIP3    H260096   2.580   6.530   8.033
20071TIP3   OH260097   9.350   2.531   0.511
20071TIP3    H160098   9.382   2.606   0.460
20071TIP3    H260099   9.429   2.496   0.553
20072TIP3   OH260100   2.454   7.055   7.901
20072TIP3    H160101   2.366   7.061   7.938
20072TIP3    H260102   2.487   7.145   7.905
20073TIP3   OH260103   9.690   2.207   0.474
20073TIP3    H160104   9.678   2.198   0.568
20073TIP3    H260105   9.770   2.157   0.455
20074TIP3   OH260106   3.158   6.700   7.363
20074TIP3    H160107   3.195   6.684   7.449
20074TIP3    H260108   3.071   6.659   7.366
20075TIP3   OH260109   0.146   2.698   0.512
20075TIP3    H160110   0.071   2.639   0.526
20075TIP3    H260111   0.119   2.754   0.439
20076TIP3   OH260112   3.474   7.168   7.162
20076TIP3    H160113   3.514   7.238   7.112
20076TIP3    H260114   3.398   7.208   7.204
20077TIP3   OH260115   9.040   1.315   1.018
20077TIP3    H160116   8.945   1.322   1.026
20077TIP3    H260117   9.069   1.277   1.101
20078TIP3   OH260118   3.329   6.652   7.587
20078TIP3    H160119   3.312   6.575   7.641
20078TIP3    H260120   3.422   6.645   7.564
20079TIP3   OH260121   8.792   2.410   0.640
20079TIP3    H160122   8.824   2.351   0.709
20079TIP3    H260123   8.821   2.497   0.667
20080TIP3   OH260124   2.498   6.668   7.376
20080TIP3    H160125   2.517   6.578   7.348
20080TIP3    H260126   2.488   6.662   7.471
20081TIP3   OH260127   2.446   6.680   7.649
20081TIP3    H160128   2.516   6.657   7.711
20081TIP3    H260129   2.446   6.776   7.649
20082TIP3   OH260130   2.182   6.367   7.850
20082TIP3    H160131   2.116   6.415   7.900
20082TIP3    H260132   2.204   6.425   7.777
20083TIP3   OH260133   0.070   1.382   0.720
20083TIP3    H160134   0.150   1.427   0.747
20083TIP3    H260135   0.066   1.304   0.776
20084TIP3   OH260136   3.230   5.748   7.906
20084TIP3    H160137   3.212   5.767   7.814
20084TIP3    H260138   3.275   5.826   7.939
20085TIP3   OH260139   2.716   6.859   7.575
20085TIP3    H160140   2.631   6.888   7.610
20085TIP3    H260141   2.745   6.931   7.519
20086TIP3   OH260142   9.414   1.323  -0.001
20086TIP3    H160143   9.476   1.390  -0.029
20086TIP3    H260144   9.440   1.302   0.089
20087TIP3   OH260145   9.713   1.615   0.774
20087TIP3    H160146   9.742   1.660   0.853
20087TIP3    H260147   9.764   1.534   0.771
20088TIP3   OH260148   9.583   1.016   0.083
20088TIP3    H160149   9.560   1.093   0.135
20088TIP3    H260150   9.652   1.047   0.024
20089TIP3   OH260151   2.466   6.953   7.648
20089TIP3    H160152   2.447   7.025   7.589
20089TIP3    H260153   2.462   6.992   7.735
20090TIP3   OH260154   2.560   5.664   7.898
20090TIP3    H160155   2.549   5.755   7.924
20090TIP3    H260156   2.654   5.648   7.904
20091TIP3   OH260157   0.539   1.541   0.777
20091TIP3    H160158   0.444   1.530   0.776
20091TIP3    H260159   0.566   1.526   0.686
20092TIP3   OH260160   0.197   1.720   0.152
20092TIP3    H160161   0.121   1.663   0.164
20092TIP3    H260162   0.265   1.681   0.207
20093TIP3   OH260163   2.206   6.544   7.634
20093TIP3    H160164   2.277   6.607   7.645
20093TIP3    H260165   2.238   6.483   7.568
20094TIP3   OH260166   2.107   5.839   7.763
20094TIP3    H160167   2.123   5.933   7.773
20094TIP3    H260168   2.060   5.832   7.680
20095TIP3   OH260169   0.182   2.693   0.089
20095TIP3    H160170   0.137   2.744   0.021
20095TIP3    H260171   0.275   2.714   0.078
20096TIP3   OH260172   9.042   0.956   0.611
20096TIP3    H160173   9.012   0.925   0.526
20096TIP3    H260174   9.036   0.880   0.668
20097TIP3   OH260175   8.582   2.180   0.006
20097TIP3    H160176   8.546   2.219   0.086
20097TIP3    H260177   8.534   2.223  -0.065
20098TIP3   OH260178   8.864   2.691   1.090
20098TIP3    H160179   8.906   2.710   1.175
20098TIP3    H260180   8.869   2.595   1.082
20099TIP3   OH260181   9.215   2.687   1.124
20099TIP3    H160182   9.307   2.667   1.144
20099TIP3    H260183   9.189   2.620   1.062
20100TIP3   OH260184   2.644   6.879   7.272
20100TIP3    H160185   2.600   6.804   7.313
20100TIP3    H260186   2.720   6.842   7.228
20101TIP3   OH260187   0.083   2.595   0.907
20101TIP3    H160188   0.078   2.521   0.968
20101TIP3    H260189   0.166   2.637   0.927
20102TIP3   OH260190   3.102   6.904   7.184
20102TIP3    H160191   3.137   6.839   7.244
20102TIP3    H260192   3.155   6.896   7.105
20103TIP3   OH260193   8.909   2.096   1.288
20103TIP3    H160194   8.938   2.006   1.302
20103TIP3    H260195   8.831   2.088   1.234
20104TIP3   OH260196   2.322   6.351   7.479
20104TIP3    H160197   2.371   6.326   7.557
20104TIP3    H260198   2.389   6.369   7.413
20105TIP3   OH260199   9.500   2.205   1.050
20105TIP3    H160200   9.454   2.228   0.970
20105TIP3    H260201   9.534   2.117   1.034
20106TIP3   OH260202   2.897   6.588   7.314
20106TIP3    H160203   2.875   6.600   7.407
20106TIP3    H260204   2.876   6.496   7.297
20107TIP3   OH260205   0.164   2.260   0.682
20107TIP3    H160206   0.238   2.282   0.626
20107TIP3    H260207   0.102   2.332   0.669
20108TIP3   OH260208   9.016   1.840   1.278
20108TIP3    H160209   9.093   1.819   1.225
20108TIP3    H260210   9.051   1.859   1.365
20109TIP3   OH260211   2.494   6.296   7.692
20109TIP3    H160212   2.480   6.267   7.782
20109TIP3    H260213   2.547   6.227   7.652
20110TIP3   OH260214   9.357   1.755   0.938
20110TIP3    H160215   9.273   1.798   0.950
20110TIP3    H260216   9.390   1.786   0.854
20111TIP3   OH260217   2.643   6.114   7.545
20111TIP3    H160218   2.615   6.122   7.454
20111TIP3    H260219   2.738   6.120   7.541
20112TIP3   OH260220   0.051   2.132   1.022
20112TIP3    H160221   0.124   2.101   0.967
20112TIP3    H260222   0.053   2.075   1.099
20113TIP3   OH260223   3.428   6.386   7.206
20113TIP3    H160224   3.410   6.353   7.118
20113TIP3    H260225   3.409   6.480   7.200
20114TIP3   OH260226   9.455   1.527   1.052
20114TIP3    H160227   9.459   1.456   0.988
20114TIP3    H260228   9.423   1.602   1.003
20115TIP3   OH260229   9.463   1.330   0.848
20115TIP3    H160230   9.491   1.370   0.765
20115TIP3    H260231   9.372   1.304   0.832
20116TIP3   OH260232   9.469   1.864   0.718
20116TIP3    H160233   9.556   1.903   0.707
20116TIP3    H260234   9.410   1.921   0.668
20117TIP3   OH260235   0.264   1.805   1.091
20117TIP3    H160236   0.298   1.717   1.107
20117TIP3    H260237   0.340   1.853   1.057
20118TIP3   OH260238   0.289   2.080   0.841
20118TIP3    H160239   0.237   2.142   0.790
20118TIP3    H260240   0.379   2.094   0.811
20119TIP3   OH260241   9.338   1.630   1.289
20119TIP3    H160242   9.271   1.566   1.312
20119TIP3    H260243   9.371   1.600   1.204
20120TIP3   OH260244   9.584   1.099   0.942
20120TIP3    H160245   9.545   1.181   0.911
20120TIP3    H260246   9.515   1.033   0.929
20121TIP3   OH260247   9.711   1.574   1.152
20121TIP3    H160248   9.700   1.565   1.247
20121TIP3    H260249   9.625   1.551   1.116
20122TIP3   OH260250   0.153   1.519   1.022
20122TIP3    H160251   0.076   1.523   1.077
20122TIP3    H260252   0.225   1.496   1.082
20123TIP3   OH260253   0.386   1.489   1.172
20123TIP3    H160254   0.403   1.395   1.181
20123TIP3    H260255   0.384   1.521   1.262
20124TIP3   OH260256   9.186   1.400   1.337
20124TIP3    H160257   9.193   1.312   1.300
20124TIP3    H260258   9.227   1.393   1.423
20125TIP3   OH260259   9.661   1.079   1.200
20125TIP3    H160260   9.731   1.013   1.194
20125TIP3    H260261   9.629   1.087   1.110
20126TIP3   OH260262   9.745   1.301   1.342
20126TIP3    H160263   9.715   1.230   1.284
20126TIP3    H260264   9.672   1.363   1.343
20127TIP3   OH260265   2.461   7.168   7.473
20127TIP3    H160266   2.553   7.151   7.452
20127TIP3    H260267   2.426   7.210   7.394
20128TIP3   OH260268   1.934   6.535   7.656
20128TIP3    H160269   2.028   6.551   7.648
20128TIP3    H260270   1.919   6.452   7.611
20129TIP3   OH260271   8.392   2.492   0.067
20129TIP3    H160272   8.314   2.456   0.026
20129TIP3    H260273   8.426   2.422   0.122
20130TIP3   OH260274   8.527   2.315   0.240
20130TIP3    H160275   8.493   2.271   0.318
20130TIP3    H260276   8.586   2.382   0.275
20131TIP3   OH260277   0.441   2.779   0.072
20131TIP3    H160278   0.482   2.794   0.158
20131TIP3    H260279   0.513   2.786   0.010
20132TIP3   OH260280   0.467   2.781   0.365
20132TIP3    H160281   0.425   2.696   0.352
20132TIP3    H260282   0.540   2.762   0.423
20133TIP3   OH260283   0.505   2.476   0.943
20133TIP3    H160284   0.425   2.506   0.899
20133TIP3    H260285   0.557   2.555   0.956
20134TIP3   OH260286   3.602   6.607   7.548
20134TIP3    H160287   3.658   6.677   7.513
20134TIP3    H260288   3.652   6.569   7.619
20135TIP3   OH260289   3.741   6.469   7.746
20135TIP3    H160290   3.674   6.436   7.805
20135TIP3    H260291   3.808   6.507   7.804
20136TIP3   OH260292   0.527   2.247   0.179
20136TIP3    H160293   0.577   2.174   0.142
20136TIP3    H260294   0.543   2.320   0.119
20137TIP3   OH260295   0.324   2.540   0.366
20137TIP3    H160296   0.256   2.588   0.412
20137TIP3    H260297   0.278   2.501   0.291
20138TIP3   OH260298   3.637   6.383   7.389
20138TIP3    H160299   3.566   6.381   7.324
20138TIP3    H260300   3.619   6.463   7.440
20139TIP3   OH260301   3.484   6.027   7.349
20139TIP3    H160302   3.441   6.067   7.273
20139TIP3    H260303   3.486   5.933   7.330
20140TIP3   OH260304   3.532   6.336   7.884
20140TIP3    H160305   3.541   6.242   7.872
20140TIP3    H260306   3.514   6.346   7.977
20141TIP3   OH260307   8.695   1.786   0.646
20141TIP3    H160308   8.683   1.748   0.559
20141TIP3    H260309   8.788   1.772   0.665
20142TIP3   OH260310   0.548   2.130   0.754
20142TIP3    H160311   0.610   2.059   0.735
20142TIP3    H260312   0.576   2.201   0.696
20143TIP3   OH260313   0.712   1.910   0.740
20143TIP3    H160314   0.642   1.870   0.792
20143TIP3    H260315   0.789   1.855   0.759
20144TIP3   OH260316   3.460   5.754   7.294
20144TIP3    H160317   3.524   5.733   7.362
20144TIP3    H260318   3.377   5.719   7.327
20145TIP3   OH260319   3.523   6.053   7.772
20145TIP3    H160320   3.571   5.971   7.784
20145TIP3    H260321   3.564   6.094   7.696
20146TIP3   OH260322   0.412   1.599   0.294
20146TIP3    H160323   0.491   1.618   0.244
20146TIP3    H260324   0.427   1.638   0.380
20147TIP3   OH260325   0.486   1.745   0.526
20147TIP3    H160326   0.412   1.775   0.580
20147TIP3    H260327   0.517   1.825   0.483
20148TIP3   OH260328   8.922   1.438   1.286
20148TIP3    H160329   9.015   1.440   1.309
20148TIP3    H260330   8.889   1.359   1.330
20149TIP3   OH260331   0.948   1.344   1.058
20149TIP3    H160332   1.013   1.288   1.014
20149TIP3    H260333   0.910   1.395   0.987
20150TIP3   OH260334   3.643   5.807   7.822
20150TIP3    H160335   3.688   5.792   7.905
20150TIP3    H260336   3.581   5.734   7.815
20151TIP3   OH260337   8.880   1.175   0.655
20151TIP3    H160338   8.933   1.096   0.651
20151TIP3    H260339   8.941   1.246   0.635
20152TIP3   OH260340   8.660   1.424   0.706
20152TIP3    H160341   8.715   1.425   0.628
20152TIP3    H260342   8.689   1.499   0.758
20153TIP3   OH260343   0.795   1.464   0.869
20153TIP3    H160344   0.715   1.508   0.897
20153TIP3    H260345   0.765   1.392   0.813
20154TIP3   OH260346   3.681   5.720   7.455
20154TIP3    H160347   3.733   5.657   7.406
20154TIP3    H260348   3.737   5.797   7.462
20155TIP3   OH260349   8.648   0.935   0.204
20155TIP3    H160350   8.564   0.926   0.249
20155TIP3    H260351   8.629   0.991   0.130
20156TIP3   OH260352   3.265   7.279   7.731
20156TIP3    H160353   3.321   7.267   7.655
20156TIP3    H260354   3.310   7.345   7.784
20157TIP3   OH260355   8.870   0.987   1.008
20157TIP3    H160356   8.825   0.989   1.093
20157TIP3    H260357   8.817   1.044   0.952
20158TIP3   OH260358   8.938   2.428   1.155
20158TIP3    H160359   8.856   2.392   1.189
20158TIP3    H260360   8.996   2.432   1.231
20159TIP3   OH260361   9.126   2.501   0.665
20159TIP3    H160362   9.074   2.571   0.626
20159TIP3    H260363   9.211   2.508   0.622
20160TIP3   OH260364   9.521   2.723   0.791
20160TIP3    H160365   9.561   2.717   0.878
20160TIP3    H260366   9.583   2.775   0.740
20161TIP3   OH260367   9.709   2.878   0.665
20161TIP3    H160368   9.772   2.834   0.608
20161TIP3    H260369   9.763   2.932   0.723
20162TIP3   OH260370   0.702   1.227   0.753
20162TIP3    H160371   0.624   1.232   0.697
20162TIP3    H260372   0.732   1.136   0.745
20163TIP3   OH260373   8.844   2.680   0.693
20163TIP3    H160374   8.749   2.681   0.689
20163TIP3    H260375   8.866   2.742   0.762
20164TIP3   OH260376   9.042   2.721   0.512
20164TIP3    H160377   8.961   2.716   0.563
20164TIP3    H260378   9.013   2.744   0.424
20165TIP3   OH260379   9.421   2.743   0.348
20165TIP3    H160380   9.359   2.752   0.276
20165TIP3    H260381   9.434   2.832   0.381
20166TIP3   OH260382   9.683   2.681   0.400
20166TIP3    H160383   9.591   2.700   0.379
20166TIP3    H260384   9.733   2.745   0.349
20167TIP3   OH260385   0.077   2.849   0.290
20167TIP3    H160386   0.083   2.938   0.255
20167TIP3    H260387   0.112   2.794   0.220
20168TIP3   OH260388   8.704   2.512   0.388
20168TIP3    H160389   8.725   2.494   0.480
20168TIP3    H260390   8.778   2.476   0.339
20169TIP3   OH260391   8.905   2.385   0.262
20169TIP3    H160392   8.915   2.303   0.311
20169TIP3    H260393   8.991   2.427   0.268
20170TIP3   OH260394   9.165   2.483   0.302
20170TIP3    H160395   9.188   2.391   0.293
20170TIP3    H260396   9.214   2.513   0.379
20171TIP3   OH260397   9.714   1.136   0.390
20171TIP3    H160398   9.676   1.065   0.441
20171TIP3    H260399   9.782   1.094   0.337
20172TIP3   OH260400   0.418   1.045   0.277
20172TIP3    H160401   0.462   1.092   0.207
20172TIP3    H260402   0.332   1.088   0.285
20173TIP3   OH260403   0.529   1.133   0.045
20173TIP3    H160404   0.594   1.072   0.010
20173TIP3    H260405   0.570   1.219   0.034
20174TIP3   OH260406   8.952   0.840   0.378
20174TIP3    H160407   8.863   0.806   0.387
20174TIP3    H260408   9.007   0.762   0.374
20175TIP3   OH260409   8.780   0.745   0.041
20175TIP3    H160410   8.806   0.795  -0.037
20175TIP3    H260411   8.742   0.811   0.099
20176TIP3   OH260412   9.442   0.876   0.284
20176TIP3    H160413   9.488   0.923   0.215
20176TIP3    H260414   9.482   0.907   0.365
20177TIP3   OH260415   0.121   1.010   0.260
20177TIP3    H160416   0.159   0.980   0.177
20177TIP3    H260417   0.132   0.936   0.320
20178TIP3   OH260418   3.453   5.600   7.825
20178TIP3    H160419   3.374   5.647   7.850
20178TIP3    H260420   3.442   5.513   7.862
20179TIP3   OH260421   1.917   6.922   7.801
20179TIP3    H160422   1.833   6.894   7.764
20179TIP3    H260423   1.931   7.010   7.767
20180TIP3   OH260424   2.352   5.495   7.805
20180TIP3    H160425   2.399   5.436   7.746
20180TIP3    H260426   2.420   5.552   7.841
20181TIP3   OH260427   2.835   5.690   7.905
20181TIP3    H160428   2.897   5.639   7.957
20181TIP3    H260429   2.849   5.781   7.932
20182TIP3   OH260430   2.720   7.098   7.412
20182TIP3    H160431   2.804   7.121   7.371
20182TIP3    H260432   2.685   7.029   7.356
20183TIP3   OH260433   3.417   7.229   7.504
20183TIP3    H160434   3.412   7.134   7.493
20183TIP3    H260435   3.380   7.265   7.423
20184TIP3   OH260436   9.191   1.133   1.252
20184TIP3    H160437   9.149   1.075   1.315
20184TIP3    H260438   9.284   1.133   1.277
20185TIP3   OH260439   9.446   1.106   1.366
20185TIP3    H160440   9.519   1.107   1.305
20185TIP3    H260441   9.465   1.033   1.425
20186TIP3   OH260442   2.026   6.936   7.448
20186TIP3    H160443   2.027   6.958   7.541
20186TIP3    H260444   2.107   6.888   7.433
20187TIP3   OH260445   0.456   1.219   1.182
20187TIP3    H160446   0.475   1.192   1.271
20187TIP3    H260447   0.540   1.214   1.136
20188TIP3   OH260448   0.356   2.740   0.684
20188TIP3    H160449   0.287   2.711   0.625
20188TIP3    H260450   0.354   2.835   0.678
20189TIP3   OH260451   4.919   6.765   7.419
20189TIP3    H160452   4.886   6.851   7.392
20189TIP3    H260453   4.848   6.705   7.397
20190TIP3   OH260454   4.917   6.741   7.848
20190TIP3    H160455   4.969   6.730   7.927
20190TIP3    H260456   4.872   6.658   7.836
20191TIP3   OH260457   0.945   1.994   0.201
20191TIP3    H160458   0.985   1.938   0.269
20191TIP3    H260459   1.017   2.019   0.145
20192TIP3   OH260460   5.189   7.056   7.525
20192TIP3    H160461   5.173   6.991   7.594
20192TIP3    H260462   5.211   7.136   7.572
20193TIP3   OH260463   4.150   6.992   7.934
20193TIP3    H160464   4.150   6.899   7.910
20193TIP3    H260465   4.239   7.022   7.913
20194TIP3   OH260466   3.885   6.238   7.669
20194TIP3    H160467   3.851   6.324   7.692
20194TIP3    H260468   3.811   6.193   7.628
20195TIP3   OH260469   3.965   6.549   7.895
20195TIP3    H160470   4.015   6.471   7.918
20195TIP3    H260471   4.031   6.614   7.871
20196TIP3   OH260472   4.858   7.511   7.550
20196TIP3    H160473   4.890   7.431   7.509
20196TIP3    H260474   4.881   7.502   7.642
20197TIP3   OH260475   4.717   6.954   7.872
20197TIP3    H160476   4.765   6.879   7.837
20197TIP3    H260477   4.785   7.014   7.902
20198TIP3   OH260478   5.758   6.287   7.871
20198TIP3    H160479   5.769   6.374   7.910
20198TIP3    H260480   5.782   6.299   7.779
20199TIP3   OH260481   5.125   6.453   7.892
20199TIP3    H160482   5.159   6.367   7.918
20199TIP3    H260483   5.089   6.438   7.804
20200TIP3   OH260484   4.482   6.112   7.852
20200TIP3    H160485   4.462   6.185   7.794
20200TIP3    H260486   4.426   6.041   7.821
20201TIP3   OH260487   5.178   6.218   7.487
20201TIP3    H160488   5.242   6.212   7.559
20201TIP3    H260489   5.228   6.253   7.413
20202TIP3   OH260490   4.104   6.325   7.983
20202TIP3    H160491   4.188   6.310   8.025
20202TIP3    H260492   4.109   6.276   7.900
20203TIP3   OH260493   4.525   6.531   7.796
20203TIP3    H160494   4.619   6.516   7.803
20203TIP3    H260495   4.490   6.449   7.763
20204TIP3   OH260496   2.537   1.890   0.033
20204TIP3    H160497   2.450   1.928   0.025
20204TIP3    H260498   2.574   1.929   0.112
20205TIP3   OH260499   1.197   1.500   0.300
20205TIP3    H160500   1.148   1.537   0.227
20205TIP3    H260501   1.142   1.516   0.377
20206TIP3   OH260502   4.819   6.982   7.271
20206TIP3    H160503   4.776   6.941   7.196
20206TIP3    H260504   4.774   7.066   7.282
20207TIP3   OH260505   1.291   2.267   0.085
20207TIP3    H160506   1.237   2.341   0.112
20207TIP3    H260507   1.341   2.300   0.010
20208TIP3   OH260508   5.335   6.241   7.710
20208TIP3    H160509   5.295   6.217   7.793
20208TIP3    H260510   5.391   6.315   7.731
20209TIP3   OH260511   1.086   1.605   0.070
20209TIP3    H160512   1.139   1.682   0.091
20209TIP3    H260513   1.133   1.562  -0.002
20210TIP3   OH260514   1.141   2.480   0.178
20210TIP3    H160515   1.129   2.567   0.139
20210TIP3    H260516   1.062   2.466   0.229
20211TIP3   OH260517   3.769   6.793   7.428
20211TIP3    H160518   3.743   6.815   7.338
20211TIP3    H260519   3.790   6.878   7.468
20212TIP3   OH260520   5.231   7.305   7.664
20212TIP3    H160521   5.146   7.286   7.704
20212TIP3    H260522   5.221   7.392   7.626
20213TIP3   OH260523   2.295   1.552   0.039
20213TIP3    H160524   2.208   1.572   0.003
20213TIP3    H260525   2.356   1.581  -0.029
20214TIP3   OH260526   1.538   1.189   0.034
20214TIP3    H160527   1.532   1.097   0.060
20214TIP3    H260528   1.460   1.229   0.072
20215TIP3   OH260529   4.948   7.321   7.369
20215TIP3    H160530   5.000   7.243   7.349
20215TIP3    H260531   4.992   7.391   7.320
20216TIP3   OH260532   5.077   7.098   7.277
20216TIP3    H160533   5.005   7.037   7.272
20216TIP3    H260534   5.126   7.072   7.355
20217TIP3   OH260535   5.460   7.178   8.011
20217TIP3    H160536   5.439   7.112   7.945
20217TIP3    H260537   5.434   7.261   7.971
20218TIP3   OH260538   4.746   6.594   7.283
20218TIP3    H160539   4.660   6.634   7.268
20218TIP3    H260540   4.787   6.593   7.197
20219TIP3   OH260541   4.708   6.405   6.967
20219TIP3    H160542   4.774   6.453   7.016
20219TIP3    H260543   4.757   6.337   6.922
20220TIP3   OH260544   5.619   6.846   7.878
20220TIP3    H160545   5.535   6.892   7.871
20220TIP3    H260546   5.663   6.863   7.795
20221TIP3   OH260547   5.102   6.682   7.235
20221TIP3    H160548   5.049   6.714   7.307
20221TIP3    H260549   5.186   6.659   7.275
20222TIP3   OH260550   2.061   2.088   0.186
20222TIP3    H160551   2.056   2.172   0.232
20222TIP3    H260552   1.981   2.084   0.134
20223TIP3   OH260553   4.330   6.665   7.636
20223TIP3    H160554   4.296   6.602   7.573
20223TIP3    H260555   4.403   6.620   7.679
20224TIP3   OH260556   4.424   7.014   7.817
20224TIP3    H160557   4.415   7.047   7.728
20224TIP3    H260558   4.519   7.006   7.830
20225TIP3   OH260559   4.420   6.660   8.019
20225TIP3    H160560   4.460   6.628   7.938
20225TIP3    H260561   4.467   6.741   8.038
20226TIP3   OH260562   4.997   7.264   7.791
20226TIP3    H160563   4.960   7.348   7.815
20226TIP3    H260564   4.970   7.204   7.860
20227TIP3   OH260565   1.330   2.586   0.353
20227TIP3    H160566   1.267   2.644   0.394
20227TIP3    H260567   1.279   2.537   0.288
20228TIP3   OH260568   4.930   6.544   7.069
20228TIP3    H160569   4.991   6.601   7.116
20228TIP3    H260570   4.960   6.547   6.978
20229TIP3   OH260571   1.090   2.126   0.500
20229TIP3    H160572   1.091   2.221   0.512
20229TIP3    H260573   0.998   2.105   0.483
20230TIP3   OH260574   4.699   7.244   7.288
20230TIP3    H160575   4.781   7.272   7.329
20230TIP3    H260576   4.633   7.256   7.357
20231TIP3   OH260577   1.113   2.743   0.429
20231TIP3    H160578   1.098   2.752   0.335
20231TIP3    H260579   1.025   2.735   0.466
20232TIP3   OH260580   5.447   5.770   7.136
20232TIP3    H160581   5.371   5.792   7.190
20232TIP3    H260582   5.457   5.845   7.077
20233TIP3   OH260583   4.204   6.502   7.440
20233TIP3    H160584   4.126   6.552   7.414
20233TIP3    H260585   4.170   6.414   7.458
20234TIP3   OH260586   5.271   7.151   6.687
20234TIP3    H160587   5.266   7.244   6.666
20234TIP3    H260588   5.360   7.126   6.664
20235TIP3   OH260589   0.722   2.294   0.379
20235TIP3    H160590   0.657   2.277   0.310
20235TIP3    H260591   0.758   2.208   0.400
20236TIP3   OH260592   0.633   2.453   0.020
20236TIP3    H160593   0.716   2.425  -0.017
20236TIP3    H260594   0.654   2.531   0.072
20237TIP3   OH260595   2.411   2.950   0.076
20237TIP3    H160596   2.417   2.854   0.085
20237TIP3    H260597   2.330   2.973   0.122
20238TIP3   OH260598   1.548   2.695   0.218
20238TIP3    H160599   1.557   2.790   0.224
20238TIP3    H260600   1.467   2.676   0.266
20239TIP3   OH260601   4.012   7.316   7.517
20239TIP3    H160602   4.067   7.354   7.586
20239TIP3    H260603   3.986   7.231   7.553
20240TIP3   OH260604   4.752   7.378   6.806
20240TIP3    H160605   4.803   7.306   6.769
20240TIP3    H260606   4.781   7.383   6.898
20241TIP3   OH260607   4.823   7.407   7.075
20241TIP3    H160608   4.774   7.348   7.133
20241TIP3    H260609   4.903   7.426   7.124
20242TIP3   OH260610   2.297   2.046   0.350
20242TIP3    H160611   2.216   2.058   0.301
20242TIP3    H260612   2.318   1.953   0.338
20243TIP3   OH260613   0.924   2.479   0.349
20243TIP3    H160614   0.976   2.463   0.428
20243TIP3    H260615   0.851   2.418   0.354
20244TIP3   OH260616   1.297   1.279   0.157
20244TIP3    H160617   1.213   1.246   0.126
20244TIP3    H260618   1.275   1.361   0.201
20245TIP3   OH260619   1.842   1.407   0.359
20245TIP3    H160620   1.911   1.382   0.420
20245TIP3    H260621   1.761   1.391   0.407
20246TIP3   OH260622   2.062   1.822   0.273
20246TIP3    H160623   2.023   1.819   0.361
20246TIP3    H260624   2.047   1.912   0.243
20247TIP3   OH260625   5.008   6.514   6.804
20247TIP3    H160626   4.965   6.521   6.719
20247TIP3    H260627   5.090   6.561   6.794
20248TIP3   OH260628   4.713   5.949   7.128
20248TIP3    H160629   4.677   5.954   7.217
20248TIP3    H260630   4.682   5.865   7.095
20249TIP3   OH260631   1.237   1.818   0.159
20249TIP3    H160632   1.198   1.828   0.246
20249TIP3    H260633   1.214   1.898   0.112
20250TIP3   OH260634   4.387   6.312   7.691
20250TIP3    H160635   4.297   6.290   7.715
20250TIP3    H260636   4.395   6.281   7.601
20251TIP3   OH260637   4.864   6.387   7.417
20251TIP3    H160638   4.819   6.462   7.378
20251TIP3    H260639   4.923   6.356   7.348
20252TIP3   OH260640   1.790   2.036   0.487
20252TIP3    H160641   1.762   1.968   0.548
20252TIP3    H260642   1.883   2.049   0.507
20253TIP3   OH260643   5.031   6.401   7.641
20253TIP3    H160644   4.962   6.422   7.577
20253TIP3    H260645   5.080   6.329   7.601
20254TIP3   OH260646   1.074   1.827   0.385
20254TIP3    H160647   1.122   1.883   0.446
20254TIP3    H260648   1.058   1.746   0.434
20255TIP3   OH260649   4.383   5.920   7.106
20255TIP3    H160650   4.374   5.927   7.201
20255TIP3    H260651   4.307   5.967   7.071
20256TIP3   OH260652   3.934   5.973   7.976
20256TIP3    H160653   4.004   6.008   8.029
20256TIP3    H260654   3.973   5.961   7.889
20257TIP3   OH260655   3.833   5.953   7.470
20257TIP3    H160656   3.877   5.988   7.392
20257TIP3    H260657   3.771   6.022   7.495
20258TIP3   OH260658   1.815   2.035   0.064
20258TIP3    H160659   1.836   1.968  -0.000
20258TIP3    H260660   1.766   1.989   0.132
20259TIP3   OH260661   4.751   6.100   7.740
20259TIP3    H160662   4.673   6.101   7.797
20259TIP3    H260663   4.825   6.093   7.801
20260TIP3   OH260664   4.146   6.187   7.750
20260TIP3    H160665   4.059   6.192   7.711
20260TIP3    H260666   4.175   6.098   7.734
20261TIP3   OH260667   4.398   6.191   7.444
20261TIP3    H160668   4.493   6.202   7.435
20261TIP3    H260669   4.364   6.209   7.356
20262TIP3   OH260670   5.196   6.191   7.950
20262TIP3    H160671   5.176   6.209   8.041
20262TIP3    H260672   5.128   6.130   7.922
20263TIP3   OH260673   4.290   6.213   7.192
20263TIP3    H160674   4.227   6.165   7.139
20263TIP3    H260675   4.343   6.262   7.129
20264TIP3   OH260676   2.088   3.257   0.147
20264TIP3    H160677   2.077   3.270   0.053
20264TIP3    H260678   2.173   3.295   0.167
20265TIP3   OH260679   1.068   2.392   0.585
20265TIP3    H160680   1.149   2.415   0.630
20265TIP3    H260681   1.000   2.402   0.652
20266TIP3   OH260682   4.798   6.475   7.847
20266TIP3    H160683   4.866   6.428   7.798
20266TIP3    H260684   4.797   6.432   7.933
20267TIP3   OH260685   4.287   5.937   7.739
20267TIP3    H160686   4.261   5.860   7.789
20267TIP3    H260687   4.310   5.903   7.652
20268TIP3   OH260688   1.504   1.757   0.110
20268TIP3    H160689   1.417   1.790   0.131
20268TIP3    H260690   1.564   1.810   0.163
20269TIP3   OH260691   4.505   6.722   7.241
20269TIP3    H160692   4.428   6.674   7.209
20269TIP3    H260693   4.472   6.772   7.316
20270TIP3   OH260694   5.392   6.990   7.825
20270TIP3    H160695   5.427   7.039   7.750
20270TIP3    H260696   5.312   6.949   7.792
20271TIP3   OH260697   4.968   6.049   7.134
20271TIP3    H160698   4.875   6.030   7.128
20271TIP3    H260699   4.973   6.144   7.145
20272TIP3   OH260700   1.642   2.434   0.257
20272TIP3    H160701   1.699   2.437   0.334
20272TIP3    H260702   1.608   2.523   0.248
20273TIP3   OH260703   5.029   6.314   7.200
20273TIP3    H160704   5.124   6.319   7.210
20273TIP3    H260705   5.007   6.392   7.148
20274TIP3   OH260706   4.185   6.719   7.868
20274TIP3    H160707   4.225   6.716   7.782
20274TIP3    H260708   4.257   6.703   7.929
20275TIP3   OH260709   4.645   6.884   7.073
20275TIP3    H160710   4.589   6.962   7.070
20275TIP3    H260711   4.597   6.822   7.127
20276TIP3   OH260712   0.812   2.065   0.515
20276TIP3    H160713   0.823   2.041   0.607
20276TIP3    H260714   0.737   2.013   0.486
20277TIP3   OH260715   1.568   2.202   0.519
20277TIP3    H160716   1.515   2.183   0.441
20277TIP3    H260717   1.650   2.155   0.504
20278TIP3   OH260718   1.811   2.694   0.125
20278TIP3    H160719   1.716   2.699   0.136
20278TIP3    H260720   1.846   2.750   0.194
20279TIP3   OH260721   5.442   6.404   7.017
20279TIP3    H160722   5.384   6.358   6.956
20279TIP3    H260723   5.450   6.492   6.982
20280TIP3   OH260724   2.432   2.677   0.083
20280TIP3    H160725   2.342   2.645   0.091
20280TIP3    H260726   2.464   2.640   0.001
20281TIP3   OH260727   5.185   7.218   6.952
20281TIP3    H160728   5.159   7.149   7.013
20281TIP3    H260729   5.204   7.173   6.871
20282TIP3   OH260730   5.168   6.853   7.724
20282TIP3    H160731   5.078   6.833   7.752
20282TIP3    H260732   5.199   6.770   7.686
20283TIP3   OH260733   4.329   7.115   7.556
20283TIP3    H160734   4.318   7.172   7.480
20283TIP3    H260735   4.276   7.156   7.624
20284TIP3   OH260736   3.880   6.376   7.255
20284TIP3    H160737   3.922   6.459   7.277
20284TIP3    H260738   3.798   6.378   7.304
20285TIP3   OH260739   4.384   6.863   7.443
20285TIP3    H160740   4.370   6.950   7.480
20285TIP3    H260741   4.365   6.803   7.515
20286TIP3   OH260742   1.345   2.781   0.025
20286TIP3    H160743   1.358   2.849  -0.041
20286TIP3    H260744   1.432   2.764   0.060
20287TIP3   OH260745   4.250   7.307   7.369
20287TIP3    H160746   4.159   7.304   7.399
20287TIP3    H260747   4.269   7.400   7.359
20288TIP3   OH260748   1.685   2.440  -0.019
20288TIP3    H160749   1.667   2.437   0.075
20288TIP3    H260750   1.777   2.415  -0.027
20289TIP3   OH260751   4.951   6.963   6.833
20289TIP3    H160752   5.001   6.929   6.908
20289TIP3    H260753   4.869   6.915   6.836
20290TIP3   OH260754   1.925   2.967   0.017
20290TIP3    H160755   1.848   2.968   0.073
20290TIP3    H260756   1.909   3.036  -0.047
20291TIP3   OH260757   5.270   7.425   6.649
20291TIP3    H160758   5.308   7.495   6.597
20291TIP3    H260759   5.193   7.464   6.690
20292TIP3   OH260760   1.027   1.576   0.510
20292TIP3    H160761   0.932   1.580   0.514
20292TIP3    H260762   1.052   1.525   0.587
20293TIP3   OH260763   5.124   6.863   7.023
20293TIP3    H160764   5.109   6.809   7.101
20293TIP3    H260765   5.219   6.873   7.018
20294TIP3   OH260766   0.760   2.676   0.162
20294TIP3    H160767   0.822   2.622   0.211
20294TIP3    H260768   0.778   2.766   0.191
20295TIP3   OH260769   4.287   6.955   6.802
20295TIP3    H160770   4.296   6.931   6.710
20295TIP3    H260771   4.291   6.873   6.850
20296TIP3   OH260772   4.258   6.932   7.160
20296TIP3    H160773   4.297   6.908   7.244
20296TIP3    H260774   4.317   6.998   7.124
20297TIP3   OH260775   3.975   6.625   7.340
20297TIP3    H160776   3.909   6.672   7.391
20297TIP3    H260777   3.999   6.685   7.269
20298TIP3   OH260778   1.869   1.636   0.209
20298TIP3    H160779   1.947   1.681   0.239
20298TIP3    H260780   1.862   1.559   0.265
20299TIP3   OH260781   5.028   5.999   7.402
20299TIP3    H160782   5.007   6.017   7.310
20299TIP3    H260783   5.072   6.078   7.433
20300TIP3   OH260784   4.483   7.105   7.076
20300TIP3    H160785   4.516   7.180   7.126
20300TIP3    H260786   4.477   7.137   6.986
20301TIP3   OH260787   4.677   6.197   7.489
20301TIP3    H160788   4.739   6.265   7.462
20301TIP3    H260789   4.702   6.176   7.579
20302TIP3   OH260790   1.708   1.873   0.261
20302TIP3    H160791   1.735   1.917   0.341
20302TIP3    H260792   1.760   1.792   0.260
20303TIP3   OH260793   4.841   5.890   7.576
20303TIP3    H160794   4.817   5.966   7.628
20303TIP3    H260795   4.910   5.921   7.518
20304TIP3   OH260796   4.353   5.918   7.386
20304TIP3    H160797   4.341   6.009   7.412
20304TIP3    H260798   4.447   5.903   7.391
20305TIP3   OH260799   2.329   1.781   0.255
20305TIP3    H160800   2.234   1.780   0.264
20305TIP3    H260801   2.345   1.738   0.171
20306TIP3   OH260802   5.258   6.592   7.638
20306TIP3    H160803   5.180   6.537   7.651
20306TIP3    H260804   5.325   6.553   7.694
20307TIP3   OH260805   4.008   6.807   7.131
20307TIP3    H160806   4.080   6.867   7.145
20307TIP3    H260807   4.038   6.749   7.061
20308TIP3   OH260808   3.905   6.099   7.248
20308TIP3    H160809   3.917   6.192   7.263
20308TIP3    H260810   3.869   6.093   7.159
20309TIP3   OH260811   5.230   7.578   7.591
20309TIP3    H160812   5.188   7.619   7.515
20309TIP3    H260813   5.323   7.586   7.574
20310TIP3   OH260814   1.033   1.192   0.119
20310TIP3    H160815   1.006   1.159   0.034
20310TIP3    H260816   1.024   1.118   0.179
20311TIP3   OH260817   3.814   7.053   7.517
20311TIP3    H160818   3.795   7.106   7.594
20311TIP3    H260819   3.788   7.107   7.443
20312TIP3   OH260820   0.797   3.013   0.602
20312TIP3    H160821   0.867   3.035   0.664
20312TIP3    H260822   0.814   2.922   0.579
20313TIP3   OH260823   1.230   2.907   0.618
20313TIP3    H160824   1.321   2.879   0.618
20313TIP3    H260825   1.188   2.855   0.550
20314TIP3   OH260826   4.463   7.169   6.804
20314TIP3    H160827   4.392   7.105   6.802
20314TIP3    H260828   4.523   7.142   6.735
20315TIP3   OH260829   1.878   2.830   0.352
20315TIP3    H160830   1.863   2.774   0.428
20315TIP3    H260831   1.811   2.898   0.359
20316TIP3   OH260832   4.892   7.179   6.676
20316TIP3    H160833   4.927   7.112   6.736
20316TIP3    H260834   4.946   7.171   6.597
20317TIP3   OH260835   0.856   2.384   0.769
20317TIP3    H160836   0.880   2.291   0.780
20317TIP3    H260837   0.770   2.381   0.726
20318TIP3   OH260838   4.120   6.620   6.963
20318TIP3    H160839   4.178   6.598   7.036
20318TIP3    H260840   4.179   6.633   6.889
20319TIP3   OH260841   1.488   2.477   0.550
20319TIP3    H160842   1.444   2.501   0.469
20319TIP3    H260843   1.528   2.392   0.532
20320TIP3   OH260844   4.702   6.842   6.805
20320TIP3    H160845   4.675   6.848   6.897
20320TIP3    H260846   4.681   6.752   6.780
20321TIP3   OH260847   1.963   2.473   0.139
20321TIP3    H160848   2.042   2.507   0.097
20321TIP3    H260849   1.901   2.545   0.135
20322TIP3   OH260850   0.975   2.129   0.775
20322TIP3    H160851   1.046   2.122   0.712
20322TIP3    H260852   1.017   2.152   0.857
20323TIP3   OH260853   4.294   6.554   7.173
20323TIP3    H160854   4.273   6.522   7.261
20323TIP3    H260855   4.342   6.482   7.133
20324TIP3   OH260856   1.317   1.988   0.416
20324TIP3    H160857   1.249   2.049   0.445
20324TIP3    H260858   1.371   2.039   0.355
20325TIP3   OH260859   4.436   6.370   7.021
20325TIP3    H160860   4.406   6.376   6.931
20325TIP3    H260861   4.532   6.380   7.015
20326TIP3   OH260862   1.839   2.386   0.513
20326TIP3    H160863   1.907   2.346   0.458
20326TIP3    H260864   1.834   2.329   0.590
20327TIP3   OH260865   5.225   6.657   6.708
20327TIP3    H160866   5.214   6.618   6.621
20327TIP3    H260867   5.204   6.750   6.695
20328TIP3   OH260868   1.448   1.781   0.538
20328TIP3    H160869   1.455   1.709   0.476
20328TIP3    H260870   1.408   1.853   0.489
20329TIP3   OH260871   1.457   1.584   0.336
20329TIP3    H160872   1.485   1.623   0.252
20329TIP3    H260873   1.367   1.557   0.321
20330TIP3   OH260874   1.471   2.154   0.258
20330TIP3    H160875   1.554   2.195   0.231
20330TIP3    H260876   1.406   2.191   0.199
20331TIP3   OH260877   2.056   2.074   0.586
20331TIP3    H160878   2.104   1.991   0.585
20331TIP3    H260879   2.124   2.141   0.574
20332TIP3   OH260880   2.079   2.328   0.332
20332TIP3    H160881   2.023   2.381   0.275
20332TIP3    H260882   2.168   2.343   0.300
20333TIP3   OH260883   1.332   1.863   0.780
20333TIP3    H160884   1.262   1.800   0.798
20333TIP3    H260885   1.362   1.842   0.692
20334TIP3   OH260886   1.579   1.357   0.440
20334TIP3    H160887   1.539   1.436   0.405
20334TIP3    H260888   1.513   1.289   0.425
20335TIP3   OH260889   1.704   1.826   0.642
20335TIP3    H160890   1.693   1.813   0.736
20335TIP3    H260891   1.618   1.806   0.605
20336TIP3   OH260892   1.950   1.781   0.515
20336TIP3    H160893   1.871   1.781   0.569
20336TIP3    H260894   2.021   1.758   0.574
20337TIP3   OH260895   2.186   1.744   0.660
20337TIP3    H160896   2.198   1.649   0.668
20337TIP3    H260897   2.179   1.774   0.751
20338TIP3   OH260898   1.158   1.653   0.849
20338TIP3    H160899   1.165   1.564   0.812
20338TIP3    H260900   1.199   1.646   0.935
20339TIP3   OH260901   1.641   1.328   0.704
20339TIP3    H160902   1.711   1.263   0.697
20339TIP3    H260903   1.612   1.342   0.614
20340TIP3   OH260904   1.737   1.542   0.848
20340TIP3    H160905   1.706   1.471   0.793
20340TIP3    H260906   1.665   1.606   0.849
20341TIP3   OH260907   3.731   6.798   7.136
20341TIP3    H160908   3.826   6.811   7.135
20341TIP3    H260909   3.719   6.709   7.102
20342TIP3   OH260910   3.626   7.378   7.608
20342TIP3    H160911   3.563   7.322   7.562
20342TIP3    H260912   3.677   7.318   7.661
20343TIP3   OH260913   3.791   7.208   7.758
20343TIP3    H160914   3.786   7.137   7.823
20343TIP3    H260915   3.843   7.276   7.801
20344TIP3   OH260916   5.502   7.613   7.571
20344TIP3    H160917   5.524   7.629   7.663
20344TIP3    H260918   5.548   7.682   7.524
20345TIP3   OH260919   5.531   7.629   7.848
20345TIP3    H160920   5.471   7.554   7.854
20345TIP3    H260921   5.597   7.612   7.915
20346TIP3   OH260922   2.320   2.730   0.435
20346TIP3    H160923   2.234   2.740   0.475
20346TIP3    H260924   2.359   2.818   0.441
20347TIP3   OH260925   5.404   6.868   7.031
20347TIP3    H160926   5.461   6.939   7.002
20347TIP3    H260927   5.450   6.830   7.107
20348TIP3   OH260928   5.535   6.726   7.234
20348TIP3    H160929   5.467   6.689   7.291
20348TIP3    H260930   5.599   6.763   7.294
20349TIP3   OH260931   5.575   7.126   7.665
20349TIP3    H160932   5.627   7.058   7.621
20349TIP3    H260933   5.578   7.201   7.605
20350TIP3   OH260934   5.366   7.408   7.886
20350TIP3    H160935   5.293   7.452   7.930
20350TIP3    H260936   5.326   7.369   7.808
20351TIP3   OH260937   5.440   6.642   6.879
20351TIP3    H160938   5.366   6.640   6.818
20351TIP3    H260939   5.426   6.720   6.931
20352TIP3   OH260940   5.285   6.291   6.825
20352TIP3    H160941   5.236   6.323   6.749
20352TIP3    H260942   5.280   6.196   6.818
20353TIP3   OH260943   5.330   6.588   7.369
20353TIP3    H160944   5.333   6.493   7.355
20353TIP3    H260945   5.309   6.596   7.463
20354TIP3   OH260946   0.680   2.012   0.153
20354TIP3    H160947   0.672   1.988   0.061
20354TIP3    H260948   0.774   2.016   0.169
20355TIP3   OH260949   2.322   2.381   0.211
20355TIP3    H160950   2.387   2.315   0.187
20355TIP3    H260951   2.303   2.426   0.128
20356TIP3   OH260952   2.495   2.166   0.203
20356TIP3    H160953   2.428   2.125   0.257
20356TIP3    H260954   2.577   2.122   0.227
20357TIP3   OH260955   5.250   6.021   6.798
20357TIP3    H160956   5.317   5.991   6.859
20357TIP3    H260957   5.171   5.974   6.824
20358TIP3   OH260958   5.321   6.311   7.258
20358TIP3    H160959   5.367   6.228   7.271
20358TIP3    H260960   5.361   6.349   7.180
20359TIP3   OH260961   5.474   6.471   7.781
20359TIP3    H160962   5.554   6.490   7.733
20359TIP3    H260963   5.487   6.512   7.867
20360TIP3   OH260964   2.276   1.998   0.009
20360TIP3    H160965   2.204   2.026   0.065
20360TIP3    H260966   2.306   2.078  -0.034
20361TIP3   OH260967   0.895   1.706   0.780
20361TIP3    H160968   0.989   1.707   0.799
20361TIP3    H260969   0.863   1.626   0.821
20362TIP3   OH260970   2.744   1.597   0.546
20362TIP3    H160971   2.810   1.542   0.504
20362TIP3    H260972   2.706   1.648   0.474
20363TIP3   OH260973   5.438   6.062   7.311
20363TIP3    H160974   5.482   6.044   7.394
20363TIP3    H260975   5.376   5.991   7.300
20364TIP3   OH260976   0.876   1.421   0.147
20364TIP3    H160977   0.929   1.342   0.147
20364TIP3    H260978   0.937   1.491   0.125
20365TIP3   OH260979   0.650   1.697   0.192
20365TIP3    H160980   0.706   1.678   0.116
20365TIP3    H260981   0.668   1.789   0.213
20366TIP3   OH260982   2.593   1.718   0.354
20366TIP3    H160983   2.516   1.757   0.395
20366TIP3    H260984   2.558   1.649   0.298
20367TIP3   OH260985   5.479   5.974   6.954
20367TIP3    H160986   5.521   5.917   6.890
20367TIP3    H260987   5.534   6.053   6.955
20368TIP3   OH260988   3.911   5.818   7.695
20368TIP3    H160989   3.826   5.810   7.738
20368TIP3    H260990   3.894   5.874   7.619
20369TIP3   OH260991   5.048   7.515   7.204
20369TIP3    H160992   5.113   7.508   7.135
20369TIP3    H260993   5.082   7.582   7.263
20370TIP3   OH260994   0.878   1.254   0.529
20370TIP3    H160995   0.826   1.252   0.609
20370TIP3    H260996   0.821   1.297   0.465
20371TIP3   OH260997   0.872   2.743   0.582
20371TIP3    H160998   0.783   2.708   0.578
20371TIP3    H260999   0.900   2.727   0.672
20372TIP3   OH261000   1.107   2.758   0.151
20372TIP3    H161001   1.058   2.828   0.108
20372TIP3    H261002   1.194   2.760   0.111
20373TIP3   OH261003   2.501   1.476   0.238
20373TIP3    H161004   2.419   1.479   0.190
20373TIP3    H261005   2.529   1.385   0.231
20374TIP3   OH261006   0.773   2.981   0.187
20374TIP3    H161007   0.685   3.013   0.168
20374TIP3    H261008   0.808   3.044   0.249
20375TIP3   OH261009   4.260   7.589   8.015
20375TIP3    H161010   4.174   7.595   8.057
20375TIP3    H261011   4.241   7.548   7.930
20376TIP3   OH261012   4.652   7.608   7.842
20376TIP3    H161013   4.580   7.621   7.781
20376TIP3    H261014   4.661   7.692   7.887
20377TIP3   OH261015   4.908   7.521   7.829
20377TIP3    H161016   4.816   7.547   7.831
20377TIP3    H261017   4.948   7.568   7.902
20378TIP3   OH261018   5.181   7.763   7.797
20378TIP3    H161019   5.154   7.840   7.748
20378TIP3    H261020   5.185   7.693   7.732
20379TIP3   OH261021   3.947   7.383   7.912
20379TIP3    H161022   3.982   7.348   7.993
20379TIP3    H261023   4.024   7.397   7.856
20380TIP3   OH261024   4.980   6.011   7.880
20380TIP3    H161025   4.941   5.939   7.929
20380TIP3    H261026   5.049   5.970   7.827
20381TIP3   OH261027   5.480   5.931   7.777
20381TIP3    H161028   5.516   5.973   7.698
20381TIP3    H261029   5.385   5.946   7.770
20382TIP3   OH261030   5.593   5.990   7.531
20382TIP3    H161031   5.659   5.929   7.496
20382TIP3    H261032   5.633   6.076   7.522
20383TIP3   OH261033   4.217   5.705   7.879
20383TIP3    H161034   4.125   5.677   7.883
20383TIP3    H261035   4.267   5.623   7.878
20384TIP3   OH261036   3.975   5.618   7.496
20384TIP3    H161037   4.031   5.662   7.432
20384TIP3    H261038   3.970   5.680   7.569
20385TIP3   OH261039   4.692   5.747   7.776
20385TIP3    H161040   4.739   5.792   7.707
20385TIP3    H261041   4.735   5.775   7.857
20386TIP3   OH261042   5.194   5.893   7.749
20386TIP3    H161043   5.206   5.857   7.661
20386TIP3    H261044   5.200   5.818   7.807
20387TIP3   OH261045   5.252   5.852   7.316
20387TIP3    H161046   5.172   5.899   7.341
20387TIP3    H261047   5.240   5.764   7.353
20388TIP3   OH261048   3.718   7.192   7.298
20388TIP3    H161049   3.633   7.157   7.269
20388TIP3    H261050   3.720   7.282   7.264
20389TIP3   OH261051   4.141   5.748   7.295
20389TIP3    H161052   4.189   5.687   7.239
20389TIP3    H261053   4.209   5.805   7.332
20390TIP3   OH261054   4.629   5.946   7.393
20390TIP3    H161055   4.689   5.893   7.445
20390TIP3    H261056   4.644   6.036   7.421
20391TIP3   OH261057   4.482   7.447   6.838
20391TIP3    H161058   4.577   7.442   6.831
20391TIP3    H261059   4.453   7.357   6.825
20392TIP3   OH261060   5.217   7.487   6.987
20392TIP3    H161061   5.213   7.391   6.979
20392TIP3    H261062   5.176   7.519   6.907
20393TIP3   OH261063   1.178   1.386   0.761
20393TIP3    H161064   1.144   1.317   0.818
20393TIP3    H261065   1.271   1.392   0.784
20394TIP3   OH261066   1.428   1.381   0.878
20394TIP3    H161067   1.504   1.361   0.824
20394TIP3    H261068   1.424   1.309   0.942
20395TIP3   OH261069   3.832   7.198   6.943
20395TIP3    H161070   3.832   7.178   7.036
20395TIP3    H261071   3.902   7.143   6.906
20396TIP3   OH261072   2.249   1.474   0.663
20396TIP3    H161073   2.265   1.442   0.752
20396TIP3    H261074   2.334   1.468   0.620
20397TIP3   OH261075   2.157   2.995   0.174
20397TIP3    H161076   2.085   2.948   0.130
20397TIP3    H261077   2.131   3.087   0.171
20398TIP3   OH261078   6.713   7.007   6.920
20398TIP3    H161079   6.689   7.094   6.888
20398TIP3    H261080   6.642   6.950   6.891
20399TIP3   OH261081   6.701   7.003   7.316
20399TIP3    H161082   6.737   6.980   7.402
20399TIP3    H261083   6.657   6.923   7.286
20400TIP3   OH261084   6.006   6.860   7.675
20400TIP3    H161085   6.040   6.802   7.743
20400TIP3    H261086   6.084   6.886   7.625
20401TIP3   OH261087   7.008   7.294   7.013
20401TIP3    H161088   6.973   7.236   7.080
20401TIP3    H261089   7.009   7.380   7.055
20402TIP3   OH261090   6.000   7.293   7.366
20402TIP3    H161091   5.980   7.200   7.374
20402TIP3    H261092   6.095   7.297   7.355
20403TIP3   OH261093   5.682   6.497   7.155
20403TIP3    H161094   5.644   6.581   7.179
20403TIP3    H261095   5.610   6.449   7.113
20404TIP3   OH261096   5.762   6.812   7.379
20404TIP3    H161097   5.813   6.735   7.403
20404TIP3    H261098   5.828   6.877   7.355
20405TIP3   OH261099   6.638   7.738   7.033
20405TIP3    H161100   6.665   7.676   6.965
20405TIP3    H261101   6.631   7.684   7.112
20406TIP3   OH261102   6.510   7.222   7.329
20406TIP3    H161103   6.551   7.142   7.296
20406TIP3    H261104   6.584   7.278   7.354
20407TIP3   OH261105   7.549   6.531   7.345
20407TIP3    H161106   7.564   6.612   7.395
20407TIP3    H261107   7.592   6.548   7.261
20408TIP3   OH261108   6.912   6.711   7.376
20408TIP3    H161109   6.950   6.627   7.404
20408TIP3    H261110   6.880   6.694   7.288
20409TIP3   OH261111   6.280   6.368   7.333
20409TIP3    H161112   6.258   6.441   7.276
20409TIP3    H261113   6.223   6.297   7.303
20410TIP3   OH261114   6.978   6.475   6.974
20410TIP3    H161115   7.044   6.468   7.044
20410TIP3    H261116   7.027   6.505   6.898
20411TIP3   OH261117   5.900   6.587   7.468
20411TIP3    H161118   5.983   6.568   7.511
20411TIP3    H261119   5.903   6.537   7.386
20412TIP3   OH261120   6.320   6.785   7.281
20412TIP3    H161121   6.414   6.769   7.284
20412TIP3    H261122   6.283   6.704   7.248
20413TIP3   OH261123   7.600   6.753   7.499
20413TIP3    H161124   7.509   6.783   7.505
20413TIP3    H261125   7.641   6.785   7.579
20414TIP3   OH261126   6.252   6.376   7.788
20414TIP3    H161127   6.202   6.410   7.714
20414TIP3    H261128   6.196   6.392   7.864
20415TIP3   OH261129   6.632   7.222   6.771
20415TIP3    H161130   6.590   7.195   6.689
20415TIP3    H261131   6.578   7.294   6.803
20416TIP3   OH261132   6.359   7.148   7.550
20416TIP3    H161133   6.299   7.217   7.578
20416TIP3    H261134   6.404   7.186   7.474
20417TIP3   OH261135   7.142   6.497   7.191
20417TIP3    H161136   7.099   6.477   7.274
20417TIP3    H261137   7.197   6.573   7.210
20418TIP3   OH261138   6.147   6.476   7.553
20418TIP3    H161139   6.200   6.553   7.576
20418TIP3    H261140   6.194   6.435   7.481
20419TIP3   OH261141   6.189   7.345   7.640
20419TIP3    H161142   6.175   7.434   7.607
20419TIP3    H261143   6.109   7.324   7.687
20420TIP3   OH261144   5.576   7.058   6.916
20420TIP3    H161145   5.543   7.078   6.828
20420TIP3    H261146   5.599   7.144   6.953
20421TIP3   OH261147   7.008   7.549   7.139
20421TIP3    H161148   6.921   7.547   7.178
20421TIP3    H261149   7.010   7.630   7.088
20422TIP3   OH261150   7.344   6.419   7.509
20422TIP3    H161151   7.256   6.442   7.477
20422TIP3    H261152   7.403   6.447   7.439
20423TIP3   OH261153   6.596   6.064   7.523
20423TIP3    H161154   6.585   5.972   7.548
20423TIP3    H261155   6.520   6.109   7.560
20424TIP3   OH261156   6.721   7.588   6.819
20424TIP3    H161157   6.777   7.512   6.804
20424TIP3    H261158   6.758   7.657   6.763
20425TIP3   OH261159   6.875   7.365   6.775
20425TIP3    H161160   6.803   7.302   6.763
20425TIP3    H261161   6.926   7.329   6.848
20426TIP3   OH261162   7.253   7.447   7.478
20426TIP3    H161163   7.244   7.377   7.414
20426TIP3    H261164   7.234   7.527   7.428
20427TIP3   OH261165   6.536   6.858   6.765
20427TIP3    H161166   6.453   6.903   6.747
20427TIP3    H261167   6.580   6.852   6.680
20428TIP3   OH261168   6.502   6.660   6.474
20428TIP3    H161169   6.574   6.710   6.513
20428TIP3    H261170   6.545   6.592   6.422
20429TIP3   OH261171   7.441   7.087   7.346
20429TIP3    H161172   7.359   7.132   7.325
20429TIP3    H261173   7.451   7.022   7.277
20430TIP3   OH261174   6.895   6.947   6.724
20430TIP3    H161175   6.839   6.972   6.797
20430TIP3    H261176   6.974   6.913   6.765
20431TIP3   OH261177   7.087   6.907   7.601
20431TIP3    H161178   7.121   6.997   7.597
20431TIP3    H261179   6.993   6.916   7.584
20432TIP3   OH261180   6.119   6.919   7.135
20432TIP3    H161181   6.082   6.860   7.069
20432TIP3    H261182   6.193   6.870   7.172
20433TIP3   OH261183   6.260   7.342   7.268
20433TIP3    H161184   6.234   7.330   7.176
20433TIP3    H261185   6.347   7.303   7.273
20434TIP3   OH261186   6.223   6.914   7.505
20434TIP3    H161187   6.259   6.879   7.424
20434TIP3    H261188   6.272   6.995   7.520
20435TIP3   OH261189   6.774   7.556   7.278
20435TIP3    H161190   6.769   7.625   7.345
20435TIP3    H261191   6.763   7.475   7.328
20436TIP3   OH261192   6.391   7.443   7.799
20436TIP3    H161193   6.331   7.500   7.849
20436TIP3    H261194   6.334   7.392   7.742
20437TIP3   OH261195   6.730   6.799   6.559
20437TIP3    H161196   6.787   6.862   6.603
20437TIP3    H261197   6.757   6.803   6.467
20438TIP3   OH261198   6.147   7.000   7.938
20438TIP3    H161199   6.143   7.094   7.955
20438TIP3    H261200   6.055   6.975   7.924
20439TIP3   OH261201   6.481   7.446   6.815
20439TIP3    H161202   6.552   7.510   6.813
20439TIP3    H261203   6.436   7.459   6.732
20440TIP3   OH261204   6.177   7.590   7.891
20440TIP3    H161205   6.161   7.607   7.798
20440TIP3    H261206   6.092   7.564   7.925
20441TIP3   OH261207   7.239   6.028   6.623
20441TIP3    H161208   7.162   6.050   6.676
20441TIP3    H261209   7.250   6.104   6.566
20442TIP3   OH261210   5.996   6.761   6.934
20442TIP3    H161211   5.920   6.809   6.902
20442TIP3    H261212   5.965   6.671   6.946
20443TIP3   OH261213   7.095   7.408   6.129
20443TIP3    H161214   7.077   7.502   6.125
20443TIP3    H261215   7.162   7.393   6.063
20444TIP3   OH261216   5.773   7.166   7.858
20444TIP3    H161217   5.702   7.147   7.797
20444TIP3    H261218   5.808   7.080   7.882
20445TIP3   OH261219   5.620   7.365   7.520
20445TIP3    H161220   5.707   7.396   7.546
20445TIP3    H261221   5.561   7.437   7.541
20446TIP3   OH261222   7.460   7.801   7.555
20446TIP3    H161223   7.459   7.715   7.597
20446TIP3    H261224   7.386   7.848   7.594
20447TIP3   OH261225   6.574   7.560   7.632
20447TIP3    H161226   6.574   7.654   7.646
20447TIP3    H261227   6.511   7.526   7.696
20448TIP3   OH261228   6.256   7.752   6.559
20448TIP3    H161229   6.327   7.722   6.502
20448TIP3    H261230   6.299   7.806   6.625
20449TIP3   OH261231   5.802   7.550   7.015
20449TIP3    H161232   5.845   7.544   7.100
20449TIP3    H261233   5.753   7.468   7.006
20450TIP3   OH261234   7.386   6.934   7.806
20450TIP3    H161235   7.299   6.935   7.766
20450TIP3    H261236   7.387   6.854   7.858
20451TIP3   OH261237   5.963   7.353   7.800
20451TIP3    H161238   6.011   7.349   7.883
20451TIP3    H261239   5.893   7.289   7.809
20452TIP3   OH261240   6.359   6.160   7.645
20452TIP3    H161241   6.276   6.127   7.610
20452TIP3    H261242   6.335   6.241   7.691
20453TIP3   OH261243   6.874   6.278   7.824
20453TIP3    H161244   6.943   6.250   7.884
20453TIP3    H261245   6.793   6.264   7.873
20454TIP3   OH261246   7.139   6.672   7.727
20454TIP3    H161247   7.128   6.709   7.814
20454TIP3    H261248   7.114   6.743   7.668
20455TIP3   OH261249   6.809   6.768   6.296
20455TIP3    H161250   6.756   6.777   6.217
20455TIP3    H261251   6.887   6.820   6.279
20456TIP3   OH261252   6.521   6.191   6.619
20456TIP3    H161253   6.479   6.201   6.705
20456TIP3    H261254   6.481   6.113   6.582
20457TIP3   OH261255   6.297   6.686   7.645
20457TIP3    H161256   6.259   6.696   7.732
20457TIP3    H261257   6.276   6.768   7.600
20458TIP3   OH261258   6.181   6.570   7.176
20458TIP3    H161259   6.092   6.547   7.201
20458TIP3    H261260   6.190   6.540   7.086
20459TIP3   OH261261   6.658   6.651   6.902
20459TIP3    H161262   6.610   6.723   6.861
20459TIP3    H261263   6.715   6.617   6.832
20460TIP3   OH261264   6.858   6.895   7.951
20460TIP3    H161265   6.834   6.834   8.021
20460TIP3    H261266   6.950   6.874   7.933
20461TIP3   OH261267   6.831   6.660   7.120
20461TIP3    H161268   6.761   6.682   7.058
20461TIP3    H261269   6.877   6.587   7.080
20462TIP3   OH261270   6.125   6.693   7.866
20462TIP3    H161271   6.154   6.755   7.932
20462TIP3    H261272   6.106   6.613   7.914
20463TIP3   OH261273   6.186   6.185   6.587
20463TIP3    H161274   6.175   6.191   6.681
20463TIP3    H261275   6.108   6.227   6.550
20464TIP3   OH261276   5.727   6.214   7.464
20464TIP3    H161277   5.798   6.256   7.512
20464TIP3    H261278   5.759   6.207   7.375
20465TIP3   OH261279   5.632   6.208   6.961
20465TIP3    H161280   5.678   6.243   6.884
20465TIP3    H261281   5.567   6.274   6.983
20466TIP3   OH261282   6.810   6.895   7.546
20466TIP3    H161283   6.844   6.831   7.483
20466TIP3    H261284   6.782   6.842   7.621
20467TIP3   OH261285   6.549   6.363   7.227
20467TIP3    H161286   6.470   6.362   7.281
20467TIP3    H261287   6.621   6.355   7.289
20468TIP3   OH261288   5.941   6.447   7.236
20468TIP3    H161289   5.854   6.452   7.198
20468TIP3    H261290   5.969   6.356   7.220
20469TIP3   OH261291   6.196   6.453   6.929
20469TIP3    H161292   6.290   6.462   6.917
20469TIP3    H261293   6.159   6.468   6.842
20470TIP3   OH261294   7.002   6.451   7.428
20470TIP3    H161295   6.981   6.468   7.520
20470TIP3    H261296   6.935   6.390   7.399
20471TIP3   OH261297   6.082   6.470   6.681
20471TIP3    H161298   6.020   6.420   6.628
20471TIP3    H261299   6.134   6.519   6.617
20472TIP3   OH261300   7.170   8.185   7.619
20472TIP3    H161301   7.173   8.169   7.524
20472TIP3    H261302   7.211   8.270   7.630
20473TIP3   OH261303   2.844   2.640   0.030
20473TIP3    H161304   2.924   2.650   0.081
20473TIP3    H261305   2.774   2.645   0.094
20474TIP3   OH261306   6.592   6.729   7.322
20474TIP3    H161307   6.657   6.677   7.274
20474TIP3    H261308   6.587   6.688   7.408
20475TIP3   OH261309   6.082   6.196   7.223
20475TIP3    H161310   6.051   6.120   7.273
20475TIP3    H261311   6.100   6.161   7.136
20476TIP3   OH261312   6.559   6.626   7.581
20476TIP3    H161313   6.471   6.655   7.607
20476TIP3    H261314   6.618   6.669   7.643
20477TIP3   OH261315   6.297   6.998   6.709
20477TIP3    H161316   6.225   6.940   6.685
20477TIP3    H261317   6.273   7.033   6.795
20478TIP3   OH261318   7.200   7.233   7.304
20478TIP3    H161319   7.230   7.284   7.229
20478TIP3    H261320   7.116   7.196   7.275
20479TIP3   OH261321   6.769   6.302   6.627
20479TIP3    H161322   6.677   6.276   6.620
20479TIP3    H261323   6.767   6.398   6.633
20480TIP3   OH261324   6.688   7.312   7.686
20480TIP3    H161325   6.736   7.341   7.763
20480TIP3    H261326   6.632   7.386   7.662
20481TIP3   OH261327   6.823   6.572   6.690
20481TIP3    H161328   6.919   6.575   6.693
20481TIP3    H261329   6.799   6.646   6.635
20482TIP3   OH261330   5.987   7.002   7.362
20482TIP3    H161331   6.025   6.984   7.276
20482TIP3    H261332   6.052   6.972   7.425
20483TIP3   OH261333   6.459   7.161   6.556
20483TIP3    H161334   6.421   7.249   6.554
20483TIP3    H261335   6.396   7.109   6.605
20484TIP3   OH261336   2.608   2.314  -0.030
20484TIP3    H161337   2.638   2.310   0.061
20484TIP3    H261338   2.532   2.257  -0.033
20485TIP3   OH261339   6.619   7.044   7.951
20485TIP3    H161340   6.584   7.022   7.865
20485TIP3    H261341   6.713   7.027   7.944
20486TIP3   OH261342   6.849   7.589   7.572
20486TIP3    H161343   6.757   7.564   7.584
20486TIP3    H261344   6.865   7.654   7.641
20487TIP3   OH261345   7.240   6.662   6.502
20487TIP3    H161346   7.184   6.612   6.442
20487TIP3    H261347   7.244   6.750   6.465
20488TIP3   OH261348   7.513   7.509   7.556
20488TIP3    H161349   7.417   7.504   7.561
20488TIP3    H261350   7.532   7.491   7.464
20489TIP3   OH261351   7.023   7.485   6.425
20489TIP3    H161352   6.968   7.428   6.479
20489TIP3    H261353   7.029   7.439   6.341
20490TIP3   OH261354   6.958   7.102   7.220
20490TIP3    H161355   6.867   7.081   7.238
20490TIP3    H261356   6.993   7.023   7.180
20491TIP3   OH261357   6.119   7.347   7.026
20491TIP3    H161358   6.120   7.421   6.965
20491TIP3    H261359   6.027   7.338   7.052
20492TIP3   OH261360   5.676   6.631   6.735
20492TIP3    H161361   5.720   6.713   6.758
20492TIP3    H261362   5.596   6.631   6.786
20493TIP3   OH261363   6.208   7.100   6.942
20493TIP3    H161364   6.188   7.189   6.969
20493TIP3    H261365   6.177   7.045   7.014
20494TIP3   OH261366   6.386   7.671   7.460
20494TIP3    H161367   6.425   7.751   7.424
20494TIP3    H261368   6.460   7.623   7.497
20495TIP3   OH261369   6.038   7.567   6.869
20495TIP3    H161370   5.951   7.572   6.906
20495TIP3    H261371   6.072   7.656   6.873
20496TIP3   OH261372   6.758   7.315   7.421
20496TIP3    H161373   6.743   7.306   7.515
20496TIP3    H261374   6.829   7.254   7.401
20497TIP3   OH261375   6.752   7.242   6.323
20497TIP3    H161376   6.792   7.206   6.402
20497TIP3    H261377   6.665   7.200   6.319
20498TIP3   OH261378   7.015   7.834   7.474
20498TIP3    H161379   6.936   7.783   7.491
20498TIP3    H261380   6.991   7.892   7.402
20499TIP3   OH261381   7.053   7.686   6.130
20499TIP3    H161382   7.045   7.734   6.048
20499TIP3    H261383   6.987   7.724   6.187
20500TIP3   OH261384   2.811   1.825  -0.005
20500TIP3    H161385   2.716   1.839  -0.002
20500TIP3    H261386   2.827   1.758   0.061
20501TIP3   OH261387   6.917   7.130   6.515
20501TIP3    H161388   6.901   7.075   6.591
20501TIP3    H261389   7.013   7.136   6.510
20502TIP3   OH261390   5.821   7.544   7.635
20502TIP3    H161391   5.876   7.488   7.689
20502TIP3    H261392   5.834   7.632   7.671
20503TIP3   OH261393   6.092   7.173   6.349
20503TIP3    H161394   6.104   7.083   6.319
20503TIP3    H261395   6.075   7.166   6.443
20504TIP3   OH261396   6.044   7.190   6.621
20504TIP3    H161397   6.113   7.162   6.682
20504TIP3    H261398   6.052   7.286   6.618
20505TIP3   OH261399   5.772   6.881   6.823
20505TIP3    H161400   5.707   6.929   6.874
20505TIP3    H261401   5.792   6.940   6.750
20506TIP3   OH261402   6.921   6.506   7.682
20506TIP3    H161403   6.994   6.550   7.726
20506TIP3    H261404   6.902   6.430   7.737
20507TIP3   OH261405   6.829   6.255   6.893
20507TIP3    H161406   6.805   6.272   6.802
20507TIP3    H261407   6.871   6.335   6.922
20508TIP3   OH261408   6.356   7.418   6.553
20508TIP3    H161409   6.264   7.445   6.563
20508TIP3    H261410   6.394   7.485   6.496
20509TIP3   OH261411   6.477   6.455   6.974
20509TIP3    H161412   6.537   6.525   6.947
20509TIP3    H261413   6.501   6.436   7.065
20510TIP3   OH261414   6.752   6.724   7.751
20510TIP3    H161415   6.783   6.772   7.828
20510TIP3    H261416   6.808   6.647   7.747
20511TIP3   OH261417   6.638   6.152   7.065
20511TIP3    H161418   6.614   6.230   7.114
20511TIP3    H261419   6.708   6.182   7.006
20512TIP3   OH261420   6.081   7.461   6.614
20512TIP3    H161421   6.049   7.525   6.551
20512TIP3    H261422   6.068   7.502   6.699
20513TIP3   OH261423   6.150   6.178   6.867
20513TIP3    H161424   6.137   6.269   6.894
20513TIP3    H261425   6.244   6.164   6.874
20514TIP3   OH261426   7.401   6.608   7.712
20514TIP3    H161427   7.311   6.636   7.731
20514TIP3    H261428   7.392   6.544   7.641
20515TIP3   OH261429   7.051   6.849   7.122
20515TIP3    H161430   6.974   6.793   7.133
20515TIP3    H261431   7.118   6.807   7.175
20516TIP3   OH261432   5.798   7.061   6.609
20516TIP3    H161433   5.871   7.122   6.620
20516TIP3    H261434   5.829   6.999   6.543
20517TIP3   OH261435   5.705   6.353   6.741
20517TIP3    H161436   5.714   6.448   6.746
20517TIP3    H261437   5.664   6.337   6.657
20518TIP3   OH261438   7.035   7.812   7.048
20518TIP3    H161439   6.988   7.862   6.981
20518TIP3    H261440   7.127   7.838   7.038
20519TIP3   OH261441   6.100   6.071   7.602
20519TIP3    H161442   6.067   6.039   7.518
20519TIP3    H261443   6.090   5.996   7.661
20520TIP3   OH261444   5.627   7.327   7.002
20520TIP3    H161445   5.588   7.364   7.081
20520TIP3    H261446   5.583   7.371   6.930
20521TIP3   OH261447   2.533   3.214  -0.008
20521TIP3    H161448   2.595   3.232   0.063
20521TIP3    H261449   2.515   3.121  -0.000
20522TIP3   OH261450   3.002   3.057   0.128
20522TIP3    H161451   3.096   3.041   0.121
20522TIP3    H261452   2.966   3.027   0.045
20523TIP3   OH261453   6.234   7.384   6.234
20523TIP3    H161454   6.199   7.311   6.286
20523TIP3    H261455   6.303   7.422   6.289
20524TIP3   OH261456   6.884   7.784   7.761
20524TIP3    H161457   6.809   7.758   7.815
20524TIP3    H261458   6.890   7.879   7.774
20525TIP3   OH261459   6.736   7.418   6.087
20525TIP3    H161460   6.710   7.438   6.177
20525TIP3    H261461   6.801   7.347   6.097
20526TIP3   OH261462   2.656   2.625   0.231
20526TIP3    H161463   2.659   2.530   0.242
20526TIP3    H261464   2.570   2.641   0.193
20527TIP3   OH261465   5.914   6.868   6.455
20527TIP3    H161466   5.966   6.844   6.531
20527TIP3    H261467   5.979   6.881   6.385
20528TIP3   OH261468   6.510   7.289   7.997
20528TIP3    H161469   6.482   7.319   7.910
20528TIP3    H261470   6.558   7.208   7.981
20529TIP3   OH261471   6.507   7.107   6.287
20529TIP3    H161472   6.480   7.119   6.379
20529TIP3    H261473   6.487   7.016   6.268
20530TIP3   OH261474   7.019   7.375   7.607
20530TIP3    H161475   7.098   7.409   7.565
20530TIP3    H261476   6.951   7.441   7.588
20531TIP3   OH261477   2.755   2.345   0.203
20531TIP3    H161478   2.841   2.352   0.162
20531TIP3    H261479   2.773   2.347   0.297
20532TIP3   OH261480   6.092   6.814   6.666
20532TIP3    H161481   6.073   6.780   6.753
20532TIP3    H261482   6.140   6.743   6.623
20533TIP3   OH261483   6.375   6.858   7.880
20533TIP3    H161484   6.303   6.917   7.899
20533TIP3    H261485   6.426   6.902   7.813
20534TIP3   OH261486   6.230   6.628   6.512
20534TIP3    H161487   6.201   6.631   6.421
20534TIP3    H261488   6.325   6.635   6.508
20535TIP3   OH261489   3.589   2.591   0.026
20535TIP3    H161490   3.647   2.521  -0.003
20535TIP3    H261491   3.591   2.587   0.121
20536TIP3   OH261492   7.022   6.914   6.195
20536TIP3    H161493   7.002   6.874   6.111
20536TIP3    H261494   7.001   7.006   6.184
20537TIP3   OH261495   6.503   6.657   8.009
20537TIP3    H161496   6.511   6.584   7.948
20537TIP3    H261497   6.463   6.727   7.958
20538TIP3   OH261498   6.512   6.457   7.813
20538TIP3    H161499   6.539   6.489   7.728
20538TIP3    H261500   6.420   6.434   7.802
20539TIP3   OH261501   6.534   6.994   7.696
20539TIP3    H161502   6.615   6.996   7.646
20539TIP3    H261503   6.475   7.053   7.649
20540TIP3   OH261504   7.132   6.843   7.934
20540TIP3    H161505   7.125   6.802   8.021
20540TIP3    H261506   7.130   6.937   7.952
20541TIP3   OH261507   7.140   7.248   7.812
20541TIP3    H161508   7.081   7.292   7.751
20541TIP3    H261509   7.189   7.187   7.758
20542TIP3   OH261510   3.089   2.103   0.238
20542TIP3    H161511   3.033   2.027   0.251
20542TIP3    H261512   3.129   2.088   0.152
20543TIP3   OH261513   6.621   6.225   7.917
20543TIP3    H161514   6.582   6.306   7.883
20543TIP3    H261515   6.554   6.158   7.901
20544TIP3   OH261516   3.483   2.085   0.119
20544TIP3    H161517   3.474   2.044   0.205
20544TIP3    H261518   3.402   2.062   0.073
20545TIP3   OH261519   6.959   6.595   7.962
20545TIP3    H161520   6.899   6.612   8.034
20545TIP3    H261521   7.043   6.576   8.004
20546TIP3   OH261522   3.948   1.937   0.090
20546TIP3    H161523   3.954   1.843   0.105
20546TIP3    H261524   3.905   1.972   0.167
20547TIP3   OH261525   2.939   1.892   0.327
20547TIP3    H161526   2.939   1.808   0.282
20547TIP3    H261527   2.979   1.873   0.412
20548TIP3   OH261528   3.401   1.548   0.177
20548TIP3    H161529   3.473   1.485   0.170
20548TIP3    H261530   3.379   1.569   0.086
20549TIP3   OH261531   3.490   1.773   0.300
20549TIP3    H161532   3.453   1.698   0.253
20549TIP3    H261533   3.418   1.836   0.304
20550TIP3   OH261534   6.028   7.669   6.440
20550TIP3    H161535   6.108   7.702   6.481
20550TIP3    H261536   6.031   7.704   6.351
20551TIP3   OH261537   5.524   7.059   6.624
20551TIP3    H161538   5.619   7.070   6.620
20551TIP3    H261539   5.508   6.974   6.584
20552TIP3   OH261540   5.424   7.638   7.086
20552TIP3    H161541   5.359   7.584   7.040
20552TIP3    H261542   5.469   7.577   7.144
20553TIP3   OH261543   5.571   7.468   7.249
20553TIP3    H161544   5.563   7.399   7.316
20553TIP3    H261545   5.622   7.537   7.292
20554TIP3   OH261546   7.298   7.894   7.047
20554TIP3    H161547   7.318   7.905   7.140
20554TIP3    H261548   7.360   7.951   7.001
20555TIP3   OH261549   7.327   7.888   7.320
20555TIP3    H161550   7.280   7.805   7.320
20555TIP3    H261551   7.392   7.879   7.389
20556TIP3   OH261552   7.386   7.648   7.784
20556TIP3    H161553   7.297   7.675   7.809
20556TIP3    H261554   7.443   7.701   7.840
20557TIP3   OH261555   7.201   7.126   6.521
20557TIP3    H161556   7.257   7.198   6.492
20557TIP3    H261557   7.245   7.091   6.598
20558TIP3   OH261558   7.307   6.994   6.749
20558TIP3    H161559   7.238   6.933   6.775
20558TIP3    H261560   7.305   7.063   6.815
20559TIP3   OH261561   7.364   7.382   7.127
20559TIP3    H161562   7.378   7.338   7.043
20559TIP3    H261563   7.361   7.476   7.105
20560TIP3   OH261564   7.175   7.660   7.331
20560TIP3    H161565   7.112   7.711   7.382
20560TIP3    H261566   7.122   7.620   7.261
20561TIP3   OH261567   7.233   6.900   6.368
20561TIP3    H161568   7.162   6.897   6.305
20561TIP3    H261569   7.218   6.981   6.417
20562TIP3   OH261570   7.089   6.541   6.309
20562TIP3    H161571   7.040   6.582   6.238
20562TIP3    H261572   7.082   6.447   6.291
20563TIP3   OH261573   7.113   6.830   6.852
20563TIP3    H161574   7.115   6.736   6.834
20563TIP3    H261575   7.093   6.837   6.945
20564TIP3   OH261576   5.740   6.897   7.638
20564TIP3    H161577   5.731   6.869   7.547
20564TIP3    H261578   5.835   6.895   7.654
20565TIP3   OH261579   7.457   7.256   7.652
20565TIP3    H161580   7.524   7.188   7.660
20565TIP3    H261581   7.500   7.327   7.605
20566TIP3   OH261582   7.608   7.036   7.682
20566TIP3    H161583   7.526   7.000   7.716
20566TIP3    H261584   7.674   6.969   7.702
20567TIP3   OH261585   7.058   6.267   6.275
20567TIP3    H161586   7.117   6.247   6.348
20567TIP3    H261587   6.972   6.238   6.305
20568TIP3   OH261588   7.120   6.564   6.743
20568TIP3    H161589   7.165   6.480   6.755
20568TIP3    H261590   7.160   6.601   6.664
20569TIP3   OH261591   7.276   6.735   7.250
20569TIP3    H161592   7.354   6.764   7.203
20569TIP3    H261593   7.290   6.764   7.340
20570TIP3   OH261594   7.341   6.858   7.488
20570TIP3    H161595   7.255   6.865   7.531
20570TIP3    H261596   7.366   6.949   7.471
20571TIP3   OH261597   2.679   1.964   0.265
20571TIP3    H161598   2.774   1.959   0.280
20571TIP3    H261599   2.644   1.885   0.304
20572TIP3   OH261600   7.796   6.453   7.990
20572TIP3    H161601   7.852   6.384   7.954
20572TIP3    H261602   7.776   6.509   7.916
20573TIP3   OH261603   7.237   6.317   6.797
20573TIP3    H161604   7.284   6.301   6.879
20573TIP3    H261605   7.173   6.245   6.792
20574TIP3   OH261606   5.939   6.297   7.626
20574TIP3    H161607   5.992   6.218   7.628
20574TIP3    H261608   6.000   6.367   7.603
20575TIP3   OH261609   5.717   6.565   7.684
20575TIP3    H161610   5.770   6.555   7.605
20575TIP3    H261611   5.732   6.655   7.712
20576TIP3   OH261612   7.656   6.563   7.784
20576TIP3    H161613   7.570   6.604   7.777
20576TIP3    H261614   7.647   6.479   7.741
20577TIP3   OH261615   7.282   6.227   6.437
20577TIP3    H161616   7.331   6.167   6.381
20577TIP3    H261617   7.333   6.307   6.437
20578TIP3   OH261618   5.708   6.080   7.190
20578TIP3    H161619   5.622   6.065   7.229
20578TIP3    H261620   5.690   6.132   7.112
20579TIP3   OH261621   6.844   7.793   6.688
20579TIP3    H161622   6.907   7.779   6.616
20579TIP3    H261623   6.888   7.854   6.747
20580TIP3   OH261624   2.668   1.508   0.010
20580TIP3    H161625   2.617   1.505   0.091
20580TIP3    H261626   2.613   1.557  -0.051
20581TIP3   OH261627   2.685   2.925   0.036
20581TIP3    H161628   2.590   2.916   0.043
20581TIP3    H261629   2.710   2.976   0.113
20582TIP3   OH261630   6.168   7.623   7.617
20582TIP3    H161631   6.111   7.693   7.586
20582TIP3    H261632   6.250   7.636   7.570
20583TIP3   OH261633   6.571   7.828   7.669
20583TIP3    H161634   6.599   7.809   7.758
20583TIP3    H261635   6.627   7.900   7.641
20584TIP3   OH261636   6.754   8.022   7.603
20584TIP3    H161637   6.785   7.967   7.532
20584TIP3    H261638   6.833   8.047   7.651
20585TIP3   OH261639   7.564   6.326   7.681
20585TIP3    H161640   7.478   6.327   7.638
20585TIP3    H261641   7.589   6.234   7.682
20586TIP3   OH261642   5.813   7.836   7.655
20586TIP3    H161643   5.724   7.854   7.624
20586TIP3    H261644   5.828   7.902   7.724
20587TIP3   OH261645   6.049   7.846   7.515
20587TIP3    H161646   5.964   7.845   7.558
20587TIP3    H261647   6.031   7.877   7.426
20588TIP3   OH261648   6.483   7.881   7.307
20588TIP3    H161649   6.410   7.884   7.244
20588TIP3    H261650   6.490   7.972   7.339
20589TIP3   OH261651   6.742   7.828   7.386
20589TIP3    H161652   6.651   7.835   7.358
20589TIP3    H261653   6.791   7.875   7.319
20590TIP3   OH261654   6.934   7.974   7.249
20590TIP3    H161655   6.935   8.063   7.215
20590TIP3    H261656   6.961   7.919   7.175
20591TIP3   OH261657   5.740   7.650   7.389
20591TIP3    H161658   5.760   7.620   7.478
20591TIP3    H261659   5.812   7.616   7.336
20592TIP3   OH261660   5.942   7.533   7.251
20592TIP3    H161661   5.954   7.450   7.295
20592TIP3    H261662   6.029   7.574   7.252
20593TIP3   OH261663   6.206   7.619   7.262
20593TIP3    H161664   6.227   7.526   7.249
20593TIP3    H261665   6.261   7.645   7.337
20594TIP3   OH261666   6.777   6.273   7.367
20594TIP3    H161667   6.740   6.203   7.420
20594TIP3    H261668   6.845   6.231   7.314
20595TIP3   OH261669   7.278   6.192   7.253
20595TIP3    H161670   7.315   6.241   7.180
20595TIP3    H261671   7.185   6.211   7.251
20596TIP3   OH261672   7.399   6.265   7.015
20596TIP3    H161673   7.467   6.203   6.988
20596TIP3    H261674   7.439   6.351   7.004
20597TIP3   OH261675   6.003   5.966   7.365
20597TIP3    H161676   5.914   5.932   7.367
20597TIP3    H261677   6.059   5.889   7.357
20598TIP3   OH261678   5.818   5.878   7.016
20598TIP3    H161679   5.851   5.927   6.939
20598TIP3    H261680   5.789   5.947   7.076
20599TIP3   OH261681   6.498   6.006   7.262
20599TIP3    H161682   6.544   6.055   7.193
20599TIP3    H261683   6.537   6.037   7.343
20600TIP3   OH261684   6.992   6.159   7.235
20600TIP3    H161685   6.995   6.125   7.145
20600TIP3    H261686   6.998   6.081   7.290
20601TIP3   OH261687   7.050   6.107   6.808
20601TIP3    H161688   6.970   6.154   6.830
20601TIP3    H261689   7.038   6.020   6.844
20602TIP3   OH261690   5.509   7.452   6.790
20602TIP3    H161691   5.426   7.415   6.759
20602TIP3    H261692   5.511   7.540   6.753
20603TIP3   OH261693   5.939   6.008   6.784
20603TIP3    H161694   5.984   5.946   6.726
20603TIP3    H261695   6.009   6.066   6.816
20604TIP3   OH261696   6.425   6.203   6.880
20604TIP3    H161697   6.483   6.151   6.934
20604TIP3    H261698   6.441   6.293   6.907
20605TIP3   OH261699   7.032   7.756   6.479
20605TIP3    H161700   7.034   7.661   6.466
20605TIP3    H261701   6.980   7.788   6.405
20606TIP3   OH261702   2.963   1.626   0.239
20606TIP3    H161703   2.928   1.561   0.299
20606TIP3    H261704   3.056   1.633   0.263
20607TIP3   OH261705   3.208   1.615   0.363
20607TIP3    H161706   3.279   1.586   0.306
20607TIP3    H261707   3.208   1.551   0.435
20608TIP3   OH261708   5.621   7.447   6.438
20608TIP3    H161709   5.628   7.456   6.533
20608TIP3    H261710   5.700   7.400   6.412
20609TIP3   OH261711   3.981   1.666   0.149
20609TIP3    H161712   3.961   1.616   0.228
20609TIP3    H261713   4.073   1.691   0.159
20610TIP3   OH261714   7.222   7.914   7.645
20610TIP3    H161715   7.151   7.877   7.593
20610TIP3    H261716   7.212   8.008   7.636
20611TIP3   OH261717   8.513   7.266   6.408
20611TIP3    H161718   8.479   7.353   6.388
20611TIP3    H261719   8.446   7.205   6.377
20612TIP3   OH261720   8.464   7.251   6.822
20612TIP3    H161721   8.508   7.239   6.906
20612TIP3    H261722   8.432   7.164   6.798
20613TIP3   OH261723   7.817   7.124   7.178
20613TIP3    H161724   7.823   7.060   7.249
20613TIP3    H261725   7.901   7.171   7.181
20614TIP3   OH261726   8.746   7.546   6.497
20614TIP3    H161727   8.726   7.471   6.553
20614TIP3    H261728   8.723   7.622   6.551
20615TIP3   OH261729   7.790   7.571   6.853
20615TIP3    H161730   7.777   7.515   6.930
20615TIP3    H261731   7.884   7.571   6.839
20616TIP3   OH261732   7.461   6.767   6.660
20616TIP3    H161733   7.421   6.850   6.686
20616TIP3    H261734   7.395   6.723   6.607
20617TIP3   OH261735   8.448   7.984   6.531
20617TIP3    H161736   8.464   7.923   6.459
20617TIP3    H261737   8.460   7.932   6.610
20618TIP3   OH261738   8.302   7.481   6.818
20618TIP3    H161739   8.338   7.394   6.801
20618TIP3    H261740   8.377   7.540   6.814
20619TIP3   OH261741   9.304   6.789   6.807
20619TIP3    H161742   9.354   6.828   6.879
20619TIP3    H261743   9.308   6.855   6.737
20620TIP3   OH261744   8.731   6.983   6.879
20620TIP3    H161745   8.761   6.893   6.896
20620TIP3    H261746   8.667   6.974   6.808
20621TIP3   OH261747   8.049   6.666   6.794
20621TIP3    H161748   8.028   6.734   6.730
20621TIP3    H261749   7.998   6.590   6.766
20622TIP3   OH261750   8.768   6.732   6.447
20622TIP3    H161751   8.836   6.721   6.514
20622TIP3    H261752   8.814   6.773   6.374
20623TIP3   OH261753   7.729   6.887   6.917
20623TIP3    H161754   7.795   6.858   6.979
20623TIP3    H261755   7.704   6.808   6.870
20624TIP3   OH261756   8.051   6.630   7.268
20624TIP3    H161757   8.001   6.672   7.198
20624TIP3    H261758   7.993   6.635   7.344
20625TIP3   OH261759   8.393   7.484   6.295
20625TIP3    H161760   8.363   7.458   6.208
20625TIP3    H261761   8.344   7.564   6.314
20626TIP3   OH261762   8.170   7.398   7.048
20626TIP3    H161763   8.104   7.459   7.079
20626TIP3    H261764   8.209   7.441   6.971
20627TIP3   OH261765   8.938   6.722   6.657
20627TIP3    H161766   8.885   6.690   6.731
20627TIP3    H261767   8.974   6.805   6.688
20628TIP3   OH261768   7.940   6.748   7.041
20628TIP3    H161769   7.997   6.819   7.069
20628TIP3    H261770   7.980   6.714   6.961
20629TIP3   OH261771   7.972   7.578   7.123
20629TIP3    H161772   7.975   7.670   7.096
20629TIP3    H261773   7.897   7.573   7.182
20630TIP3   OH261774   7.371   7.324   6.410
20630TIP3    H161775   7.327   7.341   6.326
20630TIP3    H261776   7.398   7.411   6.440
20631TIP3   OH261777   9.091   6.618   6.906
20631TIP3    H161778   8.996   6.629   6.896
20631TIP3    H261779   9.117   6.689   6.964
20632TIP3   OH261780   8.389   6.327   7.008
20632TIP3    H161781   8.382   6.234   7.033
20632TIP3    H261782   8.309   6.367   7.043
20633TIP3   OH261783   8.517   7.852   6.292
20633TIP3    H161784   8.571   7.774   6.279
20633TIP3    H261785   8.575   7.925   6.272
20634TIP3   OH261786   8.677   7.639   6.246
20634TIP3    H161787   8.668   7.568   6.183
20634TIP3    H261788   8.705   7.596   6.327
20635TIP3   OH261789   8.347   7.103   6.254
20635TIP3    H161790   8.265   7.149   6.234
20635TIP3    H261791   8.392   7.095   6.170
20636TIP3   OH261792   8.697   7.226   6.210
20636TIP3    H161793   8.639   7.244   6.284
20636TIP3    H261794   8.778   7.193   6.251
20637TIP3   OH261795   8.051   7.599   6.755
20637TIP3    H161796   8.021   7.578   6.667
20637TIP3    H261797   8.135   7.554   6.763
20638TIP3   OH261798   8.043   7.163   6.972
20638TIP3    H161799   8.030   7.159   6.877
20638TIP3    H261800   8.091   7.244   6.986
20639TIP3   OH261801   8.521   7.834   6.758
20639TIP3    H161802   8.600   7.875   6.793
20639TIP3    H261803   8.529   7.741   6.783
20640TIP3   OH261804   8.048   7.734   7.355
20640TIP3    H161805   8.013   7.805   7.301
20640TIP3    H261806   8.073   7.666   7.292
20641TIP3   OH261807   8.544   7.053   6.059
20641TIP3    H161808   8.598   7.121   6.098
20641TIP3    H261809   8.554   7.065   5.965
20642TIP3   OH261810   7.950   7.263   7.420
20642TIP3    H161811   7.969   7.349   7.457
20642TIP3    H261812   7.856   7.251   7.431
20643TIP3   OH261813   8.266   7.734   6.310
20643TIP3    H161814   8.349   7.781   6.310
20643TIP3    H261815   8.209   7.784   6.252
20644TIP3   OH261816   9.039   6.289   6.120
20644TIP3    H161817   8.963   6.310   6.174
20644TIP3    H261818   9.048   6.362   6.060
20645TIP3   OH261819   7.809   7.021   6.397
20645TIP3    H161820   7.725   7.066   6.381
20645TIP3    H261821   7.839   7.055   6.481
20646TIP3   OH261822   8.866   7.662   5.656
20646TIP3    H161823   8.858   7.755   5.637
20646TIP3    H261824   8.952   7.638   5.623
20647TIP3   OH261825   7.576   7.413   7.311
20647TIP3    H161826   7.506   7.388   7.250
20647TIP3    H261827   7.612   7.329   7.340
20648TIP3   OH261828   7.405   7.638   7.020
20648TIP3    H161829   7.490   7.672   7.047
20648TIP3    H261830   7.346   7.713   7.029
20649TIP3   OH261831   8.151   7.936   6.127
20649TIP3    H161832   8.097   7.914   6.051
20649TIP3    H261833   8.118   8.021   6.156
20650TIP3   OH261834   7.586   7.862   6.519
20650TIP3    H161835   7.638   7.833   6.593
20650TIP3    H261836   7.525   7.789   6.502
20651TIP3   OH261837   8.366   7.884   5.764
20651TIP3    H161838   8.421   7.815   5.726
20651TIP3    H261839   8.396   7.892   5.854
20652TIP3   OH261840   8.409   7.921   6.037
20652TIP3    H161841   8.319   7.924   6.067
20652TIP3    H261842   8.457   7.880   6.109
20653TIP3   OH261843   7.749   7.625   7.283
20653TIP3    H161844   7.755   7.668   7.368
20653TIP3    H261845   7.690   7.551   7.298
20654TIP3   OH261846   8.150   6.417   7.123
20654TIP3    H161847   8.065   6.384   7.093
20654TIP3    H261848   8.129   6.497   7.171
20655TIP3   OH261849   8.699   6.532   7.327
20655TIP3    H161850   8.769   6.508   7.387
20655TIP3    H261851   8.619   6.518   7.377
20656TIP3   OH261852   8.592   7.094   5.795
20656TIP3    H161853   8.525   7.092   5.727
20656TIP3    H261854   8.672   7.119   5.750
20657TIP3   OH261855   8.275   6.516   6.083
20657TIP3    H161856   8.253   6.518   6.176
20657TIP3    H261857   8.263   6.425   6.058
20658TIP3   OH261858   8.106   6.949   7.126
20658TIP3    H161859   8.105   6.986   7.214
20658TIP3    H261860   8.083   7.022   7.069
20659TIP3   OH261861   8.461   6.895   6.388
20659TIP3    H161862   8.415   6.970   6.350
20659TIP3    H261863   8.518   6.864   6.318
20660TIP3   OH261864   8.631   6.916   6.608
20660TIP3    H161865   8.557   6.938   6.552
20660TIP3    H261866   8.673   6.842   6.565
20661TIP3   OH261867   7.888   6.937   7.373
20661TIP3    H161868   7.942   6.990   7.432
20661TIP3    H261869   7.888   6.850   7.412
20662TIP3   OH261870   7.986   6.440   6.076
20662TIP3    H161871   7.965   6.439   6.170
20662TIP3    H261872   7.909   6.480   6.035
20663TIP3   OH261873   7.533   6.494   6.959
20663TIP3    H161874   7.599   6.528   7.019
20663TIP3    H261875   7.562   6.523   6.873
20664TIP3   OH261876   7.429   6.466   6.439
20664TIP3    H161877   7.474   6.500   6.362
20664TIP3    H261878   7.366   6.534   6.463
20665TIP3   OH261879   8.595   7.167   7.048
20665TIP3    H161880   8.650   7.118   6.987
20665TIP3    H261881   8.586   7.110   7.124
20666TIP3   OH261882   8.336   6.632   6.722
20666TIP3    H161883   8.253   6.637   6.769
20666TIP3    H261884   8.402   6.620   6.790
20667TIP3   OH261885   7.690   6.660   6.776
20667TIP3    H161886   7.620   6.684   6.715
20667TIP3    H261887   7.743   6.597   6.727
20668TIP3   OH261888   7.995   6.686   6.394
20668TIP3    H161889   8.080   6.721   6.419
20668TIP3    H261890   7.956   6.753   6.338
20669TIP3   OH261891   8.807   6.704   6.933
20669TIP3    H161892   8.794   6.728   7.025
20669TIP3    H261893   8.729   6.652   6.911
20670TIP3   OH261894   7.843   6.758   6.130
20670TIP3    H161895   7.766   6.769   6.185
20670TIP3    H261896   7.818   6.691   6.066
20671TIP3   OH261897   7.989   7.523   7.522
20671TIP3    H161898   8.002   7.604   7.472
20671TIP3    H261899   7.906   7.537   7.568
20672TIP3   OH261900   8.423   6.976   6.830
20672TIP3    H161901   8.423   6.906   6.765
20672TIP3    H261902   8.402   6.933   6.912
20673TIP3   OH261903   7.883   6.461   6.697
20673TIP3    H161904   7.858   6.386   6.751
20673TIP3    H261905   7.892   6.426   6.609
20674TIP3   OH261906   8.363   6.863   7.080
20674TIP3    H161907   8.276   6.900   7.095
20674TIP3    H261908   8.422   6.916   7.134
20675TIP3   OH261909   8.109   7.237   6.195
20675TIP3    H161910   8.054   7.161   6.174
20675TIP3    H261911   8.076   7.267   6.280
20676TIP3   OH261912   8.553   6.558   6.111
20676TIP3    H161913   8.457   6.556   6.108
20676TIP3    H261914   8.574   6.651   6.121
20677TIP3   OH261915   8.625   6.817   6.168
20677TIP3    H161916   8.719   6.830   6.177
20677TIP3    H261917   8.594   6.894   6.121
20678TIP3   OH261918   7.724   7.203   6.938
20678TIP3    H161919   7.793   7.263   6.910
20678TIP3    H261920   7.744   7.185   7.030
20679TIP3   OH261921   8.275   7.410   6.053
20679TIP3    H161922   8.222   7.489   6.040
20679TIP3    H261923   8.215   7.346   6.092
20680TIP3   OH261924   7.674   7.190   7.455
20680TIP3    H161925   7.685   7.144   7.538
20680TIP3    H261926   7.600   7.145   7.413
20681TIP3   OH261927   8.392   7.294   7.483
20681TIP3    H161928   8.380   7.288   7.389
20681TIP3    H261929   8.482   7.265   7.498
20682TIP3   OH261930   9.035   6.913   5.985
20682TIP3    H161931   8.981   6.865   5.923
20682TIP3    H261932   9.036   7.003   5.951
20683TIP3   OH261933   8.779   7.709   5.920
20683TIP3    H161934   8.747   7.631   5.966
20683TIP3    H261935   8.799   7.677   5.832
20684TIP3   OH261936   8.692   7.359   6.700
20684TIP3    H161937   8.608   7.317   6.719
20684TIP3    H261938   8.748   7.288   6.669
20685TIP3   OH261939   7.911   7.579   6.512
20685TIP3    H161940   7.915   7.657   6.457
20685TIP3    H261941   7.818   7.562   6.524
20686TIP3   OH261942   7.476   6.886   6.234
20686TIP3    H161943   7.518   6.970   6.251
20686TIP3    H261944   7.392   6.892   6.279
20687TIP3   OH261945   8.000   7.316   6.435
20687TIP3    H161946   7.980   7.404   6.467
20687TIP3    H261947   7.981   7.258   6.509
20688TIP3   OH261948   8.191   7.952   6.956
20688TIP3    H161949   8.207   8.046   6.961
20688TIP3    H261950   8.278   7.913   6.947
20689TIP3   OH261951   7.818   7.832   6.368
20689TIP3    H161952   7.732   7.836   6.408
20689TIP3    H261953   7.847   7.923   6.363
20690TIP3   OH261954   8.574   7.574   6.847
20690TIP3    H161955   8.586   7.547   6.938
20690TIP3    H261956   8.619   7.507   6.796
20691TIP3   OH261957   8.532   7.467   5.817
20691TIP3    H161958   8.585   7.458   5.897
20691TIP3    H261959   8.452   7.419   5.836
20692TIP3   OH261960   8.866   7.936   5.627
20692TIP3    H161961   8.912   8.012   5.592
20692TIP3    H261962   8.782   7.971   5.657
20693TIP3   OH261963   7.877   6.668   7.477
20693TIP3    H161964   7.783   6.680   7.488
20693TIP3    H261965   7.904   6.614   7.550
20694TIP3   OH261966   8.712   7.439   6.033
20694TIP3    H161967   8.686   7.367   6.091
20694TIP3    H261968   8.804   7.422   6.014
20695TIP3   OH261969   7.612   7.807   7.122
20695TIP3    H161970   7.669   7.748   7.171
20695TIP3    H261971   7.622   7.891   7.165
20696TIP3   OH261972   7.893   7.438   5.819
20696TIP3    H161973   7.905   7.346   5.797
20696TIP3    H261974   7.869   7.438   5.911
20697TIP3   OH261975   7.828   7.450   6.086
20697TIP3    H161976   7.890   7.413   6.148
20697TIP3    H261977   7.833   7.545   6.100
20698TIP3   OH261978   7.566   7.142   6.310
20698TIP3    H161979   7.503   7.195   6.359
20698TIP3    H261980   7.579   7.190   6.229
20699TIP3   OH261981   8.762   6.768   7.204
20699TIP3    H161982   8.810   6.807   7.277
20699TIP3    H261983   8.730   6.684   7.239
20700TIP3   OH261984   8.622   6.510   6.377
20700TIP3    H161985   8.595   6.524   6.286
20700TIP3    H261986   8.662   6.593   6.403
20701TIP3   OH261987   8.114   7.630   6.033
20701TIP3    H161988   8.031   7.651   6.075
20701TIP3    H261989   8.129   7.703   5.972
20702TIP3   OH261990   8.265   6.719   6.468
20702TIP3    H161991   8.328   6.786   6.440
20702TIP3    H261992   8.289   6.701   6.559
20703TIP3   OH261993   8.566   6.971   7.234
20703TIP3    H161994   8.565   6.979   7.329
20703TIP3    H261995   8.628   6.900   7.216
20704TIP3   OH261996   8.430   6.419   6.555
20704TIP3    H161997   8.406   6.497   6.604
20704TIP3    H261998   8.502   6.447   6.499
20705TIP3   OH261999   7.867   7.722   6.119
20705TIP3    H162000   7.845   7.793   6.058
20705TIP3    H262001   7.848   7.758   6.206
20706TIP3   OH262002   7.956   6.419   6.354
20706TIP3    H162003   7.950   6.513   6.374
20706TIP3    H262004   8.049   6.399   6.360
20707TIP3   OH262005   8.830   7.109   6.608
20707TIP3    H162006   8.750   7.057   6.611
20707TIP3    H262007   8.892   7.062   6.664
20708TIP3   OH262008   7.588   7.299   6.082
20708TIP3    H162009   7.653   7.368   6.078
20708TIP3    H262010   7.514   7.332   6.030
20709TIP3   OH262011   7.515   6.612   6.222
20709TIP3    H162012   7.511   6.705   6.244
20709TIP3    H262013   7.487   6.608   6.130
20710TIP3   OH262014   7.884   6.339   7.092
20710TIP3    H162015   7.858   6.308   7.005
20710TIP3    H262016   7.878   6.261   7.148
20711TIP3   OH262017   7.418   7.612   6.465
20711TIP3    H162018   7.357   7.640   6.533
20711TIP3    H262019   7.381   7.648   6.384
20712TIP3   OH262020   8.078   7.607   5.712
20712TIP3    H162021   8.012   7.551   5.754
20712TIP3    H262022   8.157   7.553   5.708
20713TIP3   OH262023   8.510   7.685   5.646
20713TIP3    H162024   8.517   7.609   5.704
20713TIP3    H262025   8.548   7.655   5.563
20714TIP3   OH262026   7.760   7.515   7.673
20714TIP3    H162027   7.787   7.427   7.699
20714TIP3    H262028   7.667   7.506   7.651
20715TIP3   OH262029   7.699   7.093   5.925
20715TIP3    H162030   7.672   7.159   5.990
20715TIP3    H262031   7.782   7.126   5.891
20716TIP3   OH262032   7.849   7.260   7.727
20716TIP3    H162033   7.910   7.201   7.682
20716TIP3    H262034   7.827   7.215   7.809
20717TIP3   OH262035   7.958   7.007   6.170
20717TIP3    H162036   7.913   7.024   6.253
20717TIP3    H262037   7.913   6.931   6.134
20718TIP3   OH262038   8.158   7.099   7.356
20718TIP3    H162039   8.090   7.160   7.383
20718TIP3    H262040   8.225   7.153   7.315
20719TIP3   OH262041   8.102   6.777   5.933
20719TIP3    H162042   8.078   6.827   5.855
20719TIP3    H262043   8.053   6.817   6.004
20720TIP3   OH262044   8.825   7.172   5.661
20720TIP3    H162045   8.814   7.137   5.572
20720TIP3    H262046   8.799   7.264   5.653
20721TIP3   OH262047   8.288   6.909   7.506
20721TIP3    H162048   8.298   6.832   7.450
20721TIP3    H262049   8.244   6.973   7.450
20722TIP3   OH262050   8.309   6.706   7.311
20722TIP3    H162051   8.337   6.742   7.227
20722TIP3    H262052   8.217   6.681   7.298
20723TIP3   OH262053   8.344   7.249   7.208
20723TIP3    H162054   8.418   7.232   7.150
20723TIP3    H262055   8.285   7.303   7.156
20724TIP3   OH262056   8.066   7.075   7.660
20724TIP3    H162057   8.055   6.984   7.686
20724TIP3    H262058   8.143   7.075   7.603
20725TIP3   OH262059   8.433   6.474   7.401
20725TIP3    H162060   8.391   6.556   7.375
20725TIP3    H262061   8.364   6.408   7.391
20726TIP3   OH262062   8.561   6.960   7.504
20726TIP3    H162063   8.599   6.891   7.558
20726TIP3    H262064   8.467   6.955   7.521
20727TIP3   OH262065   8.030   6.810   7.712
20727TIP3    H162066   8.089   6.742   7.680
20727TIP3    H262067   8.009   6.783   7.802
20728TIP3   OH262068   8.557   6.477   7.644
20728TIP3    H162069   8.608   6.396   7.640
20728TIP3    H262070   8.501   6.475   7.566
20729TIP3   OH262071   8.639   6.746   7.655
20729TIP3    H162072   8.609   6.655   7.661
20729TIP3    H262073   8.675   6.764   7.742
20730TIP3   OH262074   7.866   7.939   5.939
20730TIP3    H162075   7.947   7.907   5.899
20730TIP3    H262076   7.819   7.981   5.867
20731TIP3   OH262077   7.214   7.939   6.578
20731TIP3    H162078   7.156   7.879   6.531
20731TIP3    H262079   7.269   7.881   6.631
20732TIP3   OH262080   7.364   7.762   6.732
20732TIP3    H162081   7.345   7.687   6.788
20732TIP3    H262082   7.422   7.817   6.785
20733TIP3   OH262083   8.979   7.374   6.005
20733TIP3    H162084   9.040   7.439   5.968
20733TIP3    H262085   9.027   7.336   6.079
20734TIP3   OH262086   9.112   7.232   6.203
20734TIP3    H162087   9.041   7.194   6.255
20734TIP3    H262088   9.176   7.261   6.268
20735TIP3   OH262089   9.023   7.152   5.849
20735TIP3    H162090   8.955   7.150   5.782
20735TIP3    H262091   9.002   7.228   5.903
20736TIP3   OH262092   8.895   6.788   5.788
20736TIP3    H162093   8.843   6.834   5.723
20736TIP3    H262094   8.881   6.695   5.771
20737TIP3   OH262095   8.913   7.102   6.343
20737TIP3    H162096   8.911   7.008   6.327
20737TIP3    H262097   8.887   7.112   6.435
20738TIP3   OH262098   8.845   6.514   5.767
20738TIP3    H162099   8.899   6.496   5.844
20738TIP3    H262100   8.756   6.493   5.795
20739TIP3   OH262101   8.913   6.829   6.226
20739TIP3    H162102   8.959   6.746   6.235
20739TIP3    H262103   8.951   6.870   6.148
20740TIP3   OH262104   9.033   6.966   6.748
20740TIP3    H162105   9.121   6.988   6.716
20740TIP3    H262106   9.024   7.014   6.830
20741TIP3   OH262107   7.754   6.815   7.723
20741TIP3    H162108   7.849   6.821   7.719
20741TIP3    H262109   7.737   6.733   7.769
20742TIP3   OH262110   9.031   6.582   6.284
20742TIP3    H162111   9.064   6.598   6.372
20742TIP3    H262112   8.973   6.507   6.293
20743TIP3   OH262113   7.736   6.572   7.132
20743TIP3    H162114   7.784   6.489   7.128
20743TIP3    H262115   7.798   6.637   7.099
20744TIP3   OH262116   7.520   6.872   7.182
20744TIP3    H162117   7.564   6.872   7.097
20744TIP3    H262118   7.590   6.852   7.245
20745TIP3   OH262119   9.076   6.480   5.928
20745TIP3    H162120   9.120   6.424   5.864
20745TIP3    H262121   9.126   6.562   5.926
20746TIP3   OH262122   7.500   6.323   6.662
20746TIP3    H162123   7.417   6.316   6.709
20746TIP3    H262124   7.481   6.381   6.588
20747TIP3   OH262125   8.669   8.059   6.199
20747TIP3    H162126   8.694   8.020   6.115
20747TIP3    H262127   8.734   8.128   6.213
20748TIP3   OH262128   7.723   6.344   7.452
20748TIP3    H162129   7.681   6.344   7.538
20748TIP3    H262130   7.670   6.404   7.400
20749TIP3   OH262131   7.733   7.753   7.535
20749TIP3    H162132   7.642   7.782   7.538
20749TIP3    H262133   7.737   7.679   7.596
20750TIP3   OH262134   7.978   7.855   7.103
20750TIP3    H162135   7.909   7.914   7.072
20750TIP3    H262136   8.058   7.885   7.060
20751TIP3   OH262137   9.314   6.598   7.094
20751TIP3    H162138   9.275   6.597   7.181
20751TIP3    H262139   9.378   6.526   7.095
20752TIP3   OH262140   7.601   8.098   7.164
20752TIP3    H162141   7.516   8.139   7.147
20752TIP3    H262142   7.635   8.145   7.240
20753TIP3   OH262143   7.818   8.049   6.996
20753TIP3    H162144   7.739   8.073   7.045
20753TIP3    H262145   7.813   8.104   6.917
20754TIP3   OH262146   7.545   7.921   6.879
20754TIP3    H162147   7.563   7.891   6.969
20754TIP3    H262148   7.620   7.890   6.828
20755TIP3   OH262149   7.746   7.811   6.733
20755TIP3    H162150   7.752   7.724   6.773
20755TIP3    H262151   7.835   7.845   6.737
20756TIP3   OH262152   8.016   7.877   6.751
20756TIP3    H162153   8.034   7.783   6.744
20756TIP3    H262154   8.068   7.906   6.826
20757TIP3   OH262155   8.559   6.540   6.874
20757TIP3    H162156   8.517   6.467   6.919
20757TIP3    H262157   8.626   6.499   6.819
20758TIP3   OH262158   9.230   6.525   6.616
20758TIP3    H162159   9.285   6.461   6.571
20758TIP3    H262160   9.223   6.598   6.555
20759TIP3   OH262161   7.815   6.233   6.846
20759TIP3    H162162   7.725   6.202   6.854
20759TIP3    H262163   7.867   6.153   6.838
20760TIP3   OH262164   7.648   6.140   6.511
20760TIP3    H162165   7.664   6.189   6.430
20760TIP3    H262166   7.602   6.202   6.567
20761TIP3   OH262167   8.299   6.258   6.745
20761TIP3    H162168   8.338   6.315   6.679
20761TIP3    H262169   8.332   6.291   6.828
20762TIP3   OH262170   8.772   6.434   6.738
20762TIP3    H162171   8.799   6.411   6.649
20762TIP3    H262172   8.790   6.356   6.790
20763TIP3   OH262173   8.852   6.368   6.310
20763TIP3    H162174   8.770   6.414   6.329
20763TIP3    H262175   8.837   6.278   6.340
20764TIP3   OH262176   7.306   7.735   6.240
20764TIP3    H162177   7.222   7.698   6.213
20764TIP3    H262178   7.298   7.829   6.222
20765TIP3   OH262179   7.737   6.265   6.264
20765TIP3    H162180   7.782   6.202   6.208
20765TIP3    H262181   7.808   6.317   6.302
20766TIP3   OH262182   8.237   6.473   6.350
20766TIP3    H162183   8.292   6.422   6.410
20766TIP3    H262184   8.233   6.560   6.389
20767TIP3   OH262185   8.106   7.843   5.848
20767TIP3    H162186   8.191   7.874   5.816
20767TIP3    H262187   8.084   7.769   5.791
20768TIP3   OH262188   8.782   7.979   5.956
20768TIP3    H162189   8.785   7.883   5.951
20768TIP3    H262190   8.742   8.005   5.873
20769TIP3   OH262191   7.997   6.490   7.677
20769TIP3    H162192   7.967   6.428   7.744
20769TIP3    H262193   8.086   6.511   7.703
20770TIP3   OH262194   8.256   6.565   7.743
20770TIP3    H162195   8.293   6.653   7.738
20770TIP3    H262196   8.330   6.509   7.767
20771TIP3   OH262197   7.404   7.717   5.964
20771TIP3    H162198   7.391   7.724   6.058
20771TIP3    H262199   7.406   7.623   5.946
20772TIP3   OH262200   9.267   7.007   6.129
20772TIP3    H162201   9.227   7.091   6.152
20772TIP3    H262202   9.199   6.960   6.082
20773TIP3   OH262203   9.333   7.282   6.358
20773TIP3    H162204   9.388   7.212   6.393
20773TIP3    H262205   9.394   7.337   6.308
20774TIP3   OH262206   0.065   6.813   6.291
20774TIP3    H162207   0.070   6.901   6.252
20774TIP3    H262208  -0.017   6.776   6.258
20775TIP3   OH262209   9.506   7.080   6.448
20775TIP3    H162210   9.595   7.114   6.453
20775TIP3    H262211   9.504   7.031   6.366
20776TIP3   OH262212   9.149   7.546   5.872
20776TIP3    H162213   9.112   7.569   5.787
20776TIP3    H262214   9.176   7.629   5.910
20777TIP3   OH262215   0.286   7.391   5.603
20777TIP3    H162216   0.216   7.455   5.618
20777TIP3    H262217   0.334   7.389   5.686
20778TIP3   OH262218   0.256   7.168   5.442
20778TIP3    H162219   0.280   7.245   5.493
20778TIP3    H262220   0.288   7.094   5.494
20779TIP3   OH262221   9.577   7.253   5.872
20779TIP3    H162222   9.499   7.306   5.853
20779TIP3    H262223   9.542   7.168   5.898
20780TIP3   OH262224   0.279   6.647   5.626
20780TIP3    H162225   0.267   6.677   5.716
20780TIP3    H262226   0.192   6.618   5.599
20781TIP3   OH262227   9.782   7.034   6.138
20781TIP3    H162228   9.692   7.022   6.168
20781TIP3    H262229   9.779   7.016   6.044
20782TIP3   OH262230   9.751   6.750   5.569
20782TIP3    H162231   9.741   6.747   5.664
20782TIP3    H262232   9.669   6.788   5.538
20783TIP3   OH262233   9.269   6.709   6.423
20783TIP3    H162234   9.345   6.753   6.461
20783TIP3    H262235   9.297   6.686   6.334
20784TIP3   OH262236   9.224   6.717   5.931
20784TIP3    H162237   9.270   6.750   5.854
20784TIP3    H262238   9.159   6.784   5.952
20785TIP3   OH262239   9.525   6.949   6.210
20785TIP3    H162240   9.438   6.960   6.172
20785TIP3    H262241   9.549   6.858   6.191
20786TIP3   OH262242   9.769   6.968   5.871
20786TIP3    H162243   9.855   6.993   5.836
20786TIP3    H262244   9.707   6.990   5.801
20787TIP3   OH262245   9.613   7.005   5.653
20787TIP3    H162246   9.549   6.955   5.602
20787TIP3    H262247   9.673   7.041   5.587
20788TIP3   OH262248   9.642   6.696   6.175
20788TIP3    H162249   9.623   6.622   6.232
20788TIP3    H262250   9.662   6.656   6.090
20789TIP3   OH262251   0.050   7.533   5.694
20789TIP3    H162252  -0.006   7.461   5.663
20789TIP3    H262253   0.042   7.530   5.789
20790TIP3   OH262254   0.634   6.888   5.572
20790TIP3    H162255   0.673   6.800   5.570
20790TIP3    H262256   0.632   6.911   5.665
20791TIP3   OH262257   9.266   7.138   5.718
20791TIP3    H162258   9.305   7.223   5.734
20791TIP3    H262259   9.182   7.141   5.765
20792TIP3   OH262260   9.741   7.675   5.324
20792TIP3    H162261   9.712   7.591   5.289
20792TIP3    H262262   9.693   7.685   5.406
20793TIP3   OH262263   9.650   7.700   5.585
20793TIP3    H162264   9.723   7.650   5.620
20793TIP3    H262265   9.663   7.789   5.618
20794TIP3   OH262266   9.357   7.392   5.783
20794TIP3    H162267   9.286   7.434   5.832
20794TIP3    H262268   9.379   7.455   5.714
20795TIP3   OH262269   0.591   6.938   5.836
20795TIP3    H162270   0.614   6.846   5.850
20795TIP3    H262271   0.647   6.987   5.897
20796TIP3   OH262272   0.256   7.025   5.917
20796TIP3    H162273   0.308   7.085   5.864
20796TIP3    H262274   0.210   7.082   5.979
20797TIP3   OH262275   0.378   6.713   6.097
20797TIP3    H162276   0.416   6.799   6.116
20797TIP3    H262277   0.451   6.660   6.065
20798TIP3   OH262278   9.743   6.694   5.854
20798TIP3    H162279   9.729   6.785   5.877
20798TIP3    H262280   9.838   6.681   5.861
20799TIP3   OH262281   9.393   7.579   5.579
20799TIP3    H162282   9.465   7.641   5.584
20799TIP3    H262283   9.420   7.516   5.513
20800TIP3   OH262284   9.291   6.862   5.709
20800TIP3    H162285   9.301   6.957   5.720
20800TIP3    H262286   9.227   6.852   5.639
20801TIP3   OH262287   9.647   6.590   6.599
20801TIP3    H162288   9.648   6.558   6.509
20801TIP3    H262289   9.682   6.516   6.650
20802TIP3   OH262290   9.213   7.796   5.957
20802TIP3    H162291   9.175   7.842   6.032
20802TIP3    H262292   9.193   7.853   5.882
20803TIP3   OH262293   0.070   7.885   5.194
20803TIP3    H162294   0.027   7.817   5.246
20803TIP3    H262295   0.149   7.843   5.161
20804TIP3   OH262296   9.505   7.384   5.426
20804TIP3    H162297   9.558   7.358   5.502
20804TIP3    H262298   9.568   7.398   5.356
20805TIP3   OH262299   0.202   7.594   5.273
20805TIP3    H162300   0.117   7.620   5.306
20805TIP3    H262301   0.192   7.501   5.253
20806TIP3   OH262302   9.686   7.325   5.632
20806TIP3    H162303   9.651   7.290   5.714
20806TIP3    H262304   9.724   7.249   5.588
20807TIP3   OH262305  -0.011   7.122   5.480
20807TIP3    H162306  -0.044   7.131   5.391
20807TIP3    H262307   0.084   7.129   5.472
20808TIP3   OH262308   7.230   7.133   7.574
20808TIP3    H162309   7.312   7.177   7.598
20808TIP3    H262310   7.198   7.180   7.498
20809TIP3   OH262311   9.117   7.576   5.577
20809TIP3    H162312   9.212   7.588   5.582
20809TIP3    H262313   9.106   7.486   5.546
20810TIP3   OH262314   8.885   8.205   6.069
20810TIP3    H162315   8.861   8.124   6.025
20810TIP3    H262316   8.981   8.203   6.072
20811TIP3   OH262317   9.489   6.808   6.558
20811TIP3    H162318   9.552   6.738   6.573
20811TIP3    H262319   9.542   6.884   6.535
20812TIP3   OH262320   9.293   7.035   6.658
20812TIP3    H162321   9.349   7.012   6.585
20812TIP3    H262322   9.291   7.131   6.658
20813TIP3   OH262323   9.288   6.593   6.165
20813TIP3    H162324   9.199   6.574   6.196
20813TIP3    H262325   9.275   6.643   6.085
20814TIP3   OH262326   9.447   6.533   6.806
20814TIP3    H162327   9.499   6.454   6.818
20814TIP3    H262328   9.504   6.593   6.759
20815TIP3   OH262329   9.601   6.478   6.346
20815TIP3    H162330   9.512   6.448   6.363
20815TIP3    H262331   9.652   6.398   6.332
20816TIP3   OH262332   9.451   6.414   6.018
20816TIP3    H162333   9.459   6.460   5.935
20816TIP3    H262334   9.399   6.472   6.073
20817TIP3   OH262335   0.189   6.568   6.233
20817TIP3    H162336   0.264   6.610   6.192
20817TIP3    H262337   0.141   6.640   6.274
20818TIP3   OH262338   9.118   7.950   5.751
20818TIP3    H162339   9.033   7.910   5.732
20818TIP3    H262340   9.113   8.037   5.713
20819TIP3   OH262341   9.522   6.537   5.771
20819TIP3    H162342   9.560   6.467   5.718
20819TIP3    H262343   9.597   6.590   5.798
20820TIP3   OH262344   0.220   6.749   5.876
20820TIP3    H162345   0.266   6.722   5.955
20820TIP3    H262346   0.223   6.845   5.878
20821TIP3   OH262347   9.203   7.947   5.398
20821TIP3    H162348   9.200   7.956   5.493
20821TIP3    H262349   9.286   7.903   5.380
20822TIP3   OH262350   8.292   2.945   0.398
20822TIP3    H162351   8.326   2.939   0.487
20822TIP3    H262352   8.359   2.905   0.343
20823TIP3   OH262353   7.633   3.180   0.606
20823TIP3    H162354   7.674   3.094   0.603
20823TIP3    H262355   7.574   3.181   0.530
20824TIP3   OH262356   7.723   3.052   0.145
20824TIP3    H162357   7.792   3.009   0.195
20824TIP3    H262358   7.697   2.987   0.079
20825TIP3   OH262359   8.359   3.307   0.813
20825TIP3    H162360   8.360   3.353   0.729
20825TIP3    H262361   8.406   3.225   0.796
20826TIP3   OH262362   7.899   2.920   0.310
20826TIP3    H162363   7.947   2.865   0.372
20826TIP3    H262364   7.966   2.972   0.266
20827TIP3   OH262365   8.112   2.875   0.695
20827TIP3    H162366   8.089   2.852   0.605
20827TIP3    H262367   8.121   2.970   0.694
20828TIP3   OH262368   1.149   8.415   7.867
20828TIP3    H162369   1.140   8.337   7.811
20828TIP3    H262370   1.169   8.380   7.953
20829TIP3   OH262371   8.179   3.492   0.381
20829TIP3    H162372   8.138   3.536   0.456
20829TIP3    H262373   8.220   3.563   0.331
20830TIP3   OH262374   1.140   8.021   7.886
20830TIP3    H162375   1.082   7.990   7.955
20830TIP3    H262376   1.226   7.984   7.908
20831TIP3   OH262377   1.026   7.821   7.730
20831TIP3    H162378   1.060   7.901   7.772
20831TIP3    H262379   1.022   7.843   7.637
20832TIP3   OH262380   1.492   7.066   7.738
20832TIP3    H162381   1.398   7.080   7.743
20832TIP3    H262382   1.527   7.146   7.698
20833TIP3   OH262383   1.306   8.458   7.317
20833TIP3    H162384   1.305   8.553   7.325
20833TIP3    H262385   1.398   8.436   7.304
20834TIP3   OH262386   7.679   2.792   1.114
20834TIP3    H162387   7.742   2.747   1.171
20834TIP3    H262388   7.607   2.730   1.104
20835TIP3   OH262389   1.043   7.838   7.455
20835TIP3    H162390   1.007   7.822   7.368
20835TIP3    H262391   1.124   7.887   7.439
20836TIP3   OH262392   7.544   3.067   0.352
20836TIP3    H162393   7.462   3.095   0.311
20836TIP3    H262394   7.611   3.088   0.287
20837TIP3   OH262395   7.764   2.933   0.586
20837TIP3    H162396   7.735   2.894   0.668
20837TIP3    H262397   7.725   2.879   0.518
20838TIP3   OH262398   0.926   7.418   7.676
20838TIP3    H162399   0.872   7.426   7.755
20838TIP3    H262400   1.014   7.444   7.705
20839TIP3   OH262401   1.135   7.577   7.764
20839TIP3    H162402   1.226   7.595   7.789
20839TIP3    H262403   1.096   7.664   7.752
20840TIP3   OH262404   1.529   7.715   7.659
20840TIP3    H162405   1.477   7.667   7.595
20840TIP3    H262406   1.520   7.806   7.634
20841TIP3   OH262407   1.237   8.524   7.628
20841TIP3    H162408   1.205   8.501   7.716
20841TIP3    H262409   1.244   8.440   7.583
20842TIP3   OH262410   1.308   8.749   7.306
20842TIP3    H162411   1.381   8.810   7.299
20842TIP3    H262412   1.247   8.776   7.238
20843TIP3   OH262413   1.176   8.204   7.684
20843TIP3    H162414   1.150   8.138   7.748
20843TIP3    H262415   1.272   8.195   7.678
20844TIP3   OH262416   7.711   2.849   0.837
20844TIP3    H162417   7.791   2.894   0.862
20844TIP3    H262418   7.674   2.818   0.919
20845TIP3   OH262419   1.005   7.179   7.970
20845TIP3    H162420   1.057   7.159   7.893
20845TIP3    H262421   1.030   7.269   7.994
20846TIP3   OH262422   8.214   3.079   0.940
20846TIP3    H162423   8.146   3.120   0.995
20846TIP3    H262424   8.190   3.103   0.851
20847TIP3   OH262425   7.807   3.297   0.290
20847TIP3    H162426   7.800   3.241   0.213
20847TIP3    H262427   7.843   3.240   0.358
20848TIP3   OH262428   1.263   7.978   7.360
20848TIP3    H162429   1.266   7.941   7.272
20848TIP3    H262430   1.230   8.067   7.347
20849TIP3   OH262431   1.450   8.176   7.686
20849TIP3    H162432   1.508   8.243   7.651
20849TIP3    H262433   1.500   8.133   7.755
20850TIP3   OH262434   1.611   8.034   7.860
20850TIP3    H162435   1.563   8.016   7.941
20850TIP3    H262436   1.690   8.080   7.889
20851TIP3   OH262437   1.478   7.952   7.530
20851TIP3    H162438   1.401   7.953   7.473
20851TIP3    H262439   1.465   8.028   7.587
20852TIP3   OH262440   1.389   7.592   7.464
20852TIP3    H162441   1.325   7.618   7.398
20852TIP3    H262442   1.368   7.500   7.484
20853TIP3   OH262443   7.883   3.256  -0.020
20853TIP3    H162444   7.896   3.161  -0.026
20853TIP3    H262445   7.950   3.286   0.040
20854TIP3   OH262446   1.331   7.323   7.488
20854TIP3    H162447   1.415   7.308   7.531
20854TIP3    H262448   1.266   7.295   7.552
20855TIP3   OH262449   1.388   7.608   7.874
20855TIP3    H162450   1.425   7.521   7.882
20855TIP3    H262451   1.441   7.651   7.806
20856TIP3   OH262452   8.138   3.224   0.372
20856TIP3    H162453   8.212   3.198   0.426
20856TIP3    H262454   8.132   3.319   0.383
20857TIP3   OH262455   8.702   2.976   1.123
20857TIP3    H162456   8.704   2.881   1.130
20857TIP3    H262457   8.613   2.997   1.095
20858TIP3   OH262458   1.483   7.347   7.876
20858TIP3    H162459   1.484   7.298   7.959
20858TIP3    H262460   1.407   7.312   7.829
20859TIP3   OH262461   8.460   2.982   0.991
20859TIP3    H162462   8.383   3.034   0.970
20859TIP3    H262463   8.432   2.891   0.977
20860TIP3   OH262464   1.583   7.279   7.581
20860TIP3    H162465   1.630   7.216   7.527
20860TIP3    H262466   1.639   7.356   7.583
20861TIP3   OH262467   8.315   2.774   0.872
20861TIP3    H162468   8.240   2.785   0.813
20861TIP3    H262469   8.352   2.689   0.848
20862TIP3   OH262470   7.479   2.778   0.611
20862TIP3    H162471   7.489   2.685   0.631
20862TIP3    H262472   7.508   2.786   0.520
20863TIP3   OH262473   8.196   2.544   0.285
20863TIP3    H162474   8.284   2.580   0.278
20863TIP3    H262475   8.142   2.599   0.230
20864TIP3   OH262476   8.397   2.722   0.223
20864TIP3    H162477   8.412   2.648   0.163
20864TIP3    H262478   8.360   2.791   0.167
20865TIP3   OH262479   7.577   2.514   0.301
20865TIP3    H162480   7.637   2.566   0.248
20865TIP3    H262481   7.633   2.461   0.357
20866TIP3   OH262482   1.340   7.117   8.020
20866TIP3    H162483   1.299   7.136   7.936
20866TIP3    H262484   1.317   7.026   8.038
20867TIP3   OH262485   1.289   8.789   7.589
20867TIP3    H162486   1.267   8.700   7.617
20867TIP3    H262487   1.268   8.790   7.495
20868TIP3   OH262488   2.758   8.313   7.577
20868TIP3    H162489   2.723   8.399   7.555
20868TIP3    H262490   2.688   8.252   7.554
20869TIP3   OH262491   9.287   3.674  -0.003
20869TIP3    H162492   9.341   3.658   0.074
20869TIP3    H262493   9.249   3.588  -0.024
20870TIP3   OH262494   8.618   3.603   0.286
20870TIP3    H162495   8.626   3.526   0.343
20870TIP3    H262496   8.704   3.611   0.245
20871TIP3   OH262497   3.017   8.606   7.673
20871TIP3    H162498   3.004   8.537   7.738
20871TIP3    H262499   3.043   8.683   7.724
20872TIP3   OH262500   8.652   3.950   0.094
20872TIP3    H162501   8.607   3.871   0.064
20872TIP3    H262502   8.719   3.967   0.027
20873TIP3   OH262503   1.718   7.762   7.858
20873TIP3    H162504   1.698   7.854   7.878
20873TIP3    H262505   1.655   7.739   7.790
20874TIP3   OH262506   1.836   8.136   7.980
20874TIP3    H162507   1.891   8.067   8.015
20874TIP3    H262508   1.895   8.209   7.964
20875TIP3   OH262509   2.681   9.029   7.690
20875TIP3    H162510   2.711   8.975   7.616
20875TIP3    H262511   2.679   8.969   7.764
20876TIP3   OH262512   9.119   3.896   0.004
20876TIP3    H162513   9.162   3.814  -0.019
20876TIP3    H262514   9.191   3.954   0.031
20877TIP3   OH262515   0.327   3.226   0.023
20877TIP3    H162516   0.345   3.311   0.065
20877TIP3    H262517   0.362   3.236  -0.065
20878TIP3   OH262518   9.501   3.397   0.040
20878TIP3    H162519   9.534   3.312   0.070
20878TIP3    H262520   9.465   3.379  -0.047
20879TIP3   OH262521   2.335   7.668   7.986
20879TIP3    H162522   2.312   7.742   7.929
20879TIP3    H262523   2.278   7.597   7.957
20880TIP3   OH262524   3.021   7.776   7.637
20880TIP3    H162525   3.083   7.771   7.709
20880TIP3    H262526   3.071   7.809   7.562
20881TIP3   OH262527   8.545   3.324   0.082
20881TIP3    H162528   8.621   3.289   0.127
20881TIP3    H262529   8.521   3.256   0.019
20882TIP3   OH262530   2.387   8.085   7.921
20882TIP3    H162531   2.480   8.064   7.931
20882TIP3    H262532   2.346   8.003   7.894
20883TIP3   OH262533   0.381   3.447   0.187
20883TIP3    H162534   0.293   3.484   0.185
20883TIP3    H262535   0.420   3.482   0.267
20884TIP3   OH262536   8.883   3.045   0.423
20884TIP3    H162537   8.814   3.089   0.372
20884TIP3    H262538   8.848   3.041   0.512
20885TIP3   OH262539   2.624   8.521   7.458
20885TIP3    H162540   2.596   8.501   7.369
20885TIP3    H262541   2.586   8.606   7.478
20886TIP3   OH262542   8.938   3.863   0.209
20886TIP3    H162543   8.858   3.912   0.189
20886TIP3    H262544   8.999   3.888   0.141
20887TIP3   OH262545   3.173   7.806   7.861
20887TIP3    H162546   3.134   7.783   7.945
20887TIP3    H262547   3.233   7.878   7.881
20888TIP3   OH262548   8.754   3.173   0.202
20888TIP3    H162549   8.811   3.244   0.230
20888TIP3    H262550   8.804   3.128   0.133
20889TIP3   OH262551   1.623   8.353   7.564
20889TIP3    H162552   1.594   8.377   7.476
20889TIP3    H262553   1.647   8.436   7.605
20890TIP3   OH262554   3.058   8.845   7.816
20890TIP3    H162555   2.969   8.844   7.851
20890TIP3    H262556   3.061   8.923   7.760
20891TIP3   OH262557   0.137   3.110   0.192
20891TIP3    H162558   0.052   3.138   0.158
20891TIP3    H262559   0.200   3.138   0.125
20892TIP3   OH262560   9.201   2.740   0.168
20892TIP3    H162561   9.195   2.648   0.194
20892TIP3    H262562   9.121   2.780   0.202
20893TIP3   OH262563   2.778   8.901   7.463
20893TIP3    H162564   2.827   8.819   7.456
20893TIP3    H262565   2.842   8.969   7.441
20894TIP3   OH262566   2.920   8.675   7.424
20894TIP3    H162567   2.920   8.597   7.368
20894TIP3    H262568   2.956   8.644   7.508
20895TIP3   OH262569   0.037   4.114   0.153
20895TIP3    H162570   0.017   4.041   0.094
20895TIP3    H262571   0.020   4.192   0.100
20896TIP3   OH262572   2.581   8.150   7.432
20896TIP3    H162573   2.500   8.198   7.413
20896TIP3    H262574   2.629   8.151   7.348
20897TIP3   OH262575   2.552   7.962   7.113
20897TIP3    H162576   2.616   8.010   7.165
20897TIP3    H262577   2.603   7.893   7.070
20898TIP3   OH262578   0.206   3.793   0.033
20898TIP3    H162579   0.119   3.832   0.023
20898TIP3    H262580   0.246   3.800  -0.053
20899TIP3   OH262581   2.942   8.247   7.387
20899TIP3    H162582   2.888   8.272   7.461
20899TIP3    H262583   3.025   8.218   7.426
20900TIP3   OH262584   9.703   3.648   0.334
20900TIP3    H162585   9.702   3.728   0.385
20900TIP3    H262586   9.620   3.648   0.286
20901TIP3   OH262587   2.180   8.217   7.788
20901TIP3    H162588   2.142   8.155   7.725
20901TIP3    H262589   2.256   8.170   7.824
20902TIP3   OH262590   2.334   8.615   7.929
20902TIP3    H162591   2.308   8.604   7.837
20902TIP3    H262592   2.423   8.581   7.933
20903TIP3   OH262593   8.849   3.606   0.145
20903TIP3    H162594   8.880   3.572   0.061
20903TIP3    H262595   8.895   3.690   0.155
20904TIP3   OH262596   2.816   8.851   7.945
20904TIP3    H162597   2.806   8.928   8.001
20904TIP3    H262598   2.813   8.776   8.005
20905TIP3   OH262599   2.770   8.105   7.224
20905TIP3    H162600   2.831   8.161   7.271
20905TIP3    H262601   2.799   8.110   7.133
20906TIP3   OH262602   2.526   8.780   7.483
20906TIP3    H162603   2.610   8.825   7.482
20906TIP3    H262604   2.469   8.834   7.428
20907TIP3   OH262605   3.284   7.330   7.281
20907TIP3    H162606   3.208   7.352   7.335
20907TIP3    H262607   3.293   7.405   7.222
20908TIP3   OH262608   2.049   8.059   7.592
20908TIP3    H162609   1.970   8.104   7.563
20908TIP3    H262610   2.020   7.970   7.613
20909TIP3   OH262611   3.110   8.703   6.837
20909TIP3    H162612   3.106   8.796   6.814
20909TIP3    H262613   3.199   8.676   6.814
20910TIP3   OH262614   0.268   4.493   0.199
20910TIP3    H162615   0.277   4.398   0.205
20910TIP3    H262616   0.212   4.517   0.272
20911TIP3   OH262617   2.415   8.975   7.306
20911TIP3    H162618   2.369   8.961   7.222
20911TIP3    H262619   2.382   9.059   7.337
20912TIP3   OH262620   1.856   8.813   7.679
20912TIP3    H162621   1.890   8.805   7.768
20912TIP3    H262622   1.795   8.740   7.670
20913TIP3   OH262623   2.617   8.919   6.939
20913TIP3    H162624   2.667   8.845   6.904
20913TIP3    H262625   2.650   8.931   7.028
20914TIP3   OH262626   2.669   8.959   7.208
20914TIP3    H162627   2.581   8.961   7.244
20914TIP3    H262628   2.722   8.919   7.277
20915TIP3   OH262629   0.146   3.605   0.504
20915TIP3    H162630   0.063   3.608   0.456
20915TIP3    H262631   0.171   3.513   0.504
20916TIP3   OH262632   8.962   2.829   0.273
20916TIP3    H162633   8.876   2.800   0.243
20916TIP3    H262634   8.945   2.912   0.317
20917TIP3   OH262635   9.499   2.964   0.501
20917TIP3    H162636   9.568   2.938   0.562
20917TIP3    H262637   9.417   2.946   0.547
20918TIP3   OH262638   9.710   3.381   0.410
20918TIP3    H162639   9.674   3.375   0.498
20918TIP3    H262640   9.695   3.471   0.383
20919TIP3   OH262641   2.848   8.096   6.963
20919TIP3    H162642   2.805   8.092   6.878
20919TIP3    H262643   2.933   8.136   6.944
20920TIP3   OH262644   2.552   7.510   7.276
20920TIP3    H162645   2.520   7.515   7.366
20920TIP3    H262646   2.521   7.425   7.244
20921TIP3   OH262647   8.910   3.378   0.286
20921TIP3    H162648   8.879   3.398   0.375
20921TIP3    H262649   8.893   3.458   0.237
20922TIP3   OH262650   2.234   7.871   7.831
20922TIP3    H162651   2.145   7.849   7.857
20922TIP3    H262652   2.243   7.838   7.741
20923TIP3   OH262653   2.707   7.947   7.566
20923TIP3    H162654   2.660   8.020   7.525
20923TIP3    H262655   2.766   7.915   7.498
20924TIP3   OH262656   9.439   3.593   0.619
20924TIP3    H162657   9.409   3.530   0.684
20924TIP3    H262658   9.528   3.615   0.645
20925TIP3   OH262659   2.872   7.959   7.791
20925TIP3    H162660   2.807   7.979   7.723
20925TIP3    H262661   2.923   7.887   7.754
20926TIP3   OH262662   8.702   3.417   0.474
20926TIP3    H162663   8.716   3.447   0.564
20926TIP3    H262664   8.670   3.327   0.484
20927TIP3   OH262665   2.222   7.483   7.255
20927TIP3    H162666   2.216   7.490   7.351
20927TIP3    H262667   2.144   7.529   7.224
20928TIP3   OH262668   8.274   2.885   0.039
20928TIP3    H162669   8.302   2.976   0.028
20928TIP3    H262670   8.297   2.843  -0.044
20929TIP3   OH262671   1.721   7.518   7.606
20929TIP3    H162672   1.756   7.554   7.525
20929TIP3    H262673   1.659   7.585   7.636
20930TIP3   OH262674   9.449   3.598   0.212
20930TIP3    H162675   9.477   3.531   0.150
20930TIP3    H262676   9.408   3.550   0.284
20931TIP3   OH262677   2.600   7.659   7.884
20931TIP3    H162678   2.522   7.658   7.939
20931TIP3    H262679   2.673   7.650   7.946
20932TIP3   OH262680   1.994   7.749   7.888
20932TIP3    H162681   1.900   7.741   7.871
20932TIP3    H262682   2.027   7.659   7.880
20933TIP3   OH262683   2.242   7.750   7.585
20933TIP3    H162684   2.337   7.761   7.577
20933TIP3    H262685   2.208   7.769   7.498
20934TIP3   OH262686   9.565   3.133   0.095
20934TIP3    H162687   9.547   3.149   0.188
20934TIP3    H262688   9.498   3.069   0.069
20935TIP3   OH262689   2.129   7.778   7.337
20935TIP3    H162690   2.066   7.728   7.285
20935TIP3    H262691   2.183   7.823   7.272
20936TIP3   OH262692   2.652   8.026   7.980
20936TIP3    H162693   2.720   7.982   7.928
20936TIP3    H262694   2.656   7.983   8.066
20937TIP3   OH262695   2.135   7.503   7.868
20937TIP3    H162696   2.112   7.424   7.917
20937TIP3    H262697   2.159   7.471   7.781
20938TIP3   OH262698   9.172   3.309   0.240
20938TIP3    H162699   9.083   3.338   0.263
20938TIP3    H262700   9.229   3.360   0.298
20939TIP3   OH262701   2.344   8.288   7.377
20939TIP3    H162702   2.269   8.234   7.352
20939TIP3    H262703   2.315   8.332   7.457
20940TIP3   OH262704   3.235   8.540   7.974
20940TIP3    H162705   3.271   8.588   7.900
20940TIP3    H262706   3.155   8.498   7.939
20941TIP3   OH262707   2.809   7.608   7.285
20941TIP3    H162708   2.715   7.589   7.279
20941TIP3    H262709   2.813   7.703   7.296
20942TIP3   OH262710   9.316   3.944   0.381
20942TIP3    H162711   9.392   3.932   0.438
20942TIP3    H262712   9.245   3.967   0.441
20943TIP3   OH262713   2.871   7.872   7.351
20943TIP3    H162714   2.966   7.874   7.361
20943TIP3    H262715   2.851   7.950   7.298
20944TIP3   OH262716   8.577   3.696   0.003
20944TIP3    H162717   8.626   3.670  -0.075
20944TIP3    H262718   8.619   3.648   0.075
20945TIP3   OH262719   2.498   8.444   7.215
20945TIP3    H162720   2.451   8.528   7.212
20945TIP3    H262721   2.444   8.388   7.270
20946TIP3   OH262722   9.183   3.784   0.620
20946TIP3    H162723   9.165   3.743   0.535
20946TIP3    H262724   9.271   3.757   0.642
20947TIP3   OH262725   9.482   4.282   0.287
20947TIP3    H162726   9.400   4.316   0.322
20947TIP3    H262727   9.522   4.356   0.242
20948TIP3   OH262728   3.282   7.961   7.166
20948TIP3    H162729   3.224   7.917   7.104
20948TIP3    H262730   3.290   8.050   7.132
20949TIP3   OH262731   0.275   4.221   0.235
20949TIP3    H162732   0.185   4.188   0.233
20949TIP3    H262733   0.314   4.186   0.155
20950TIP3   OH262734   3.023   8.767   7.097
20950TIP3    H162735   3.001   8.692   7.152
20950TIP3    H262736   3.048   8.728   7.013
20951TIP3   OH262737   3.002   8.407   7.877
20951TIP3    H162738   2.913   8.382   7.901
20951TIP3    H262739   3.040   8.327   7.840
20952TIP3   OH262740   2.161   8.651   7.704
20952TIP3    H162741   2.148   8.714   7.633
20952TIP3    H262742   2.093   8.673   7.768
20953TIP3   OH262743   1.712   7.937   7.389
20953TIP3    H162744   1.762   8.014   7.415
20953TIP3    H262745   1.632   7.941   7.442
20954TIP3   OH262746   2.227   8.408   7.590
20954TIP3    H162747   2.208   8.495   7.627
20954TIP3    H262748   2.211   8.348   7.663
20955TIP3   OH262749   2.082   8.859   7.536
20955TIP3    H162750   1.996   8.855   7.577
20955TIP3    H262751   2.105   8.952   7.538
20956TIP3   OH262752   9.354   4.004   0.110
20956TIP3    H162753   9.346   3.991   0.204
20956TIP3    H262754   9.433   3.954   0.086
20957TIP3   OH262755   2.796   8.511   7.000
20957TIP3    H162756   2.840   8.495   7.083
20957TIP3    H262757   2.712   8.466   7.008
20958TIP3   OH262758   9.573   4.493   0.133
20958TIP3    H162759   9.482   4.497   0.101
20958TIP3    H262760   9.611   4.576   0.105
20959TIP3   OH262761   3.111   8.975   6.797
20959TIP3    H162762   3.147   9.043   6.740
20959TIP3    H262763   3.032   9.013   6.835
20960TIP3   OH262764   8.837   3.103   0.715
20960TIP3    H162765   8.780   3.138   0.783
20960TIP3    H262766   8.884   3.031   0.758
20961TIP3   OH262767   2.968   8.466   7.219
20961TIP3    H162768   2.949   8.391   7.275
20961TIP3    H262769   3.061   8.459   7.200
20962TIP3   OH262770   2.140   8.476   7.008
20962TIP3    H162771   2.152   8.385   6.980
20962TIP3    H262772   2.128   8.470   7.103
20963TIP3   OH262773   2.087   8.484   7.282
20963TIP3    H162774   2.146   8.458   7.352
20963TIP3    H262775   2.086   8.579   7.284
20964TIP3   OH262776   1.822   8.176   7.482
20964TIP3    H162777   1.756   8.224   7.533
20964TIP3    H262778   1.844   8.235   7.410
20965TIP3   OH262779   9.512   3.196   0.357
20965TIP3    H162780   9.592   3.242   0.383
20965TIP3    H262781   9.509   3.118   0.412
20966TIP3   OH262782   2.873   7.557   7.551
20966TIP3    H162783   2.853   7.575   7.459
20966TIP3    H262784   2.917   7.635   7.582
20967TIP3   OH262785   2.356   8.674   7.211
20967TIP3    H162786   2.271   8.696   7.248
20967TIP3    H262787   2.380   8.749   7.157
20968TIP3   OH262788   2.520   7.758   7.638
20968TIP3    H162789   2.582   7.826   7.611
20968TIP3    H262790   2.547   7.735   7.727
20969TIP3   OH262791   9.355   3.430   0.407
20969TIP3    H162792   9.381   3.479   0.486
20969TIP3    H262793   9.407   3.350   0.410
20970TIP3   OH262794   2.686   7.449   7.721
20970TIP3    H162795   2.665   7.525   7.774
20970TIP3    H262796   2.757   7.478   7.664
20971TIP3   OH262797   2.104   8.755   7.285
20971TIP3    H162798   2.085   8.827   7.225
20971TIP3    H262799   2.094   8.794   7.372
20972TIP3   OH262800   2.198   7.478   7.536
20972TIP3    H162801   2.189   7.569   7.562
20972TIP3    H262802   2.292   7.460   7.541
20973TIP3   OH262803   0.177   3.334   0.412
20973TIP3    H162804   0.082   3.339   0.414
20973TIP3    H262805   0.196   3.281   0.334
20974TIP3   OH262806   3.099   8.154   7.789
20974TIP3    H162807   3.025   8.095   7.802
20974TIP3    H262808   3.169   8.117   7.843
20975TIP3   OH262809   1.842   8.357   7.267
20975TIP3    H162810   1.914   8.418   7.280
20975TIP3    H262811   1.874   8.295   7.202
20976TIP3   OH262812   1.738   7.662   7.375
20976TIP3    H162813   1.755   7.755   7.385
20976TIP3    H262814   1.647   7.656   7.348
20977TIP3   OH262815   3.085   9.096   7.699
20977TIP3    H162816   3.047   9.165   7.645
20977TIP3    H262817   3.180   9.108   7.691
20978TIP3   OH262818   8.702   2.748   0.236
20978TIP3    H162819   8.666   2.720   0.152
20978TIP3    H262820   8.695   2.670   0.291
20979TIP3   OH262821   1.659   8.613   7.656
20979TIP3    H162822   1.593   8.642   7.719
20979TIP3    H262823   1.635   8.655   7.574
20980TIP3   OH262824   2.298   8.674   6.897
20980TIP3    H162825   2.251   8.604   6.943
20980TIP3    H262826   2.373   8.629   6.857
20981TIP3   OH262827   2.741   8.710   6.817
20981TIP3    H162828   2.776   8.647   6.880
20981TIP3    H262829   2.798   8.702   6.741
20982TIP3   OH262830   1.963   8.168   7.112
20982TIP3    H162831   2.013   8.144   7.190
20982TIP3    H262832   2.030   8.183   7.045
20983TIP3   OH262833   2.537   8.390   6.950
20983TIP3    H162834   2.514   8.399   7.042
20983TIP3    H262835   2.521   8.298   6.930
20984TIP3   OH262836   9.615   4.043   0.302
20984TIP3    H162837   9.690   4.072   0.249
20984TIP3    H262838   9.555   4.118   0.301
20985TIP3   OH262839   2.136   8.110   7.324
20985TIP3    H162840   2.119   8.079   7.413
20985TIP3    H262841   2.186   8.039   7.283
20986TIP3   OH262842   9.005   3.516   0.528
20986TIP3    H162843   8.935   3.572   0.562
20986TIP3    H262844   9.053   3.572   0.467
20987TIP3   OH262845   2.277   7.930   7.162
20987TIP3    H162846   2.249   7.934   7.070
20987TIP3    H262847   2.373   7.938   7.158
20988TIP3   OH262848   9.486   3.918   0.605
20988TIP3    H162849   9.577   3.902   0.579
20988TIP3    H262850   9.483   3.890   0.697
20989TIP3   OH262851   3.072   8.219   6.853
20989TIP3    H162852   3.060   8.176   6.769
20989TIP3    H262853   3.047   8.310   6.838
20990TIP3   OH262854   9.112   3.312   0.675
20990TIP3    H162855   9.123   3.241   0.612
20990TIP3    H262856   9.077   3.385   0.623
20991TIP3   OH262857   9.137   3.131   0.459
20991TIP3    H162858   9.166   3.175   0.379
20991TIP3    H262859   9.046   3.107   0.441
20992TIP3   OH262860   9.121   3.706   0.359
20992TIP3    H162861   9.207   3.734   0.326
20992TIP3    H262862   9.059   3.760   0.310
20993TIP3   OH262863   9.702   3.625   0.730
20993TIP3    H162864   9.752   3.544   0.731
20993TIP3    H262865   9.768   3.694   0.733
20994TIP3   OH262866   9.741   3.887   0.480
20994TIP3    H162867   9.687   3.942   0.423
20994TIP3    H262868   9.831   3.902   0.450
20995TIP3   OH262869   8.984   3.389   0.912
20995TIP3    H162870   8.947   3.308   0.947
20995TIP3    H262871   9.022   3.363   0.828
20996TIP3   OH262872   9.238   2.904   0.573
20996TIP3    H162873   9.202   2.983   0.532
20996TIP3    H262874   9.177   2.835   0.549
20997TIP3   OH262875   9.360   3.382   0.776
20997TIP3    H162876   9.353   3.372   0.871
20997TIP3    H262877   9.274   3.356   0.743
20998TIP3   OH262878   9.606   3.331   0.652
20998TIP3    H162879   9.528   3.341   0.706
20998TIP3    H262880   9.676   3.309   0.713
20999TIP3   OH262881   0.036   3.284   0.803
20999TIP3    H162882   0.048   3.190   0.813
20999TIP3    H262883   0.035   3.317   0.893
21000TIP3   OH262884   8.893   3.149   1.030
21000TIP3    H162885   8.970   3.093   1.019
21000TIP3    H262886   8.831   3.096   1.079
21001TIP3   OH262887   9.313   2.900   0.831
21001TIP3    H162888   9.379   2.831   0.827
21001TIP3    H262889   9.279   2.907   0.742
21002TIP3   OH262890   9.397   3.102   0.998
21002TIP3    H162891   9.374   3.039   0.930
21002TIP3    H262892   9.325   3.165   0.998
21003TIP3   OH262893   2.099   8.962   7.105
21003TIP3    H162894   2.190   8.951   7.077
21003TIP3    H262895   2.057   9.007   7.031
21004TIP3   OH262896   1.568   8.369   7.276
21004TIP3    H162897   1.663   8.377   7.276
21004TIP3    H262898   1.552   8.281   7.240
21005TIP3   OH262899   3.351   9.161   7.703
21005TIP3    H162900   3.365   9.177   7.797
21005TIP3    H262901   3.395   9.234   7.659
21006TIP3   OH262902   3.376   9.186   7.975
21006TIP3    H162903   3.330   9.102   7.984
21006TIP3    H262904   3.449   9.180   8.036
21007TIP3   OH262905   0.099   4.269   0.569
21007TIP3    H162906   0.005   4.271   0.551
21007TIP3    H262907   0.130   4.356   0.546
21008TIP3   OH262908   3.242   8.428   7.188
21008TIP3    H162909   3.302   8.495   7.155
21008TIP3    H262910   3.289   8.388   7.261
21009TIP3   OH262911   3.376   8.285   7.387
21009TIP3    H162912   3.309   8.247   7.444
21009TIP3    H262913   3.442   8.320   7.446
21010TIP3   OH262914   3.416   8.682   7.816
21010TIP3    H162915   3.471   8.611   7.782
21010TIP3    H262916   3.426   8.753   7.753
21011TIP3   OH262917   3.228   8.953   8.008
21011TIP3    H162918   3.157   8.998   8.054
21011TIP3    H262919   3.185   8.909   7.934
21012TIP3   OH262920   3.280   8.202   7.032
21012TIP3    H162921   3.209   8.201   6.969
21012TIP3    H262922   3.263   8.280   7.086
21013TIP3   OH262923   3.124   7.855   6.970
21013TIP3    H162924   3.084   7.885   6.889
21013TIP3    H262925   3.118   7.759   6.966
21014TIP3   OH262926   3.168   8.146   7.519
21014TIP3    H162927   3.175   8.051   7.506
21014TIP3    H262928   3.150   8.155   7.613
21015TIP3   OH262929   8.345   3.647   0.236
21015TIP3    H162930   8.329   3.632   0.143
21015TIP3    H262931   8.441   3.642   0.245
21016TIP3   OH262932   0.192   3.942   0.378
21016TIP3    H162933   0.255   3.870   0.371
21016TIP3    H262934   0.184   3.976   0.288
21017TIP3   OH262935   0.357   3.726   0.379
21017TIP3    H162936   0.287   3.685   0.428
21017TIP3    H262937   0.434   3.671   0.396
21018TIP3   OH262938   3.088   7.585   6.945
21018TIP3    H162939   3.159   7.554   7.001
21018TIP3    H262940   3.010   7.539   6.975
21019TIP3   OH262941   3.161   7.866   7.406
21019TIP3    H162942   3.207   7.784   7.420
21019TIP3    H262943   3.203   7.904   7.329
21020TIP3   OH262944   3.315   8.038   7.929
21020TIP3    H162945   3.395   8.057   7.880
21020TIP3    H262946   3.331   8.074   8.016
21021TIP3   OH262947   0.122   3.560   0.160
21021TIP3    H162948   0.050   3.589   0.216
21021TIP3    H262949   0.154   3.641   0.120
21022TIP3   OH262950   8.655   3.218   0.904
21022TIP3    H162951   8.733   3.208   0.960
21022TIP3    H262952   8.583   3.229   0.966
21023TIP3   OH262953   0.561   3.124   0.693
21023TIP3    H162954   0.646   3.087   0.670
21023TIP3    H262955   0.546   3.191   0.627
21024TIP3   OH262956   3.277   7.620   7.463
21024TIP3    H162957   3.325   7.604   7.544
21024TIP3    H262958   3.217   7.546   7.455
21025TIP3   OH262959   8.554   2.988   0.238
21025TIP3    H162960   8.601   2.904   0.245
21025TIP3    H262961   8.624   3.053   0.233
21026TIP3   OH262962   8.434   3.370   0.336
21026TIP3    H162963   8.463   3.347   0.248
21026TIP3    H262964   8.353   3.419   0.323
21027TIP3   OH262965   0.439   3.272   0.492
21027TIP3    H162966   0.352   3.310   0.509
21027TIP3    H262967   0.420   3.190   0.446
21028TIP3   OH262968   3.318   7.529   7.093
21028TIP3    H162969   3.364   7.468   7.036
21028TIP3    H262970   3.376   7.605   7.099
21029TIP3   OH262971   1.764   7.351   7.814
21029TIP3    H162972   1.672   7.331   7.831
21029TIP3    H262973   1.762   7.414   7.741
21030TIP3   OH262974   2.927   9.113   7.366
21030TIP3    H162975   2.960   9.075   7.285
21030TIP3    H262976   2.986   9.186   7.384
21031TIP3   OH262977   8.634   2.893   0.520
21031TIP3    H162978   8.639   2.865   0.612
21031TIP3    H262979   8.606   2.815   0.473
21032TIP3   OH262980   0.345   3.030   0.383
21032TIP3    H162981   0.267   3.030   0.328
21032TIP3    H262982   0.380   2.941   0.376
21033TIP3   OH262983   2.788   9.123   8.024
21033TIP3    H162984   2.697   9.136   7.996
21033TIP3    H262985   2.839   9.181   7.967
21034TIP3   OH262986   6.238   0.029   7.882
21034TIP3    H162987   6.234   0.097   7.814
21034TIP3    H262988   6.283  -0.044   7.839
21035TIP3   OH262989   1.997   8.764   7.910
21035TIP3    H162990   1.992   8.717   7.994
21035TIP3    H262991   2.068   8.827   7.922
21036TIP3   OH262992   2.248   8.882   7.899
21036TIP3    H162993   2.289   8.801   7.927
21036TIP3    H262994   2.268   8.888   7.805
21037TIP3   OH262995   9.356   2.945   0.027
21037TIP3    H162996   9.315   2.873   0.075
21037TIP3    H262997   9.424   2.904  -0.026
21038TIP3   OH262998   3.321   7.485   7.919
21038TIP3    H162999   3.361   7.534   7.847
21038TIP3    H263000   3.229   7.514   7.919
21039TIP3   OH263001   3.436   7.566   7.683
21039TIP3    H163002   3.505   7.503   7.662
21039TIP3    H263003   3.476   7.651   7.669
21040TIP3   OH263004   2.078   7.264   7.996
21040TIP3    H163005   1.991   7.225   7.995
21040TIP3    H263006   2.138   7.189   7.996
21041TIP3   OH263007   1.910   7.161   7.664
21041TIP3    H163008   1.934   7.212   7.587
21041TIP3    H263009   1.867   7.224   7.722
21042TIP3   OH263010   2.541   7.312   7.919
21042TIP3    H163011   2.588   7.356   7.848
21042TIP3    H263012   2.590   7.336   7.998
21043TIP3   OH263013   3.032   7.441   7.899
21043TIP3    H163014   3.060   7.406   7.815
21043TIP3    H263015   3.042   7.368   7.960
21044TIP3   OH263016   3.094   7.408   7.466
21044TIP3    H163017   3.014   7.454   7.493
21044TIP3    H263018   3.084   7.320   7.504
21045TIP3   OH263019   1.570   8.727   7.427
21045TIP3    H163020   1.477   8.706   7.435
21045TIP3    H263021   1.572   8.818   7.399
21046TIP3   OH263022   1.993   7.310   7.436
21046TIP3    H163023   2.039   7.253   7.375
21046TIP3    H263024   2.061   7.366   7.474
21047TIP3   OH263025   2.473   7.506   7.542
21047TIP3    H163026   2.534   7.453   7.592
21047TIP3    H263027   2.489   7.596   7.571
21048TIP3   OH263028   2.359   8.899   7.037
21048TIP3    H163029   2.442   8.926   6.999
21048TIP3    H263030   2.329   8.827   6.982
21049TIP3   OH263031   3.050   9.035   7.132
21049TIP3    H163032   3.046   8.940   7.126
21049TIP3    H263033   3.010   9.066   7.051
21050TIP3   OH263034   8.899   2.868   0.890
21050TIP3    H163035   8.872   2.807   0.959
21050TIP3    H263036   8.985   2.899   0.917
21051TIP3   OH263037   9.125   2.939   1.025
21051TIP3    H163038   9.192   2.939   0.957
21051TIP3    H263039   9.145   2.862   1.078
21052TIP3   OH263040   1.659   8.730   7.107
21052TIP3    H163041   1.659   8.731   7.203
21052TIP3    H263042   1.742   8.690   7.083
21053TIP3   OH263043   0.091   3.013   0.826
21053TIP3    H163044   0.117   2.983   0.913
21053TIP3    H263045   0.172   3.013   0.775
21054TIP3   OH263046   4.553   8.571   7.064
21054TIP3    H163047   4.521   8.656   7.036
21054TIP3    H263048   4.482   8.510   7.042
21055TIP3   OH263049   4.540   8.566   7.483
21055TIP3    H163050   4.591   8.543   7.561
21055TIP3    H263051   4.497   8.485   7.457
21056TIP3   OH263052   3.846   8.417   7.843
21056TIP3    H163053   3.885   8.365   7.913
21056TIP3    H263054   3.919   8.442   7.787
21057TIP3   OH263055   4.819   8.868   7.162
21057TIP3    H163056   4.806   8.800   7.229
21057TIP3    H263057   4.843   8.946   7.212
21058TIP3   OH263058   3.840   8.844   7.519
21058TIP3    H163059   3.822   8.750   7.524
21058TIP3    H263060   3.935   8.850   7.514
21059TIP3   OH263061   3.523   8.058   7.299
21059TIP3    H163062   3.485   8.142   7.326
21059TIP3    H263063   3.450   8.008   7.263
21060TIP3   OH263064   3.604   8.368   7.532
21060TIP3    H163065   3.654   8.290   7.555
21060TIP3    H263066   3.671   8.433   7.509
21061TIP3   OH263067   7.747   0.058   7.183
21061TIP3    H163068   7.772  -0.006   7.116
21061TIP3    H263069   7.756   0.011   7.265
21062TIP3   OH263070   4.355   8.787   7.497
21062TIP3    H163071   4.401   8.707   7.469
21062TIP3    H263072   4.424   8.844   7.529
21063TIP3   OH263073   5.387   8.099   7.493
21063TIP3    H163074   5.402   8.182   7.538
21063TIP3    H263075   5.422   8.113   7.405
21064TIP3   OH263076   4.764   8.262   7.521
21064TIP3    H163077   4.803   8.179   7.549
21064TIP3    H263078   4.722   8.242   7.438
21065TIP3   OH263079   4.104   7.948   7.491
21065TIP3    H163080   4.081   8.017   7.429
21065TIP3    H263081   4.051   7.873   7.465
21066TIP3   OH263082   4.821   8.034   7.121
21066TIP3    H163083   4.884   8.028   7.193
21066TIP3    H263084   4.872   8.066   7.047
21067TIP3   OH263085   3.744   8.144   7.612
21067TIP3    H163086   3.825   8.122   7.658
21067TIP3    H263087   3.748   8.092   7.531
21068TIP3   OH263088   4.155   8.346   7.435
21068TIP3    H163089   4.250   8.331   7.440
21068TIP3    H263090   4.120   8.264   7.399
21069TIP3   OH263091   5.437   8.320   7.653
21069TIP3    H163092   5.348   8.354   7.649
21069TIP3    H263093   5.473   8.355   7.734
21070TIP3   OH263094   4.089   7.925   7.949
21070TIP3    H163095   4.038   7.956   7.874
21070TIP3    H263096   4.034   7.943   8.025
21071TIP3   OH263097   4.452   8.787   6.924
21071TIP3    H163098   4.412   8.756   6.843
21071TIP3    H263099   4.398   8.862   6.950
21072TIP3   OH263100   4.193   8.705   7.706
21072TIP3    H163101   4.137   8.776   7.738
21072TIP3    H263102   4.242   8.744   7.634
21073TIP3   OH263103   4.982   8.054   7.338
21073TIP3    H163104   4.945   8.035   7.424
21073TIP3    H263105   5.038   8.130   7.352
21074TIP3   OH263106   3.981   8.039   7.720
21074TIP3    H163107   4.039   8.111   7.745
21074TIP3    H263108   4.028   7.994   7.649
21075TIP3   OH263109   4.029   8.905   7.807
21075TIP3    H163110   4.021   8.997   7.780
21075TIP3    H263111   3.950   8.888   7.858
21076TIP3   OH263112   3.415   8.612   7.066
21076TIP3    H163113   3.384   8.633   6.977
21076TIP3    H263114   3.438   8.697   7.104
21077TIP3   OH263115   4.854   9.113   7.304
21077TIP3    H163116   4.765   9.103   7.337
21077TIP3    H263117   4.853   9.197   7.257
21078TIP3   OH263118   5.173   8.013   7.662
21078TIP3    H163119   5.087   8.030   7.623
21078TIP3    H263120   5.235   8.035   7.592
21079TIP3   OH263121   4.439   7.641   7.662
21079TIP3    H163122   4.396   7.556   7.676
21079TIP3    H263123   4.375   7.705   7.694
21080TIP3   OH263124   4.563   9.149   6.964
21080TIP3    H163125   4.616   9.071   6.953
21080TIP3    H263126   4.619   9.221   6.934
21081TIP3   OH263127   4.700   8.920   6.920
21081TIP3    H163128   4.627   8.857   6.917
21081TIP3    H263129   4.751   8.894   6.997
21082TIP3   OH263130   5.108   8.999   7.631
21082TIP3    H163131   5.079   8.931   7.569
21082TIP3    H263132   5.091   9.082   7.586
21083TIP3   OH263133   4.380   8.402   6.921
21083TIP3    H163134   4.297   8.446   6.901
21083TIP3    H263135   4.428   8.404   6.838
21084TIP3   OH263136   4.349   8.216   6.605
21084TIP3    H163137   4.413   8.267   6.656
21084TIP3    H263138   4.402   8.152   6.557
21085TIP3   OH263139   5.263   8.672   7.511
21085TIP3    H163140   5.177   8.714   7.502
21085TIP3    H263141   5.302   8.679   7.424
21086TIP3   OH263142   4.738   8.498   6.877
21086TIP3    H163143   4.685   8.527   6.951
21086TIP3    H263144   4.822   8.473   6.916
21087TIP3   OH263145   4.948   8.502   7.780
21087TIP3    H163146   4.951   8.588   7.820
21087TIP3    H263147   4.861   8.496   7.740
21088TIP3   OH263148   3.965   8.479   7.279
21088TIP3    H163149   3.930   8.416   7.216
21088TIP3    H263150   4.036   8.432   7.323
21089TIP3   OH263151   4.103   8.899   7.425
21089TIP3    H163152   4.082   8.883   7.333
21089TIP3    H263153   4.191   8.861   7.437
21090TIP3   OH263154   4.056   8.471   7.661
21090TIP3    H163155   4.095   8.433   7.582
21090TIP3    H263156   4.106   8.551   7.677
21091TIP3   OH263157   4.611   9.096   7.423
21091TIP3    H163158   4.597   9.179   7.469
21091TIP3    H263159   4.600   9.029   7.491
21092TIP3   OH263160   4.237   8.997   7.964
21092TIP3    H163161   4.186   9.058   8.016
21092TIP3    H263162   4.173   8.951   7.910
21093TIP3   OH263163   4.567   8.360   6.711
21093TIP3    H163164   4.628   8.417   6.759
21093TIP3    H263165   4.597   8.365   6.620
21094TIP3   OH263166   0.723   3.951   0.109
21094TIP3    H163167   0.719   4.044   0.130
21094TIP3    H263168   0.632   3.922   0.106
21095TIP3   OH263169   4.316   9.025   6.965
21095TIP3    H163170   4.397   9.074   6.976
21095TIP3    H263171   4.260   9.082   6.914
21096TIP3   OH263172   0.785   4.549   0.071
21096TIP3    H163173   0.755   4.560  -0.019
21096TIP3    H263174   0.706   4.534   0.121
21097TIP3   OH263175   5.076   7.584   6.767
21097TIP3    H163176   4.999   7.602   6.821
21097TIP3    H263177   5.084   7.661   6.710
21098TIP3   OH263178   3.840   8.318   7.079
21098TIP3    H163179   3.760   8.364   7.051
21098TIP3    H263180   3.811   8.231   7.103
21099TIP3   OH263181   4.908   8.965   6.323
21099TIP3    H163182   4.911   9.060   6.310
21099TIP3    H263183   4.994   8.935   6.293
21100TIP3   OH263184   3.626   8.723   8.007
21100TIP3    H163185   3.556   8.700   7.945
21100TIP3    H263186   3.660   8.638   8.037
21101TIP3   OH263187   3.483   8.905   7.655
21101TIP3    H163188   3.578   8.916   7.663
21101TIP3    H263189   3.446   8.987   7.689
21102TIP3   OH263190   8.592   0.159   7.680
21102TIP3    H163191   8.610   0.065   7.690
21102TIP3    H263192   8.506   0.171   7.720
21103TIP3   OH263193   4.435   9.114   7.816
21103TIP3    H163194   4.425   9.209   7.823
21103TIP3    H263195   4.364   9.078   7.870
21104TIP3   OH263196   7.474  -0.015   6.796
21104TIP3    H163197   7.434  -0.027   6.710
21104TIP3    H263198   7.440   0.069   6.827
21105TIP3   OH263199   3.638   9.094   7.179
21105TIP3    H163200   3.687   9.089   7.261
21105TIP3    H263201   3.593   9.010   7.172
21106TIP3   OH263202   4.413   9.177   6.428
21106TIP3    H163203   4.465   9.105   6.393
21106TIP3    H263204   4.446   9.189   6.517
21107TIP3   OH263205   4.464   9.212   6.697
21107TIP3    H163206   4.377   9.213   6.736
21107TIP3    H263207   4.522   9.180   6.766
21108TIP3   OH263208   5.198   8.472   7.927
21108TIP3    H163209   5.106   8.488   7.904
21108TIP3    H263210   5.209   8.377   7.914
21109TIP3   OH263211   0.543   4.304  -0.024
21109TIP3    H163212   0.597   4.289   0.054
21109TIP3    H263213   0.477   4.234  -0.020
21110TIP3   OH263214   4.220   7.772   7.756
21110TIP3    H163215   4.185   7.684   7.746
21110TIP3    H263216   4.174   7.808   7.832
21111TIP3   OH263217   1.464   3.204   0.005
21111TIP3    H163218   1.519   3.153   0.064
21111TIP3    H263219   1.376   3.196   0.041
21112TIP3   OH263220   4.969   8.259   7.910
21112TIP3    H163221   4.910   8.255   7.985
21112TIP3    H263222   4.945   8.339   7.864
21113TIP3   OH263223   4.646   8.339   6.449
21113TIP3    H163224   4.600   8.343   6.365
21113TIP3    H263225   4.729   8.384   6.432
21114TIP3   OH263226   4.353   7.769   6.747
21114TIP3    H163227   4.290   7.827   6.790
21114TIP3    H263228   4.322   7.761   6.657
21115TIP3   OH263229   4.140   8.248   7.806
21115TIP3    H163230   4.097   8.254   7.891
21115TIP3    H263231   4.117   8.329   7.760
21116TIP3   OH263232   4.012   8.138   7.315
21116TIP3    H163233   3.925   8.108   7.340
21116TIP3    H263234   4.028   8.095   7.230
21117TIP3   OH263235   4.491   8.181   7.044
21117TIP3    H163236   4.447   8.259   7.011
21117TIP3    H263237   4.557   8.160   6.978
21118TIP3   OH263238   1.412   3.839   0.103
21118TIP3    H163239   1.388   3.775   0.170
21118TIP3    H263240   1.506   3.853   0.116
21119TIP3   OH263241   4.668   8.214   7.268
21119TIP3    H163242   4.593   8.228   7.209
21119TIP3    H263243   4.718   8.144   7.227
21120TIP3   OH263244   0.712   3.634   0.028
21120TIP3    H163245   0.766   3.684   0.090
21120TIP3    H263246   0.692   3.553   0.074
21121TIP3   OH263247   4.045   7.759   6.761
21121TIP3    H163248   4.028   7.750   6.854
21121TIP3    H263249   3.963   7.792   6.724
21122TIP3   OH263250   3.569   7.787   7.605
21122TIP3    H163251   3.634   7.826   7.663
21122TIP3    H263252   3.619   7.760   7.528
21123TIP3   OH263253   3.471   7.762   7.110
21123TIP3    H163254   3.520   7.798   7.035
21123TIP3    H263255   3.408   7.831   7.133
21124TIP3   OH263256   4.688   8.458   7.690
21124TIP3    H163257   4.717   8.392   7.627
21124TIP3    H263258   4.651   8.408   7.763
21125TIP3   OH263259   4.359   7.959   7.371
21125TIP3    H163260   4.285   7.952   7.432
21125TIP3    H263261   4.432   7.919   7.418
21126TIP3   OH263262   3.783   8.000   7.379
21126TIP3    H163263   3.694   8.004   7.343
21126TIP3    H263264   3.811   7.910   7.364
21127TIP3   OH263265   4.044   7.988   7.085
21127TIP3    H163266   4.139   7.991   7.071
21127TIP3    H263267   4.007   8.011   7.000
21128TIP3   OH263268   4.871   8.007   7.587
21128TIP3    H163269   4.841   8.020   7.677
21128TIP3    H263270   4.832   7.924   7.560
21129TIP3   OH263271   3.931   8.032   6.838
21129TIP3    H163272   3.867   7.981   6.788
21129TIP3    H263273   3.982   8.078   6.772
21130TIP3   OH263274   8.253   0.504   7.778
21130TIP3    H163275   8.253   0.485   7.685
21130TIP3    H263276   8.342   0.534   7.796
21131TIP3   OH263277   0.689   4.212   0.202
21131TIP3    H163278   0.770   4.228   0.249
21131TIP3    H263279   0.622   4.207   0.271
21132TIP3   OH263280   4.429   8.298   7.474
21132TIP3    H163281   4.478   8.234   7.423
21132TIP3    H263282   4.425   8.262   7.562
21133TIP3   OH263283   3.940   7.751   7.382
21133TIP3    H163284   3.893   7.684   7.431
21133TIP3    H263285   4.011   7.704   7.339
21134TIP3   OH263286   4.404   8.201   7.731
21134TIP3    H163287   4.318   8.221   7.767
21134TIP3    H263288   4.466   8.238   7.794
21135TIP3   OH263289   4.143   8.537   6.861
21135TIP3    H163290   4.067   8.484   6.836
21135TIP3    H263291   4.115   8.580   6.942
21136TIP3   OH263292   5.026   8.804   7.457
21136TIP3    H163293   5.061   8.849   7.379
21136TIP3    H263294   4.947   8.760   7.426
21137TIP3   OH263295   4.618   7.863   6.771
21137TIP3    H163296   4.523   7.852   6.766
21137TIP3    H263297   4.630   7.958   6.781
21138TIP3   OH263298   4.576   8.864   7.883
21138TIP3    H163299   4.619   8.848   7.967
21138TIP3    H263300   4.529   8.946   7.896
21139TIP3   OH263301   4.671   8.128   6.834
21139TIP3    H163302   4.766   8.133   6.849
21139TIP3    H263303   4.650   8.208   6.785
21140TIP3   OH263304   3.829   8.556   7.509
21140TIP3    H163305   3.868   8.538   7.423
21140TIP3    H263306   3.895   8.526   7.572
21141TIP3   OH263307   4.296   8.699   6.706
21141TIP3    H163308   4.247   8.781   6.703
21141TIP3    H263309   4.241   8.641   6.759
21142TIP3   OH263310   0.451   3.883   0.152
21142TIP3    H163311   0.471   3.858   0.242
21142TIP3    H263312   0.379   3.825   0.126
21143TIP3   OH263313   1.181   3.981   0.145
21143TIP3    H163314   1.118   3.926   0.098
21143TIP3    H263315   1.266   3.944   0.123
21144TIP3   OH263316   4.697   9.168   7.738
21144TIP3    H163317   4.607   9.134   7.735
21144TIP3    H263318   4.705   9.205   7.826
21145TIP3   OH263319   5.076   8.213   6.650
21145TIP3    H163320   5.019   8.167   6.588
21145TIP3    H263321   5.084   8.302   6.615
21146TIP3   OH263322   5.369   9.129   7.697
21146TIP3    H163323   5.292   9.112   7.751
21146TIP3    H263324   5.356   9.074   7.620
21147TIP3   OH263325   4.836   9.016   6.595
21147TIP3    H163326   4.799   8.948   6.651
21147TIP3    H263327   4.845   8.976   6.509
21148TIP3   OH263328   4.799   8.665   7.362
21148TIP3    H163329   4.708   8.643   7.384
21148TIP3    H263330   4.835   8.584   7.326
21149TIP3   OH263331   3.962   8.901   7.182
21149TIP3    H163332   3.956   8.977   7.123
21149TIP3    H263333   3.874   8.893   7.219
21150TIP3   OH263334   3.518   8.186   6.893
21150TIP3    H163335   3.562   8.268   6.916
21150TIP3    H263336   3.438   8.187   6.944
21151TIP3   OH263337   4.039   8.658   7.078
21151TIP3    H163338   4.025   8.747   7.111
21151TIP3    H263339   4.015   8.602   7.152
21152TIP3   OH263340   4.242   9.216   7.626
21152TIP3    H163341   4.278   9.300   7.595
21152TIP3    H263342   4.317   9.170   7.664
21153TIP3   OH263343   3.870   9.120   7.032
21153TIP3    H163344   3.783   9.124   7.073
21153TIP3    H263345   3.904   9.209   7.041
21154TIP3   OH263346   4.593   8.885   7.609
21154TIP3    H163347   4.586   8.877   7.704
21154TIP3    H263348   4.655   8.817   7.584
21155TIP3   OH263349   4.589   8.768   6.472
21155TIP3    H163350   4.638   8.739   6.550
21155TIP3    H263351   4.505   8.721   6.478
21156TIP3   OH263352   8.089   0.161   7.649
21156TIP3    H163353   8.028   0.088   7.658
21156TIP3    H263354   8.064   0.203   7.567
21157TIP3   OH263355   8.205  -0.002   6.300
21157TIP3    H163356   8.256   0.072   6.267
21157TIP3    H263357   8.122   0.038   6.329
21158TIP3   OH263358   0.657   3.386   0.154
21158TIP3    H163359   0.562   3.394   0.159
21158TIP3    H263360   0.679   3.318   0.218
21159TIP3   OH263361   4.758   8.683   6.669
21159TIP3    H163362   4.739   8.630   6.747
21159TIP3    H263363   4.854   8.685   6.664
21160TIP3   OH263364   3.668   9.107   7.786
21160TIP3    H163365   3.720   9.055   7.847
21160TIP3    H263366   3.682   9.197   7.815
21161TIP3   OH263367   3.937   8.731   6.495
21161TIP3    H163368   3.948   8.640   6.467
21161TIP3    H263369   3.926   8.725   6.590
21162TIP3   OH263370   3.882   8.743   6.768
21162TIP3    H163371   3.943   8.716   6.837
21162TIP3    H263372   3.882   8.838   6.773
21163TIP3   OH263373   3.612   8.437   6.974
21163TIP3    H163374   3.547   8.485   7.026
21163TIP3    H263375   3.632   8.495   6.901
21164TIP3   OH263376   4.789   8.041   7.846
21164TIP3    H163377   4.857   8.090   7.893
21164TIP3    H263378   4.768   7.968   7.903
21165TIP3   OH263379   4.676   7.815   7.039
21165TIP3    H163380   4.657   7.834   6.947
21165TIP3    H263381   4.718   7.894   7.072
21166TIP3   OH263382   4.148   8.925   6.697
21166TIP3    H163383   4.066   8.951   6.738
21166TIP3    H263384   4.174   9.001   6.645
21167TIP3   OH263385   4.324   7.963   7.096
21167TIP3    H163386   4.381   8.037   7.074
21167TIP3    H263387   4.332   7.955   7.191
21168TIP3   OH263388   4.612   8.289   7.893
21168TIP3    H163389   4.634   8.339   7.972
21168TIP3    H263390   4.662   8.207   7.902
21169TIP3   OH263391   4.509   7.700   7.230
21169TIP3    H163392   4.529   7.748   7.310
21169TIP3    H263393   4.570   7.735   7.165
21170TIP3   OH263394   3.901   9.015   6.783
21170TIP3    H163395   3.886   9.089   6.724
21170TIP3    H263396   3.890   9.052   6.871
21171TIP3   OH263397   4.003   7.715   7.027
21171TIP3    H163398   3.996   7.802   7.068
21171TIP3    H263399   4.077   7.674   7.071
21172TIP3   OH263400   5.227   8.191   7.877
21172TIP3    H163401   5.136   8.202   7.903
21172TIP3    H263402   5.225   8.131   7.803
21173TIP3   OH263403   4.891   8.410   7.274
21173TIP3    H163404   4.815   8.353   7.288
21173TIP3    H263405   4.961   8.370   7.326
21174TIP3   OH263406   3.637   8.614   6.757
21174TIP3    H163407   3.710   8.674   6.767
21174TIP3    H263408   3.667   8.550   6.692
21175TIP3   OH263409   3.548   7.909   6.891
21175TIP3    H163410   3.555   8.004   6.898
21175TIP3    H263411   3.494   7.895   6.813
21176TIP3   OH263412   8.146   0.138   7.216
21176TIP3    H163413   8.103   0.189   7.147
21176TIP3    H263414   8.239   0.147   7.198
21177TIP3   OH263415   3.889   7.638   7.771
21177TIP3    H163416   3.889   7.605   7.681
21177TIP3    H263417   3.923   7.566   7.823
21178TIP3   OH263418   3.463   8.876   7.156
21178TIP3    H163419   3.425   8.913   7.236
21178TIP3    H263420   3.420   8.923   7.085
21179TIP3   OH263421   0.391   4.747   0.195
21179TIP3    H163422   0.478   4.719   0.222
21179TIP3    H263423   0.340   4.666   0.188
21180TIP3   OH263424   0.876   4.765   0.224
21180TIP3    H163425   0.949   4.741   0.281
21180TIP3    H263426   0.855   4.685   0.176
21181TIP3   OH263427   4.094   8.930   6.384
21181TIP3    H163428   4.046   8.861   6.429
21181TIP3    H263429   4.168   8.886   6.343
21182TIP3   OH263430   1.434   4.629  -0.001
21182TIP3    H163431   1.384   4.564   0.049
21182TIP3    H263432   1.428   4.709   0.052
21183TIP3   OH263433   4.537   8.972   6.300
21183TIP3    H163434   4.570   8.906   6.361
21183TIP3    H263435   4.595   8.965   6.224
21184TIP3   OH263436   0.496   4.172   0.398
21184TIP3    H163437   0.519   4.080   0.403
21184TIP3    H263438   0.410   4.174   0.356
21185TIP3   OH263439   3.757   8.424   6.601
21185TIP3    H163440   3.808   8.399   6.678
21185TIP3    H263441   3.823   8.438   6.533
21186TIP3   OH263442   1.096   4.241   0.165
21186TIP3    H163443   1.061   4.263   0.078
21186TIP3    H263444   1.137   4.155   0.153
21187TIP3   OH263445   4.338   8.646   6.441
21187TIP3    H163446   4.315   8.655   6.534
21187TIP3    H263447   4.318   8.554   6.421
21188TIP3   OH263448   4.893   8.980   7.806
21188TIP3    H163449   4.963   8.992   7.742
21188TIP3    H263450   4.819   9.028   7.770
21189TIP3   OH263451   0.625   3.924   0.399
21189TIP3    H163452   0.705   3.912   0.348
21189TIP3    H263453   0.656   3.948   0.487
21190TIP3   OH263454   3.930   8.365   6.813
21190TIP3    H163455   3.909   8.337   6.902
21190TIP3    H263456   3.980   8.292   6.776
21191TIP3   OH263457   0.951   3.809   0.053
21191TIP3    H163458   0.877   3.867   0.070
21191TIP3    H263459   0.992   3.844  -0.026
21192TIP3   OH263460   4.078   8.182   6.661
21192TIP3    H163461   4.047   8.187   6.571
21192TIP3    H263462   4.173   8.194   6.654
21193TIP3   OH263463   1.435   4.210   0.132
21193TIP3    H163464   1.529   4.222   0.143
21193TIP3    H263465   1.412   4.144   0.198
21194TIP3   OH263466   4.864   8.472   6.336
21194TIP3    H163467   4.851   8.432   6.250
21194TIP3    H263468   4.842   8.564   6.323
21195TIP3   OH263469   1.074   3.596   0.171
21195TIP3    H163470   1.079   3.522   0.110
21195TIP3    H263471   1.034   3.666   0.121
21196TIP3   OH263472   4.347   8.018   7.973
21196TIP3    H163473   4.375   8.037   7.884
21196TIP3    H263474   4.258   7.984   7.964
21197TIP3   OH263475   4.361   8.550   7.860
21197TIP3    H163476   4.451   8.575   7.840
21197TIP3    H263477   4.307   8.608   7.805
21198TIP3   OH263478   1.669   3.851   0.211
21198TIP3    H163479   1.690   3.758   0.214
21198TIP3    H263480   1.744   3.894   0.252
21199TIP3   OH263481   4.989   8.741   7.894
21199TIP3    H163482   4.938   8.818   7.869
21199TIP3    H263483   5.079   8.764   7.871
21200TIP3   OH263484   0.957   3.679   0.412
21200TIP3    H163485   0.893   3.610   0.432
21200TIP3    H263486   0.993   3.655   0.327
21201TIP3   OH263487   1.196   3.157   0.066
21201TIP3    H163488   1.154   3.238   0.039
21201TIP3    H263489   1.132   3.089   0.045
21202TIP3   OH263490   1.325   3.642   0.276
21202TIP3    H163491   1.314   3.624   0.369
21202TIP3    H263492   1.240   3.622   0.237
21203TIP3   OH263493   1.539   3.574   0.113
21203TIP3    H163494   1.470   3.576   0.179
21203TIP3    H263495   1.611   3.527   0.155
21204TIP3   OH263496   1.777   3.501   0.223
21204TIP3    H163497   1.807   3.415   0.252
21204TIP3    H263498   1.770   3.553   0.303
21205TIP3   OH263499   0.797   3.459   0.467
21205TIP3    H163500   0.806   3.374   0.424
21205TIP3    H263501   0.828   3.444   0.557
21206TIP3   OH263502   1.324   3.132   0.311
21206TIP3    H163503   1.406   3.087   0.290
21206TIP3    H263504   1.274   3.130   0.229
21207TIP3   OH263505   1.367   3.348   0.472
21207TIP3    H163506   1.352   3.276   0.411
21207TIP3    H263507   1.287   3.401   0.466
21208TIP3   OH263508   3.910   9.230   6.609
21208TIP3    H163509   3.996   9.205   6.576
21208TIP3    H263510   3.861   9.259   6.532
21209TIP3   OH263511   3.364   8.615   6.774
21209TIP3    H163512   3.459   8.625   6.770
21209TIP3    H263513   3.347   8.530   6.734
21210TIP3   OH263514   3.254   9.185   7.246
21210TIP3    H163515   3.195   9.130   7.194
21210TIP3    H263516   3.304   9.123   7.299
21211TIP3   OH263517   3.411   9.020   7.402
21211TIP3    H163518   3.408   8.953   7.469
21211TIP3    H263519   3.464   9.091   7.441
21212TIP3   OH263520   8.416   0.185   7.189
21212TIP3    H163521   8.432   0.207   7.281
21212TIP3    H263522   8.478   0.239   7.140
21213TIP3   OH263523   8.425   0.215   7.463
21213TIP3    H163524   8.376   0.134   7.474
21213TIP3    H263525   8.499   0.207   7.524
21214TIP3   OH263526   5.223   9.194   7.932
21214TIP3    H163527   5.129   9.203   7.945
21214TIP3    H263528   5.260   9.273   7.972
21215TIP3   OH263529   5.034   8.669   6.675
21215TIP3    H163530   5.093   8.736   6.639
21215TIP3    H263531   5.081   8.632   6.749
21216TIP3   OH263532   5.173   8.537   6.874
21216TIP3    H163533   5.107   8.500   6.933
21216TIP3    H263534   5.241   8.572   6.932
21217TIP3   OH263535   5.199   8.932   7.282
21217TIP3    H163536   5.256   8.865   7.244
21217TIP3    H263537   5.209   9.008   7.224
21218TIP3   OH263538   5.010   9.224   7.504
21218TIP3    H163539   4.941   9.265   7.555
21218TIP3    H263540   4.965   9.181   7.431
21219TIP3   OH263541   5.073   8.451   6.513
21219TIP3    H163542   5.002   8.451   6.449
21219TIP3    H263543   5.055   8.526   6.570
21220TIP3   OH263544   4.921   8.107   6.452
21220TIP3    H163545   4.878   8.139   6.372
21220TIP3    H263546   4.914   8.011   6.446
21221TIP3   OH263547   4.966   8.400   7.007
21221TIP3    H163548   4.973   8.306   6.994
21221TIP3    H263549   4.945   8.410   7.100
21222TIP3   OH263550   3.585   8.466   7.788
21222TIP3    H163551   3.575   8.429   7.701
21222TIP3    H263552   3.678   8.458   7.808
21223TIP3   OH263553   5.243   8.823   7.820
21223TIP3    H163554   5.309   8.756   7.806
21223TIP3    H263555   5.231   8.863   7.734
21224TIP3   OH263556   5.409   8.604   7.819
21224TIP3    H163557   5.331   8.558   7.850
21224TIP3    H263558   5.482   8.549   7.848
21225TIP3   OH263559   4.884   7.837   6.428
21225TIP3    H163560   4.954   7.807   6.487
21225TIP3    H263561   4.807   7.788   6.457
21226TIP3   OH263562   4.958   8.121   6.891
21226TIP3    H163563   5.002   8.038   6.904
21226TIP3    H263564   5.000   8.159   6.813
21227TIP3   OH263565   5.112   8.288   7.401
21227TIP3    H163566   5.194   8.306   7.355
21227TIP3    H263567   5.125   8.326   7.488
21228TIP3   OH263568   5.181   8.433   7.627
21228TIP3    H163569   5.103   8.454   7.677
21228TIP3    H263570   5.211   8.517   7.592
21229TIP3   OH263571   0.534   3.520   0.419
21229TIP3    H163572   0.629   3.515   0.428
21229TIP3    H263573   0.502   3.439   0.459
21230TIP3   OH263574   2.345   3.351   0.132
21230TIP3    H163575   2.410   3.301   0.082
21230TIP3    H263576   2.316   3.419   0.070
21231TIP3   OH263577   5.067   7.870   6.945
21231TIP3    H163578   5.116   7.857   7.026
21231TIP3    H263579   5.009   7.795   6.939
21232TIP3   OH263580   3.760   7.873   7.792
21232TIP3    H163581   3.803   7.787   7.794
21232TIP3    H263582   3.830   7.935   7.771
21233TIP3   OH263583   3.555   8.130   7.827
21233TIP3    H163584   3.604   8.112   7.747
21233TIP3    H263585   3.611   8.189   7.878
21234TIP3   OH263586   5.485   8.137   7.951
21234TIP3    H163587   5.398   8.176   7.944
21234TIP3    H263588   5.478   8.053   7.905
21235TIP3   OH263589   5.112   7.785   6.582
21235TIP3    H163590   5.158   7.724   6.525
21235TIP3    H263591   5.169   7.861   6.587
21236TIP3   OH263592   3.544   7.625   7.336
21236TIP3    H163593   3.460   7.619   7.380
21236TIP3    H263594   3.527   7.681   7.260
21237TIP3   OH263595   7.969   0.110   6.852
21237TIP3    H163596   8.026   0.096   6.777
21237TIP3    H263597   8.013   0.177   6.904
21238TIP3   OH263598   0.524   3.096   0.173
21238TIP3    H163599   0.469   3.076   0.248
21238TIP3    H263600   0.464   3.126   0.106
21239TIP3   OH263601   0.557   4.517   0.223
21239TIP3    H163602   0.472   4.488   0.191
21239TIP3    H263603   0.555   4.498   0.317
21240TIP3   OH263604   4.024   9.181   7.789
21240TIP3    H163605   3.971   9.255   7.758
21240TIP3    H263606   4.106   9.188   7.740
21241TIP3   OH263607   7.687   0.147   7.806
21241TIP3    H163608   7.677   0.149   7.902
21241TIP3    H263609   7.757   0.209   7.788
21242TIP3   OH263610   7.885   0.333   7.766
21242TIP3    H163611   7.958   0.283   7.731
21242TIP3    H263612   7.924   0.391   7.832
21243TIP3   OH263613   5.421   7.880   7.864
21243TIP3    H163614   5.332   7.856   7.841
21243TIP3    H263615   5.469   7.797   7.866
21244TIP3   OH263616   6.940   0.149   7.808
21244TIP3    H163617   6.848   0.168   7.787
21244TIP3    H263618   6.961   0.208   7.880
21245TIP3   OH263619   7.182   0.168   7.681
21245TIP3    H163620   7.096   0.164   7.724
21245TIP3    H263621   7.163   0.199   7.592
21246TIP3   OH263622   7.582   0.202   7.473
21246TIP3    H163623   7.506   0.211   7.415
21246TIP3    H263624   7.588   0.287   7.516
21247TIP3   OH263625   7.840   0.117   7.496
21247TIP3    H163626   7.749   0.144   7.489
21247TIP3    H263627   7.889   0.189   7.456
21248TIP3   OH263628   8.039   0.297   7.413
21248TIP3    H163629   8.037   0.384   7.374
21248TIP3    H263630   8.075   0.241   7.344
21249TIP3   OH263631   3.589   9.203   7.533
21249TIP3    H163632   3.605   9.179   7.625
21249TIP3    H263633   3.663   9.168   7.485
21250TIP3   OH263634   3.795   9.086   7.404
21250TIP3    H163635   3.806   9.002   7.449
21250TIP3    H263636   3.881   9.127   7.409
21251TIP3   OH263637   4.059   9.175   7.425
21251TIP3    H163638   4.078   9.083   7.410
21251TIP3    H263639   4.114   9.199   7.499
21252TIP3   OH263640   4.566   7.805   7.478
21252TIP3    H163641   4.534   7.748   7.548
21252TIP3    H263642   4.659   7.784   7.469
21253TIP3   OH263643   5.114   7.719   7.384
21253TIP3    H163644   5.155   7.772   7.315
21253TIP3    H263645   5.030   7.763   7.400
21254TIP3   OH263646   5.232   7.823   7.161
21254TIP3    H163647   5.301   7.761   7.138
21254TIP3    H263648   5.272   7.909   7.150
21255TIP3   OH263649   3.841   7.533   7.514
21255TIP3    H163650   3.756   7.491   7.532
21255TIP3    H263651   3.901   7.459   7.502
21256TIP3   OH263652   3.650   7.427   7.162
21256TIP3    H163653   3.686   7.479   7.089
21256TIP3    H263654   3.624   7.493   7.226
21257TIP3   OH263655   4.289   7.584   7.366
21257TIP3    H163656   4.369   7.622   7.330
21257TIP3    H263657   4.297   7.596   7.461
21258TIP3   OH263658   4.826   7.739   7.411
21258TIP3    H163659   4.826   7.707   7.321
21258TIP3    H263660   4.838   7.660   7.464
21259TIP3   OH263661   4.883   7.653   6.952
21259TIP3    H163662   4.809   7.706   6.982
21259TIP3    H263663   4.868   7.567   6.990
21260TIP3   OH263664   3.345   9.006   6.947
21260TIP3    H163665   3.264   8.967   6.912
21260TIP3    H263666   3.350   9.092   6.906
21261TIP3   OH263667   3.775   7.569   6.935
21261TIP3    H163668   3.819   7.505   6.879
21261TIP3    H263669   3.846   7.620   6.974
21262TIP3   OH263670   4.327   7.690   7.025
21262TIP3    H163671   4.375   7.659   7.102
21262TIP3    H263672   4.317   7.784   7.039
21263TIP3   OH263673   4.157   9.153   6.525
21263TIP3    H163674   4.242   9.178   6.489
21263TIP3    H263675   4.127   9.082   6.468
21264TIP3   OH263676   8.118   0.048   6.626
21264TIP3    H163677   8.114  -0.048   6.620
21264TIP3    H263678   8.080   0.079   6.544
21265TIP3   OH263679   0.830   3.189   0.389
21265TIP3    H163680   0.795   3.132   0.457
21265TIP3    H263681   0.923   3.197   0.410
21266TIP3   OH263682   1.078   3.185   0.518
21266TIP3    H163683   1.157   3.155   0.473
21266TIP3    H263684   1.071   3.127   0.594
21267TIP3   OH263685   3.467   8.995   6.586
21267TIP3    H163686   3.472   9.003   6.682
21267TIP3    H263687   3.547   8.949   6.562
21268TIP3   OH263688   1.897   3.296   0.343
21268TIP3    H163689   1.923   3.256   0.427
21268TIP3    H263690   1.964   3.268   0.282
21269TIP3   OH263691   8.337   0.195   7.766
21269TIP3    H163692   8.249   0.179   7.731
21269TIP3    H263693   8.325   0.267   7.828
21270TIP3   OH263694   6.327   8.825   6.636
21270TIP3    H163695   6.390   8.849   6.704
21270TIP3    H263696   6.244   8.816   6.682
21271TIP3   OH263697   5.642   8.676   7.319
21271TIP3    H163698   5.671   8.609   7.381
21271TIP3    H263699   5.707   8.745   7.325
21272TIP3   OH263700   6.595   9.077   6.659
21272TIP3    H163701   6.605   9.022   6.736
21272TIP3    H263702   6.620   9.165   6.689
21273TIP3   OH263703   5.626   9.107   7.011
21273TIP3    H163704   5.610   9.013   7.016
21273TIP3    H263705   5.721   9.115   7.002
21274TIP3   OH263706   5.311   8.306   6.787
21274TIP3    H163707   5.276   8.391   6.814
21274TIP3    H263708   5.236   8.261   6.747
21275TIP3   OH263709   5.405   8.621   7.011
21275TIP3    H163710   5.453   8.542   7.038
21275TIP3    H263711   5.474   8.684   6.990
21276TIP3   OH263712   9.561   0.311   6.673
21276TIP3    H163713   9.581   0.265   6.591
21276TIP3    H263714   9.539   0.242   6.735
21277TIP3   OH263715   6.138   9.073   7.009
21277TIP3    H163716   6.131   9.003   6.943
21277TIP3    H263717   6.232   9.093   7.012
21278TIP3   OH263718   7.171   8.398   7.025
21278TIP3    H163719   7.189   8.456   7.100
21278TIP3    H263720   7.163   8.458   6.950
21279TIP3   OH263721   6.546   8.554   6.998
21279TIP3    H163722   6.576   8.467   7.026
21279TIP3    H263723   6.503   8.537   6.914
21280TIP3   OH263724   5.907   8.206   6.960
21280TIP3    H163725   5.880   8.280   6.906
21280TIP3    H263726   5.854   8.133   6.928
21281TIP3   OH263727   6.624   8.294   6.629
21281TIP3    H163728   6.680   8.281   6.705
21281TIP3    H263729   6.684   8.291   6.554
21282TIP3   OH263730   5.537   8.395   7.102
21282TIP3    H163731   5.623   8.381   7.141
21282TIP3    H263732   5.537   8.341   7.023
21283TIP3   OH263733   5.881   8.179   7.424
21283TIP3    H163734   5.837   8.220   7.349
21283TIP3    H263735   5.821   8.193   7.497
21284TIP3   OH263736   6.247   9.013   6.442
21284TIP3    H163737   6.256   8.984   6.533
21284TIP3    H263738   6.195   9.093   6.448
21285TIP3   OH263739   6.003   8.974   7.222
21285TIP3    H163740   5.937   9.039   7.249
21285TIP3    H263741   6.053   9.018   7.153
21286TIP3   OH263742   6.789   8.295   6.845
21286TIP3    H163743   6.731   8.280   6.919
21286TIP3    H263744   6.831   8.378   6.864
21287TIP3   OH263745   5.784   8.293   7.192
21287TIP3    H163746   5.835   8.372   7.211
21287TIP3    H263747   5.828   8.254   7.116
21288TIP3   OH263748   5.823   9.171   7.287
21288TIP3    H163749   5.819   9.265   7.269
21288TIP3    H263750   5.737   9.149   7.320
21289TIP3   OH263751   5.187   8.856   6.537
21289TIP3    H163752   5.162   8.862   6.445
21289TIP3    H263753   5.163   8.941   6.574
21290TIP3   OH263754   0.121   0.097   6.735
21290TIP3    H163755   0.045   0.101   6.792
21290TIP3    H263756   0.135   0.187   6.706
21291TIP3   OH263757   6.990   8.240   7.180
21291TIP3    H163758   6.930   8.307   7.214
21291TIP3    H263759   7.042   8.287   7.115
21292TIP3   OH263760   6.238   7.881   7.154
21292TIP3    H163761   6.227   7.789   7.175
21292TIP3    H263762   6.162   7.925   7.193
21293TIP3   OH263763   9.615   0.183   6.424
21293TIP3    H163764   9.661   0.099   6.429
21293TIP3    H263765   9.679   0.244   6.390
21294TIP3   OH263766   6.476   9.180   6.431
21294TIP3    H163767   6.407   9.113   6.421
21294TIP3    H263768   6.531   9.148   6.502
21295TIP3   OH263769   6.147   8.704   6.334
21295TIP3    H163770   6.055   8.720   6.355
21295TIP3    H263771   6.148   8.617   6.296
21296TIP3   OH263772   6.158   8.472   6.105
21296TIP3    H163773   6.239   8.510   6.139
21296TIP3    H263774   6.187   8.397   6.053
21297TIP3   OH263775   7.087   8.847   6.887
21297TIP3    H163776   7.036   8.845   6.969
21297TIP3    H263777   7.088   8.939   6.862
21298TIP3   OH263778   6.445   8.778   6.389
21298TIP3    H163779   6.413   8.791   6.478
21298TIP3    H263780   6.539   8.765   6.398
21299TIP3   OH263781   6.762   8.783   7.283
21299TIP3    H163782   6.771   8.878   7.297
21299TIP3    H263783   6.674   8.772   7.248
21300TIP3   OH263784   5.770   8.731   6.776
21300TIP3    H163785   5.763   8.644   6.738
21300TIP3    H263786   5.864   8.745   6.787
21301TIP3   OH263787   5.889   9.141   6.914
21301TIP3    H163788   5.893   9.070   6.850
21301TIP3    H263789   5.973   9.136   6.960
21302TIP3   OH263790   5.894   8.750   7.108
21302TIP3    H163791   5.940   8.746   7.024
21302TIP3    H263792   5.930   8.827   7.152
21303TIP3   OH263793   9.700   0.114   6.898
21303TIP3    H163794   9.681   0.194   6.947
21303TIP3    H263795   9.682   0.043   6.959
21304TIP3   OH263796   9.299   0.017   7.456
21304TIP3    H163797   9.242   0.075   7.506
21304TIP3    H263798   9.240  -0.036   7.403
21305TIP3   OH263799   6.395   8.583   6.195
21305TIP3    H163800   6.420   8.654   6.255
21305TIP3    H263801   6.421   8.615   6.108
21306TIP3   OH263802   5.789   8.811   7.536
21306TIP3    H163803   5.796   8.906   7.548
21306TIP3    H263804   5.698   8.791   7.559
21307TIP3   OH263805   9.385   0.014   6.434
21307TIP3    H163806   9.447   0.086   6.444
21307TIP3    H263807   9.305   0.056   6.401
21308TIP3   OH263808   9.119   0.195   7.556
21308TIP3    H163809   9.096   0.210   7.465
21308TIP3    H263810   9.037   0.167   7.598
21309TIP3   OH263811   6.877   7.851   6.271
21309TIP3    H163812   6.792   7.855   6.315
21309TIP3    H263813   6.876   7.926   6.210
21310TIP3   OH263814   5.639   8.566   6.547
21310TIP3    H163815   5.556   8.612   6.534
21310TIP3    H263816   5.615   8.487   6.595
21311TIP3   OH263817   5.401   8.973   7.475
21311TIP3    H163818   5.332   8.946   7.414
21311TIP3    H263819   5.441   8.891   7.504
21312TIP3   OH263820   5.267   9.171   7.143
21312TIP3    H163821   5.357   9.193   7.168
21312TIP3    H263822   5.215   9.247   7.168
21313TIP3   OH263823   9.475   0.187   7.323
21313TIP3    H163824   9.453   0.263   7.377
21313TIP3    H263825   9.427   0.114   7.363
21314TIP3   OH263826   8.695   0.068   6.651
21314TIP3    H163827   8.757   0.085   6.722
21314TIP3    H263828   8.619   0.030   6.695
21315TIP3   OH263829   9.507   0.207   5.901
21315TIP3    H163830   9.541   0.119   5.885
21315TIP3    H263831   9.478   0.206   5.992
21316TIP3   OH263832   9.452   0.233   6.181
21316TIP3    H163833   9.359   0.224   6.202
21316TIP3    H263834   9.497   0.212   6.263
21317TIP3   OH263835   5.579   9.179   7.429
21317TIP3    H163836   5.647   9.159   7.493
21317TIP3    H263837   5.514   9.110   7.441
21318TIP3   OH263838   5.998   7.972   7.275
21318TIP3    H163839   5.915   7.937   7.243
21318TIP3    H263840   5.973   8.052   7.322
21319TIP3   OH263841   6.533   8.113   7.460
21319TIP3    H163842   6.602   8.088   7.522
21319TIP3    H263843   6.453   8.076   7.499
21320TIP3   OH263844   6.784   8.502   7.361
21320TIP3    H163845   6.744   8.517   7.447
21320TIP3    H263846   6.794   8.590   7.324
21321TIP3   OH263847   6.451   8.669   5.945
21321TIP3    H163848   6.400   8.648   5.867
21321TIP3    H263849   6.530   8.712   5.910
21322TIP3   OH263850   6.168   8.017   6.261
21322TIP3    H163851   6.130   8.018   6.349
21322TIP3    H263852   6.137   7.934   6.224
21323TIP3   OH263853   5.923   8.518   7.261
21323TIP3    H163854   5.875   8.531   7.343
21323TIP3    H263855   5.907   8.598   7.211
21324TIP3   OH263856   5.780   8.395   6.796
21324TIP3    H163857   5.699   8.355   6.827
21324TIP3    H263858   5.799   8.350   6.713
21325TIP3   OH263859   6.288   8.468   6.531
21325TIP3    H163860   6.282   8.559   6.504
21325TIP3    H263861   6.349   8.429   6.468
21326TIP3   OH263862   6.491   8.804   7.591
21326TIP3    H163863   6.462   8.715   7.612
21326TIP3    H263864   6.580   8.793   7.559
21327TIP3   OH263865   6.474   8.495   6.741
21327TIP3    H163866   6.389   8.494   6.696
21327TIP3    H263867   6.519   8.418   6.706
21328TIP3   OH263868   5.766   8.502   7.499
21328TIP3    H163869   5.803   8.559   7.566
21328TIP3    H263870   5.749   8.419   7.544
21329TIP3   OH263871   5.826   7.992   6.227
21329TIP3    H163872   5.818   7.989   6.322
21329TIP3    H263873   5.747   8.036   6.197
21330TIP3   OH263874   5.369   8.044   7.091
21330TIP3    H163875   5.439   8.079   7.146
21330TIP3    H263876   5.412   8.025   7.008
21331TIP3   OH263877   5.267   8.016   6.597
21331TIP3    H163878   5.314   8.051   6.521
21331TIP3    H263879   5.204   8.085   6.620
21332TIP3   OH263880   6.505   8.744   7.186
21332TIP3    H163881   6.518   8.681   7.115
21332TIP3    H263882   6.468   8.693   7.258
21333TIP3   OH263883   6.179   8.193   6.867
21333TIP3    H163884   6.098   8.196   6.917
21333TIP3    H263885   6.248   8.184   6.933
21334TIP3   OH263886   5.565   8.244   6.876
21334TIP3    H163887   5.478   8.247   6.836
21334TIP3    H263888   5.598   8.156   6.855
21335TIP3   OH263889   5.830   8.251   6.568
21335TIP3    H163890   5.925   8.260   6.561
21335TIP3    H263891   5.797   8.272   6.481
21336TIP3   OH263892   6.598   8.282   7.046
21336TIP3    H163893   6.587   8.298   7.139
21336TIP3    H263894   6.532   8.216   7.024
21337TIP3   OH263895   5.726   8.287   6.317
21337TIP3    H163896   5.664   8.235   6.265
21337TIP3    H263897   5.780   8.331   6.251
21338TIP3   OH263898   5.783   9.083   7.594
21338TIP3    H163899   5.871   9.094   7.631
21338TIP3    H263900   5.725   9.078   7.670
21339TIP3   OH263901   5.727   8.009   6.858
21339TIP3    H163902   5.699   7.935   6.911
21339TIP3    H263903   5.761   7.970   6.778
21340TIP3   OH263904   6.181   8.420   7.293
21340TIP3    H163905   6.100   8.464   7.266
21340TIP3    H263906   6.246   8.490   7.297
21341TIP3   OH263907   5.895   8.840   6.334
21341TIP3    H163908   5.830   8.771   6.318
21341TIP3    H263909   5.879   8.867   6.424
21342TIP3   OH263910   6.792   9.059   7.032
21342TIP3    H163911   6.852   9.102   6.971
21342TIP3    H263912   6.742   8.997   6.978
21343TIP3   OH263913   6.368   8.168   6.160
21343TIP3    H163914   6.297   8.117   6.199
21343TIP3    H263915   6.399   8.224   6.232
21344TIP3   OH263916   6.366   9.119   7.332
21344TIP3    H163917   6.444   9.071   7.359
21344TIP3    H263918   6.319   9.136   7.414
21345TIP3   OH263919   6.467   8.361   6.339
21345TIP3    H163920   6.562   8.367   6.355
21345TIP3    H263921   6.449   8.434   6.279
21346TIP3   OH263922   5.635   8.815   6.999
21346TIP3    H163923   5.670   8.794   6.913
21346TIP3    H263924   5.703   8.786   7.060
21347TIP3   OH263925   6.099   8.957   6.194
21347TIP3    H163926   6.078   9.046   6.166
21347TIP3    H263927   6.016   8.922   6.226
21348TIP3   OH263928   5.525   8.763   7.615
21348TIP3    H163929   5.551   8.758   7.707
21348TIP3    H263930   5.453   8.701   7.607
21349TIP3   OH263931   6.223   8.888   7.596
21349TIP3    H163932   6.163   8.821   7.562
21349TIP3    H263933   6.310   8.858   7.569
21350TIP3   OH263934   9.775   0.132   7.299
21350TIP3    H163935   9.700   0.073   7.298
21350TIP3    H263936   9.737   0.219   7.287
21351TIP3   OH263937   6.908   8.452   6.139
21351TIP3    H163938   6.867   8.398   6.072
21351TIP3    H263939   6.899   8.542   6.107
21352TIP3   OH263940   6.618   8.892   6.880
21352TIP3    H163941   6.574   8.848   6.952
21352TIP3    H263942   6.653   8.822   6.826
21353TIP3   OH263943   5.314   8.443   6.379
21353TIP3    H163944   5.358   8.524   6.405
21353TIP3    H263945   5.233   8.443   6.430
21354TIP3   OH263946   5.849   8.921   6.586
21354TIP3    H163947   5.929   8.922   6.638
21354TIP3    H263948   5.787   8.869   6.638
21355TIP3   OH263949   9.305   0.229   7.106
21355TIP3    H163950   9.339   0.307   7.063
21355TIP3    H263951   9.376   0.201   7.164
21356TIP3   OH263952   8.935   0.186   6.527
21356TIP3    H163953   8.942   0.277   6.554
21356TIP3    H263954   9.014   0.169   6.475
21357TIP3   OH263955   6.405   9.129   7.063
21357TIP3    H163956   6.382   9.127   7.156
21357TIP3    H263957   6.483   9.075   7.055
21358TIP3   OH263958   0.178   0.255   5.737
21358TIP3    H163959   0.230   0.335   5.745
21358TIP3    H263960   0.094   0.277   5.777
21359TIP3   OH263961   5.711   8.248   7.630
21359TIP3    H163962   5.616   8.261   7.633
21359TIP3    H263963   5.728   8.182   7.697
21360TIP3   OH263964   8.724   0.135   7.271
21360TIP3    H163965   8.772   0.073   7.325
21360TIP3    H263966   8.738   0.220   7.312
21361TIP3   OH263967   5.809   8.952   6.010
21361TIP3    H163968   5.788   8.867   5.972
21361TIP3    H263969   5.744   8.964   6.079
21362TIP3   OH263970   5.667   9.005   6.248
21362TIP3    H163971   5.746   8.978   6.296
21362TIP3    H263972   5.658   9.098   6.267
21363TIP3   OH263973   5.405   8.694   6.463
21363TIP3    H163974   5.336   8.741   6.511
21363TIP3    H263975   5.425   8.752   6.389
21364TIP3   OH263976   6.566   8.340   7.310
21364TIP3    H163977   6.650   8.379   7.335
21364TIP3    H263978   6.558   8.262   7.366
21365TIP3   OH263979   6.463   8.089   6.537
21365TIP3    H163980   6.425   8.131   6.460
21365TIP3    H263981   6.517   8.158   6.577
21366TIP3   OH263982   6.112   8.265   6.608
21366TIP3    H163983   6.167   8.339   6.582
21366TIP3    H263984   6.132   8.251   6.700
21367TIP3   OH263985   6.414   8.563   7.371
21367TIP3    H163986   6.413   8.559   7.467
21367TIP3    H263987   6.461   8.484   7.344
21368TIP3   OH263988   6.287   7.981   6.721
21368TIP3    H163989   6.258   8.058   6.769
21368TIP3    H263990   6.355   8.014   6.662
21369TIP3   OH263991   8.863   0.037   6.300
21369TIP3    H163992   8.833   0.047   6.210
21369TIP3    H263993   8.951   0.076   6.300
21370TIP3   OH263994   5.794   7.979   6.505
21370TIP3    H163995   5.785   8.070   6.536
21370TIP3    H263996   5.887   7.961   6.513
21371TIP3   OH263997   6.695   8.664   6.742
21371TIP3    H163998   6.619   8.607   6.752
21371TIP3    H263999   6.763   8.623   6.796
21372TIP3   OH264000   5.429   8.866   6.241
21372TIP3    H164001   5.501   8.929   6.246
21372TIP3    H264002   5.458   8.801   6.177
21373TIP3   OH264003   5.335   8.164   6.376
21373TIP3    H164004   5.351   8.258   6.385
21373TIP3    H264005   5.276   8.156   6.301
21374TIP3   OH264006   0.155   0.371   6.679
21374TIP3    H164007   0.110   0.432   6.621
21374TIP3    H264008   0.147   0.411   6.766
21375TIP3   OH264009   5.734   7.887   7.243
21375TIP3    H164010   5.706   7.854   7.157
21375TIP3    H264011   5.727   7.812   7.301
21376TIP3   OH264012   8.721   0.406   7.696
21376TIP3    H164013   8.805   0.384   7.738
21376TIP3    H264014   8.677   0.322   7.686
21377TIP3   OH264015   5.896   9.168   5.864
21377TIP3    H164016   5.867   9.095   5.920
21377TIP3    H264017   5.976   9.136   5.823
21378TIP3   OH264018   6.352   9.206   5.804
21378TIP3    H164019   6.411   9.136   5.831
21378TIP3    H264020   6.379   9.227   5.714
21379TIP3   OH264021   5.610   9.055   7.797
21379TIP3    H164022   5.608   8.967   7.834
21379TIP3    H264023   5.521   9.069   7.764
21380TIP3   OH264024   5.552   8.677   6.087
21380TIP3    H164025   5.602   8.652   6.164
21380TIP3    H264026   5.617   8.689   6.018
21381TIP3   OH264027   6.254   9.160   7.582
21381TIP3    H164028   6.171   9.194   7.549
21381TIP3    H264029   6.239   9.066   7.593
21382TIP3   OH264030   6.107   8.890   5.903
21382TIP3    H164031   6.070   8.898   5.991
21382TIP3    H264032   6.104   8.796   5.885
21383TIP3   OH264033   6.666   9.129   7.281
21383TIP3    H164034   6.715   9.121   7.199
21383TIP3    H264035   6.627   9.216   7.277
21384TIP3   OH264036   5.669   8.786   7.867
21384TIP3    H164037   5.737   8.718   7.871
21384TIP3    H264038   5.664   8.820   7.956
21385TIP3   OH264039   5.730   8.624   6.295
21385TIP3    H164040   5.704   8.593   6.381
21385TIP3    H264041   5.778   8.551   6.256
21386TIP3   OH264042   6.029   8.676   7.523
21386TIP3    H164043   5.949   8.729   7.527
21386TIP3    H264044   6.069   8.698   7.439
21387TIP3   OH264045   5.879   8.442   6.146
21387TIP3    H164046   5.848   8.443   6.055
21387TIP3    H264047   5.974   8.446   6.139
21388TIP3   OH264048   6.682   8.747   5.808
21388TIP3    H164049   6.639   8.702   5.736
21388TIP3    H264050   6.754   8.795   5.768
21389TIP3   OH264051   6.132   8.452   7.643
21389TIP3    H164052   6.137   8.371   7.592
21389TIP3    H264053   6.099   8.517   7.581
21390TIP3   OH264054   6.141   8.231   7.479
21390TIP3    H164055   6.166   8.286   7.405
21390TIP3    H264056   6.049   8.210   7.462
21391TIP3   OH264057   6.165   8.770   7.310
21391TIP3    H164058   6.247   8.774   7.261
21391TIP3    H264059   6.115   8.847   7.280
21392TIP3   OH264060   6.012   8.606   7.836
21392TIP3    H164061   5.954   8.540   7.874
21392TIP3    H264062   6.044   8.568   7.755
21393TIP3   OH264063   6.282   8.005   7.527
21393TIP3    H164064   6.233   8.084   7.503
21393TIP3    H264065   6.218   7.935   7.525
21394TIP3   OH264066   6.384   8.567   7.670
21394TIP3    H164067   6.410   8.574   7.762
21394TIP3    H264068   6.300   8.522   7.673
21395TIP3   OH264069   6.651   8.532   7.596
21395TIP3    H164070   6.568   8.519   7.641
21395TIP3    H264071   6.717   8.493   7.654
21396TIP3   OH264072   6.848   8.412   7.741
21396TIP3    H164073   6.912   8.354   7.701
21396TIP3    H264074   6.835   8.376   7.829
21397TIP3   OH264075   5.860   8.374   7.899
21397TIP3    H164076   5.875   8.287   7.861
21397TIP3    H264077   5.831   8.356   7.989
21398TIP3   OH264078   6.385   8.075   7.766
21398TIP3    H164079   6.403   7.993   7.811
21398TIP3    H264080   6.352   8.048   7.680
21399TIP3   OH264081   6.504   8.313   7.834
21399TIP3    H164082   6.481   8.232   7.789
21399TIP3    H264083   6.421   8.352   7.859
21400TIP3   OH264084   8.934   0.155   6.051
21400TIP3    H164085   9.013   0.166   6.103
21400TIP3    H264086   8.938   0.225   5.986
21401TIP3   OH264087   5.157   8.866   6.255
21401TIP3    H164088   5.252   8.876   6.251
21401TIP3    H264089   5.140   8.782   6.214
21402TIP3   OH264090   8.333   0.181   6.727
21402TIP3    H164091   8.265   0.129   6.685
21402TIP3    H264092   8.383   0.118   6.778
21403TIP3   OH264093   8.512   0.034   6.874
21403TIP3    H164094   8.503  -0.036   6.939
21403TIP3    H264095   8.550   0.107   6.923
21404TIP3   OH264096   6.880   8.922   6.132
21404TIP3    H164097   6.929   9.003   6.119
21404TIP3    H264098   6.907   8.890   6.218
21405TIP3   OH264099   6.961   8.782   6.358
21405TIP3    H164100   6.882   8.757   6.406
21405TIP3    H264101   7.019   8.819   6.424
21406TIP3   OH264102   6.938   9.166   6.824
21406TIP3    H164103   7.015   9.142   6.771
21406TIP3    H264104   6.883   9.216   6.765
21407TIP3   OH264105   6.870   8.687   6.000
21407TIP3    H164106   6.795   8.698   5.940
21407TIP3    H264107   6.871   8.768   6.051
21408TIP3   OH264108   6.785   8.352   5.910
21408TIP3    H164109   6.699   8.394   5.907
21408TIP3    H264110   6.766   8.258   5.907
21409TIP3   OH264111   6.724   8.666   6.467
21409TIP3    H164112   6.730   8.572   6.449
21409TIP3    H264113   6.717   8.672   6.562
21410TIP3   OH264114   5.379   8.720   7.265
21410TIP3    H164115   5.368   8.683   7.177
21410TIP3    H264116   5.472   8.713   7.283
21411TIP3   OH264117   6.689   8.091   5.905
21411TIP3    H164118   6.750   8.060   5.972
21411TIP3    H264119   6.609   8.041   5.920
21412TIP3   OH264120   6.748   8.387   6.366
21412TIP3    H164121   6.777   8.298   6.387
21412TIP3    H264122   6.805   8.413   6.293
21413TIP3   OH264123   6.898   8.546   6.890
21413TIP3    H164124   6.985   8.556   6.850
21413TIP3    H264125   6.907   8.586   6.976
21414TIP3   OH264126   6.969   8.678   7.120
21414TIP3    H164127   6.910   8.715   7.186
21414TIP3    H264128   7.049   8.658   7.167
21415TIP3   OH264129   5.582   8.398   7.878
21415TIP3    H164130   5.678   8.402   7.876
21415TIP3    H264131   5.563   8.319   7.929
21416TIP3   OH264132   6.806   8.136   6.456
21416TIP3    H164133   6.873   8.116   6.522
21416TIP3    H264134   6.762   8.053   6.440
21417TIP3   OH264135   5.575   8.113   7.266
21417TIP3    H164136   5.628   8.033   7.270
21417TIP3    H264137   5.637   8.182   7.242
21418TIP3   OH264138   5.357   8.376   7.315
21418TIP3    H164139   5.409   8.370   7.235
21418TIP3    H264140   5.402   8.443   7.367
21419TIP3   OH264141   6.914   8.042   6.066
21419TIP3    H164142   6.955   7.974   6.013
21419TIP3    H264143   6.983   8.105   6.083
21420TIP3   OH264144   5.344   7.883   6.822
21420TIP3    H164145   5.259   7.871   6.865
21420TIP3    H264146   5.325   7.937   6.746
21421TIP3   OH264147   0.016   0.346   6.328
21421TIP3    H164148   0.034   0.405   6.255
21421TIP3    H264149   0.020   0.403   6.405
21422TIP3   OH264150   5.553   7.915   7.617
21422TIP3    H164151   5.506   7.912   7.701
21422TIP3    H264152   5.500   7.973   7.562
21423TIP3   OH264153   8.883   0.123   7.681
21423TIP3    H164154   8.799   0.115   7.635
21423TIP3    H264155   8.869   0.078   7.764
21424TIP3   OH264156   9.090   0.206   7.277
21424TIP3    H164157   9.032   0.275   7.244
21424TIP3    H264158   9.168   0.212   7.222
21425TIP3   OH264159   7.190   8.133   7.351
21425TIP3    H164160   7.115   8.150   7.294
21425TIP3    H264161   7.218   8.044   7.329
21426TIP3   OH264162   8.726   0.416   7.320
21426TIP3    H164163   8.636   0.441   7.296
21426TIP3    H264164   8.751   0.478   7.388
21427TIP3   OH264165   8.954   0.414   7.168
21427TIP3    H164166   8.871   0.418   7.215
21427TIP3    H264167   8.933   0.443   7.079
21428TIP3   OH264168   9.376   0.460   6.970
21428TIP3    H164169   9.327   0.472   6.889
21428TIP3    H264170   9.322   0.504   7.036
21429TIP3   OH264171   9.638   0.383   6.946
21429TIP3    H164172   9.552   0.417   6.971
21429TIP3    H264173   9.638   0.385   6.851
21430TIP3   OH264174   8.656   0.228   7.022
21430TIP3    H164175   8.679   0.202   7.111
21430TIP3    H264176   8.728   0.195   6.968
21431TIP3   OH264177   8.851   0.104   6.876
21431TIP3    H164178   8.857   0.021   6.923
21431TIP3    H264179   8.939   0.142   6.881
21432TIP3   OH264180   9.119   0.179   6.905
21432TIP3    H164181   9.133   0.086   6.890
21432TIP3    H264182   9.176   0.200   6.980
21433TIP3   OH264183   6.409   8.079   6.998
21433TIP3    H164184   6.366   8.009   7.046
21433TIP3    H264185   6.475   8.035   6.944
21434TIP3   OH264186   6.904   7.986   6.881
21434TIP3    H164187   6.926   8.050   6.814
21434TIP3    H264188   6.810   7.998   6.896
21435TIP3   OH264189   7.007   8.106   6.648
21435TIP3    H164190   7.080   8.049   6.624
21435TIP3    H264191   7.049   8.182   6.690
21436TIP3   OH264192   5.650   7.783   7.001
21436TIP3    H164193   5.562   7.748   7.012
21436TIP3    H264194   5.706   7.705   6.991
21437TIP3   OH264195   5.454   7.684   6.648
21437TIP3    H164196   5.490   7.733   6.573
21437TIP3    H264197   5.426   7.752   6.709
21438TIP3   OH264198   6.128   7.825   6.895
21438TIP3    H164199   6.180   7.869   6.827
21438TIP3    H264200   6.168   7.853   6.977
21439TIP3   OH264201   6.622   7.951   6.865
21439TIP3    H164202   6.637   7.909   6.780
21439TIP3    H264203   6.624   7.879   6.928
21440TIP3   OH264204   6.643   7.905   6.412
21440TIP3    H164205   6.576   7.954   6.460
21440TIP3    H264206   6.604   7.819   6.398
21441TIP3   OH264207   8.513   0.030   6.395
21441TIP3    H164208   8.441  -0.030   6.411
21441TIP3    H264209   8.471   0.109   6.358
21442TIP3   OH264210   5.581   7.816   6.419
21442TIP3    H164211   5.626   7.754   6.362
21442TIP3    H264212   5.650   7.870   6.455
21443TIP3   OH264213   6.069   8.004   6.520
21443TIP3    H164214   6.129   7.945   6.566
21443TIP3    H264215   6.089   8.091   6.556
21444TIP3   OH264216   0.144   0.290   6.061
21444TIP3    H164217   0.092   0.237   6.121
21444TIP3    H264218   0.080   0.325   5.998
21445TIP3   OH264219   5.806   8.065   7.831
21445TIP3    H164220   5.785   7.995   7.892
21445TIP3    H264221   5.901   8.075   7.838
21446TIP3   OH264222   6.073   8.093   7.865
21446TIP3    H164223   6.149   8.119   7.813
21446TIP3    H264224   6.105   8.021   7.919
21447TIP3   OH264225   8.504   0.008   6.070
21447TIP3    H164226   8.502   0.029   6.163
21447TIP3    H264227   8.589  -0.034   6.056
21448TIP3   OH264228   6.965   8.068   7.782
21448TIP3    H164229   7.001   8.039   7.865
21448TIP3    H264230   7.039   8.110   7.737
21449TIP3   OH264231   7.114   8.547   6.307
21449TIP3    H164232   7.080   8.634   6.327
21449TIP3    H264233   7.047   8.507   6.252
21450TIP3   OH264234   7.183   8.858   6.509
21450TIP3    H164235   7.222   8.777   6.542
21450TIP3    H264236   7.258   8.913   6.486
21451TIP3   OH264237   7.687   8.443   6.485
21451TIP3    H164238   7.647   8.496   6.416
21451TIP3    H264239   7.688   8.354   6.450
21452TIP3   OH264240   8.353   8.520   6.081
21452TIP3    H164241   8.378   8.555   6.166
21452TIP3    H264242   8.420   8.553   6.020
21453TIP3   OH264243   7.325   8.635   6.592
21453TIP3    H164244   7.413   8.639   6.629
21453TIP3    H264245   7.329   8.563   6.529
21454TIP3   OH264246   7.743   8.821   6.357
21454TIP3    H164247   7.838   8.810   6.355
21454TIP3    H264248   7.708   8.732   6.350
21455TIP3   OH264249   7.618   8.409   6.863
21455TIP3    H164250   7.601   8.490   6.815
21455TIP3    H264251   7.590   8.428   6.953
21456TIP3   OH264252   7.589   8.616   6.677
21456TIP3    H164253   7.656   8.681   6.696
21456TIP3    H264254   7.631   8.554   6.617
21457TIP3   OH264255   7.041   9.135   6.051
21457TIP3    H164256   7.029   9.161   5.959
21457TIP3    H264257   7.061   9.217   6.096
21458TIP3   OH264258   7.999   8.124   6.611
21458TIP3    H164259   8.018   8.037   6.646
21458TIP3    H264260   7.935   8.161   6.672
21459TIP3   OH264261   7.972   8.865   5.815
21459TIP3    H164262   7.906   8.932   5.833
21459TIP3    H264263   8.053   8.915   5.801
21460TIP3   OH264264   7.917   8.712   5.591
21460TIP3    H164265   7.944   8.754   5.672
21460TIP3    H264266   7.992   8.659   5.565
21461TIP3   OH264267   7.552   8.986   6.245
21461TIP3    H164268   7.514   8.927   6.179
21461TIP3    H264269   7.626   8.937   6.281
21462TIP3   OH264270   8.237   8.915   5.726
21462TIP3    H164271   8.328   8.944   5.711
21462TIP3    H264272   8.201   8.905   5.638
21463TIP3   OH264273   8.653   8.085   5.730
21463TIP3    H164274   8.581   8.103   5.791
21463TIP3    H264275   8.651   8.157   5.668
21464TIP3   OH264276   7.426   8.802   6.067
21464TIP3    H164277   7.354   8.857   6.037
21464TIP3    H264278   7.402   8.713   6.041
21465TIP3   OH264279   0.682   0.388   6.176
21465TIP3    H164280   0.659   0.398   6.268
21465TIP3    H264281   0.646   0.303   6.152
21466TIP3   OH264282   1.539   0.499   5.475
21466TIP3    H164283   1.592   0.419   5.470
21466TIP3    H264284   1.529   0.515   5.569
21467TIP3   OH264285   7.779   8.208   6.764
21467TIP3    H164286   7.705   8.168   6.718
21467TIP3    H264287   7.743   8.287   6.804
21468TIP3   OH264288   8.173   8.895   5.462
21468TIP3    H164289   8.133   8.852   5.386
21468TIP3    H264290   8.266   8.895   5.443
21469TIP3   OH264291   7.941   8.281   5.748
21469TIP3    H164292   7.910   8.286   5.838
21469TIP3    H264293   7.905   8.199   5.714
21470TIP3   OH264294   7.562   8.604   6.300
21470TIP3    H164295   7.507   8.681   6.284
21470TIP3    H264296   7.582   8.570   6.213
21471TIP3   OH264297   8.063   8.684   6.001
21471TIP3    H164298   8.025   8.749   5.941
21471TIP3    H264299   8.142   8.654   5.956
21472TIP3   OH264300   7.608   8.263   5.710
21472TIP3    H164301   7.598   8.255   5.805
21472TIP3    H264302   7.526   8.303   5.681
21473TIP3   OH264303   7.110   8.237   6.098
21473TIP3    H164304   7.140   8.280   6.018
21473TIP3    H264305   7.058   8.303   6.143
21474TIP3   OH264306   7.948   8.496   6.379
21474TIP3    H164307   7.882   8.474   6.445
21474TIP3    H264308   8.021   8.438   6.399
21475TIP3   OH264309   7.338   8.405   6.396
21475TIP3    H164310   7.250   8.438   6.375
21475TIP3    H264311   7.393   8.440   6.326
21476TIP3   OH264312   7.607   8.506   6.053
21476TIP3    H164313   7.701   8.520   6.051
21476TIP3    H264314   7.577   8.529   5.965
21477TIP3   OH264315   7.491   8.554   5.809
21477TIP3    H164316   7.433   8.498   5.758
21477TIP3    H264317   7.548   8.595   5.744
21478TIP3   OH264318   7.554   8.197   6.380
21478TIP3    H164319   7.622   8.134   6.403
21478TIP3    H264320   7.541   8.186   6.286
21479TIP3   OH264321   7.769   9.050   5.853
21479TIP3    H164322   7.694   8.993   5.835
21479TIP3    H264323   7.745   9.096   5.934
21480TIP3   OH264324   8.184   8.391   5.702
21480TIP3    H164325   8.093   8.366   5.720
21480TIP3    H264326   8.193   8.479   5.737
21481TIP3   OH264327   8.258   8.638   5.801
21481TIP3    H164328   8.350   8.621   5.821
21481TIP3    H264329   8.256   8.731   5.777
21482TIP3   OH264330   7.416   9.006   6.488
21482TIP3    H164331   7.449   9.017   6.398
21482TIP3    H264332   7.494   9.000   6.542
21483TIP3   OH264333   7.870   9.215   5.663
21483TIP3    H164334   7.830   9.298   5.692
21483TIP3    H264335   7.849   9.153   5.733
21484TIP3   OH264336   8.698   8.667   5.678
21484TIP3    H164337   8.657   8.600   5.623
21484TIP3    H264338   8.681   8.749   5.633
21485TIP3   OH264339   0.993   0.168   6.115
21485TIP3    H164340   0.985   0.256   6.076
21485TIP3    H264341   0.910   0.155   6.161
21486TIP3   OH264342   7.106   8.698   5.856
21486TIP3    H164343   7.149   8.778   5.885
21486TIP3    H264344   7.022   8.697   5.901
21487TIP3   OH264345   7.666   9.175   6.070
21487TIP3    H164346   7.630   9.262   6.085
21487TIP3    H264347   7.627   9.121   6.139
21488TIP3   OH264348   0.902   0.414   6.013
21488TIP3    H164349   0.824   0.419   6.067
21488TIP3    H264350   0.919   0.505   5.988
21489TIP3   OH264351   8.129   9.177   5.439
21489TIP3    H164352   8.172   9.212   5.518
21489TIP3    H264353   8.124   9.083   5.455
21490TIP3   OH264354   7.500   8.472   7.102
21490TIP3    H164355   7.443   8.538   7.142
21490TIP3    H264356   7.463   8.388   7.130
21491TIP3   OH264357   7.520   9.230   5.463
21491TIP3    H164358   7.582   9.160   5.443
21491TIP3    H264359   7.508   9.225   5.558
21492TIP3   OH264360   0.968  -0.004   5.735
21492TIP3    H164361   1.043  -0.038   5.785
21492TIP3    H264362   0.962   0.087   5.761
21493TIP3   OH264363   7.212   8.936   5.955
21493TIP3    H164364   7.150   8.982   6.012
21493TIP3    H264365   7.233   8.999   5.886
21494TIP3   OH264366   8.238   8.298   5.974
21494TIP3    H164367   8.220   8.321   5.883
21494TIP3    H264368   8.272   8.379   6.013
21495TIP3   OH264369   1.207   0.201   5.744
21495TIP3    H164370   1.122   0.219   5.783
21495TIP3    H264371   1.224   0.277   5.688
21496TIP3   OH264372   7.876   8.529   6.117
21496TIP3    H164373   7.943   8.585   6.077
21496TIP3    H264374   7.904   8.521   6.209
21497TIP3   OH264375   8.074   8.200   6.179
21497TIP3    H164376   8.106   8.242   6.259
21497TIP3    H264377   8.134   8.231   6.111
21498TIP3   OH264378   0.939   0.256   5.794
21498TIP3    H164379   0.936   0.319   5.723
21498TIP3    H264380   0.920   0.307   5.873
21499TIP3   OH264381   7.592   8.236   5.988
21499TIP3    H164382   7.579   8.326   6.019
21499TIP3    H264383   7.686   8.221   5.996
21500TIP3   OH264384   7.248   9.134   5.769
21500TIP3    H164385   7.325   9.189   5.789
21500TIP3    H264386   7.264   9.101   5.681
21501TIP3   OH264387   7.109   8.418   5.885
21501TIP3    H164388   7.126   8.512   5.877
21501TIP3    H264389   7.014   8.411   5.879
21502TIP3   OH264390   7.537   8.097   6.657
21502TIP3    H164391   7.548   8.021   6.600
21502TIP3    H264392   7.522   8.059   6.743
21503TIP3   OH264393   0.535   0.157   6.146
21503TIP3    H164394   0.486   0.189   6.221
21503TIP3    H264395   0.489   0.193   6.070
21504TIP3   OH264396   1.141   0.200   5.377
21504TIP3    H164397   1.084   0.137   5.420
21504TIP3    H264398   1.214   0.148   5.344
21505TIP3   OH264399   1.683   0.269   5.400
21505TIP3    H164400   1.741   0.192   5.404
21505TIP3    H264401   1.677   0.289   5.307
21506TIP3   OH264402   7.257   9.004   5.515
21506TIP3    H164403   7.258   8.927   5.572
21506TIP3    H264404   7.332   8.992   5.457
21507TIP3   OH264405   7.743   9.066   5.467
21507TIP3    H164406   7.794   9.101   5.540
21507TIP3    H264407   7.786   8.983   5.445
21508TIP3   OH264408   7.559   8.882   5.813
21508TIP3    H164409   7.520   8.836   5.887
21508TIP3    H264410   7.579   8.814   5.749
21509TIP3   OH264411   7.643   8.689   5.627
21509TIP3    H164412   7.617   8.680   5.536
21509TIP3    H264413   7.739   8.691   5.625
21510TIP3   OH264414   8.426   8.971   5.401
21510TIP3    H164415   8.476   8.929   5.331
21510TIP3    H264416   8.369   9.034   5.355
21511TIP3   OH264417   0.953   0.433   5.596
21511TIP3    H164418   1.047   0.443   5.577
21511TIP3    H264419   0.909   0.489   5.533
21512TIP3   OH264420   0.315   0.465   6.189
21512TIP3    H164421   0.261   0.409   6.134
21512TIP3    H264422   0.359   0.405   6.249
21513TIP3   OH264423   0.440   0.308   6.381
21513TIP3    H164424   0.400   0.238   6.432
21513TIP3    H264425   0.442   0.383   6.441
21514TIP3   OH264426   8.654   8.897   5.546
21514TIP3    H164427   8.565   8.900   5.511
21514TIP3    H264428   8.681   8.989   5.550
21515TIP3   OH264429   8.497   8.637   5.477
21515TIP3    H164430   8.543   8.654   5.395
21515TIP3    H264431   8.470   8.545   5.471
21516TIP3   OH264432   7.158   9.066   6.691
21516TIP3    H164433   7.141   8.988   6.637
21516TIP3    H264434   7.251   9.086   6.676
21517TIP3   OH264435   8.454   8.373   5.412
21517TIP3    H164436   8.532   8.339   5.455
21517TIP3    H264437   8.385   8.309   5.432
21518TIP3   OH264438   8.533   8.579   5.880
21518TIP3    H164439   8.582   8.501   5.906
21518TIP3    H264440   8.589   8.623   5.816
21519TIP3   OH264441   8.686   8.353   5.942
21519TIP3    H164442   8.752   8.316   6.001
21519TIP3    H264443   8.617   8.288   5.940
21520TIP3   OH264444   7.386   8.341   6.686
21520TIP3    H164445   7.451   8.315   6.751
21520TIP3    H264446   7.329   8.402   6.731
21521TIP3   OH264447   7.165   8.593   6.818
21521TIP3    H164448   7.213   8.615   6.738
21521TIP3    H264449   7.145   8.677   6.858
21522TIP3   OH264450   8.684   8.295   5.548
21522TIP3    H164451   8.729   8.235   5.488
21522TIP3    H264452   8.753   8.328   5.606
21523TIP3   OH264453   7.359   8.232   7.148
21523TIP3    H164454   7.314   8.217   7.231
21523TIP3    H264455   7.296   8.281   7.095
21524TIP3   OH264456   8.137   8.297   6.433
21524TIP3    H164457   8.108   8.240   6.504
21524TIP3    H264458   8.230   8.275   6.421
21525TIP3   OH264459   7.267   7.995   6.140
21525TIP3    H164460   7.307   8.002   6.053
21525TIP3    H264461   7.209   8.071   6.146
21526TIP3   OH264462   7.865   8.111   6.368
21526TIP3    H164463   7.926   8.138   6.299
21526TIP3    H264464   7.916   8.118   6.449
21527TIP3   OH264465   8.388   8.200   6.373
21527TIP3    H164466   8.451   8.183   6.302
21527TIP3    H264467   8.406   8.132   6.437
21528TIP3   OH264468   8.480   8.166   5.933
21528TIP3    H164469   8.397   8.210   5.946
21528TIP3    H264470   8.468   8.080   5.974
21529TIP3   OH264471   0.398   0.273   5.945
21529TIP3    H164472   0.306   0.265   5.970
21529TIP3    H264473   0.401   0.351   5.889
21530TIP3   OH264474   7.390   8.069   5.897
21530TIP3    H164475   7.435   7.998   5.850
21530TIP3    H264476   7.461   8.121   5.935
21531TIP3   OH264477   7.863   8.276   6.012
21531TIP3    H164478   7.926   8.224   6.061
21531TIP3    H264479   7.872   8.364   6.048
21532TIP3   OH264480   1.230   0.402   5.553
21532TIP3    H164481   1.320   0.432   5.567
21532TIP3    H264482   1.239   0.325   5.496
21533TIP3   OH264483   0.523   0.303   5.567
21533TIP3    H164484   0.540   0.337   5.655
21533TIP3    H264485   0.595   0.242   5.550
21534TIP3   OH264486   9.470   8.587   5.237
21534TIP3    H164487   9.501   8.527   5.305
21534TIP3    H264488   9.383   8.554   5.213
21535TIP3   OH264489   8.981   8.604   5.668
21535TIP3    H164490   9.022   8.603   5.581
21535TIP3    H264491   8.892   8.636   5.651
21536TIP3   OH264492   9.077   8.621   5.408
21536TIP3    H164493   9.129   8.693   5.373
21536TIP3    H264494   8.986   8.647   5.393
21537TIP3   OH264495   8.879   8.358   5.732
21537TIP3    H164496   8.823   8.365   5.810
21537TIP3    H264497   8.924   8.442   5.727
21538TIP3   OH264498   9.035   8.168   5.605
21538TIP3    H164499   9.074   8.218   5.533
21538TIP3    H264500   8.984   8.232   5.654
21539TIP3   OH264501   9.141   8.330   5.408
21539TIP3    H164502   9.203   8.292   5.345
21539TIP3    H264503   9.159   8.424   5.407
21540TIP3   OH264504   1.267   9.090   7.246
21540TIP3    H164505   1.243   9.016   7.189
21540TIP3    H264506   1.233   9.167   7.201
21541TIP3   OH264507   6.540   0.415   7.646
21541TIP3    H164508   6.528   0.510   7.645
21541TIP3    H264509   6.577   0.394   7.560
21542TIP3   OH264510   5.910   0.344   7.292
21542TIP3    H164511   5.969   0.350   7.367
21542TIP3    H264512   5.967   0.357   7.216
21543TIP3   OH264513   6.088   0.386   7.500
21543TIP3    H164514   6.126   0.312   7.548
21543TIP3    H264515   6.161   0.447   7.488
21544TIP3   OH264516   5.421   0.534   6.889
21544TIP3    H164517   5.484   0.583   6.942
21544TIP3    H264518   5.469   0.511   6.809
21545TIP3   OH264519   2.912   9.129   6.908
21545TIP3    H164520   2.836   9.148   6.962
21545TIP3    H264521   2.925   9.208   6.856
21546TIP3   OH264522   2.226   9.240   6.968
21546TIP3    H164523   2.180   9.255   7.050
21546TIP3    H264524   2.167   9.185   6.917
21547TIP3   OH264525   5.624   0.405   7.098
21547TIP3    H164526   5.674   0.473   7.144
21547TIP3    H264527   5.678   0.384   7.022
21548TIP3   OH264528   5.084   0.019   6.891
21548TIP3    H164529   5.092   0.032   6.986
21548TIP3    H264530   5.069   0.107   6.856
21549TIP3   OH264531   5.260   0.285   7.057
21549TIP3    H164532   5.312   0.297   7.136
21549TIP3    H264533   5.173   0.320   7.080
21550TIP3   OH264534   4.986   0.349   7.055
21550TIP3    H164535   4.901   0.307   7.065
21550TIP3    H264536   5.014   0.327   6.966
21551TIP3   OH264537   8.793   6.457   7.938
21551TIP3    H164538   8.757   6.418   8.017
21551TIP3    H264539   8.848   6.389   7.900
21552TIP3   OH264540   5.718   0.143   6.936
21552TIP3    H164541   5.639   0.091   6.950
21552TIP3    H264542   5.691   0.211   6.874
21553TIP3   OH264543   5.846   0.441   6.899
21553TIP3    H164544   5.916   0.417   6.960
21553TIP3    H264545   5.885   0.428   6.812
21554TIP3   OH264546   6.296   0.508   6.862
21554TIP3    H164547   6.216   0.477   6.820
21554TIP3    H264548   6.279   0.600   6.882
21555TIP3   OH264549   5.785   0.115   7.199
21555TIP3    H164550   5.761   0.138   7.109
21555TIP3    H264551   5.817   0.198   7.236
21556TIP3   OH264552   5.437   0.299   7.268
21556TIP3    H164553   5.511   0.322   7.211
21556TIP3    H264554   5.440   0.363   7.339
21557TIP3   OH264555   5.609  -0.004   7.371
21557TIP3    H164556   5.640   0.039   7.451
21557TIP3    H264557   5.663   0.033   7.302
21558TIP3   OH264558   5.102   0.009   7.171
21558TIP3    H164559   5.075   0.028   7.261
21558TIP3    H264560   5.198   0.009   7.174
21559TIP3   OH264561   5.161   0.581   6.832
21559TIP3    H164562   5.154   0.545   6.744
21559TIP3    H264563   5.251   0.562   6.859
21560TIP3   OH264564   6.085   0.430   6.713
21560TIP3    H164565   6.115   0.452   6.624
21560TIP3    H264566   6.060   0.338   6.708
21561TIP3   OH264567   5.999   0.704   7.212
21561TIP3    H164568   6.083   0.660   7.198
21561TIP3    H264569   6.011   0.755   7.292
21562TIP3   OH264570   5.986   0.177   6.649
21562TIP3    H164571   6.066   0.132   6.676
21562TIP3    H264572   5.918   0.110   6.653
21563TIP3   OH264573   6.063   0.381   7.065
21563TIP3    H164574   6.115   0.301   7.063
21563TIP3    H264575   6.125   0.451   7.084
21564TIP3   OH264576   6.205   0.146   7.107
21564TIP3    H164577   6.239   0.134   7.196
21564TIP3    H264578   6.136   0.079   7.099
21565TIP3   OH264579   6.234   0.096   6.736
21565TIP3    H164580   6.274   0.033   6.676
21565TIP3    H264581   6.303   0.160   6.754
21566TIP3   OH264582   5.721   0.106   7.593
21566TIP3    H164583   5.726   0.116   7.688
21566TIP3    H264584   5.812   0.092   7.566
21567TIP3   OH264585   6.228   0.098   7.598
21567TIP3    H164586   6.271   0.117   7.515
21567TIP3    H264587   6.139   0.071   7.572
21568TIP3   OH264588   6.345   0.127   7.349
21568TIP3    H164589   6.416   0.072   7.317
21568TIP3    H264590   6.374   0.217   7.330
21569TIP3   OH264591   1.501   8.953   7.284
21569TIP3    H164592   1.553   8.992   7.214
21569TIP3    H264593   1.428   9.015   7.297
21570TIP3   OH264594   2.152   9.123   7.541
21570TIP3    H164595   2.217   9.159   7.480
21570TIP3    H264596   2.141   9.192   7.608
21571TIP3   OH264597   2.708   9.250   7.527
21571TIP3    H164598   2.731   9.207   7.444
21571TIP3    H264599   2.694   9.178   7.588
21572TIP3   OH264600   2.732   9.204   7.104
21572TIP3    H164601   2.655   9.254   7.130
21572TIP3    H264602   2.718   9.117   7.141
21573TIP3   OH264603   1.629   9.089   7.072
21573TIP3    H164604   1.671   9.031   7.008
21573TIP3    H264605   1.701   9.142   7.107
21574TIP3   OH264606   5.373   0.038   7.217
21574TIP3    H164607   5.436  -0.011   7.270
21574TIP3    H264608   5.391   0.130   7.237
21575TIP3   OH264609   6.510   0.592   7.026
21575TIP3    H164610   6.520   0.661   6.960
21575TIP3    H264611   6.450   0.529   6.986
21576TIP3   OH264612   8.277   0.654   7.150
21576TIP3    H164613   8.312   0.729   7.198
21576TIP3    H264614   8.326   0.653   7.067
21577TIP3   OH264615   7.629   0.771   7.170
21577TIP3    H164616   7.655   0.702   7.231
21577TIP3    H264617   7.610   0.725   7.088
21578TIP3   OH264618   7.043   0.416   7.170
21578TIP3    H164619   7.035   0.484   7.104
21578TIP3    H264620   7.004   0.338   7.129
21579TIP3   OH264621   7.713   0.579   6.765
21579TIP3    H164622   7.781   0.572   6.832
21579TIP3    H264623   7.760   0.603   6.685
21580TIP3   OH264624   6.625   0.681   7.266
21580TIP3    H164625   6.705   0.632   7.250
21580TIP3    H264626   6.566   0.655   7.196
21581TIP3   OH264627   7.109   0.967   7.034
21581TIP3    H164628   7.183   0.925   6.992
21581TIP3    H264629   7.032   0.931   6.989
21582TIP3   OH264630   8.386   0.837   7.330
21582TIP3    H164631   8.295   0.866   7.325
21582TIP3    H264632   8.426   0.894   7.396
21583TIP3   OH264633   6.993   0.518   7.593
21583TIP3    H164634   6.935   0.527   7.517
21583TIP3    H264635   6.937   0.478   7.660
21584TIP3   OH264636   7.887   0.562   6.971
21584TIP3    H164637   7.848   0.542   7.056
21584TIP3    H264638   7.938   0.642   6.986
21585TIP3   OH264639   6.889   0.570   7.347
21585TIP3    H164640   6.928   0.652   7.315
21585TIP3    H264641   6.922   0.503   7.287
21586TIP3   OH264642   8.074   0.556   7.313
21586TIP3    H164643   7.989   0.557   7.269
21586TIP3    H264644   8.136   0.584   7.246
21587TIP3   OH264645   7.348   0.197   7.313
21587TIP3    H164646   7.343   0.104   7.336
21587TIP3    H264647   7.270   0.236   7.353
21588TIP3   OH264648   7.228   0.733   6.378
21588TIP3    H164649   7.259   0.816   6.414
21588TIP3    H264650   7.301   0.703   6.322
21589TIP3   OH264651   7.968   1.142   7.323
21589TIP3    H164652   7.937   1.227   7.352
21589TIP3    H264653   7.894   1.104   7.275
21590TIP3   OH264654   7.987   0.145   6.397
21590TIP3    H164655   7.911   0.160   6.453
21590TIP3    H264656   7.996   0.225   6.346
21591TIP3   OH264657   8.147   1.034   7.548
21591TIP3    H164658   8.054   1.050   7.561
21591TIP3    H264659   8.155   0.939   7.546
21592TIP3   OH264660   7.116   0.286   7.442
21592TIP3    H164661   7.035   0.254   7.403
21592TIP3    H264662   7.097   0.377   7.465
21593TIP3   OH264663   7.651   0.421   7.634
21593TIP3    H164664   7.729   0.393   7.683
21593TIP3    H264665   7.578   0.389   7.687
21594TIP3   OH264666   7.871   0.801   7.583
21594TIP3    H164667   7.823   0.780   7.663
21594TIP3    H264668   7.864   0.896   7.575
21595TIP3   OH264669   7.248   0.294   6.418
21595TIP3    H164670   7.210   0.295   6.506
21595TIP3    H264671   7.216   0.212   6.380
21596TIP3   OH264672   7.073   0.782   7.523
21596TIP3    H164673   7.037   0.698   7.552
21596TIP3    H264674   7.058   0.783   7.429
21597TIP3   OH264675   7.016   0.592   6.964
21597TIP3    H164676   6.926   0.599   6.998
21597TIP3    H264677   7.005   0.578   6.870
21598TIP3   OH264678   7.423   0.675   6.614
21598TIP3    H164679   7.415   0.770   6.621
21598TIP3    H264680   7.490   0.662   6.546
21599TIP3   OH264681   7.521   0.682   6.934
21599TIP3    H164682   7.462   0.726   6.872
21599TIP3    H264683   7.588   0.642   6.878
21600TIP3   OH264684   6.887   0.247   6.343
21600TIP3    H164685   6.866   0.326   6.391
21600TIP3    H264686   6.850   0.261   6.256
21601TIP3   OH264687   6.448   0.366   7.246
21601TIP3    H164688   6.527   0.384   7.296
21601TIP3    H264689   6.479   0.317   7.170
21602TIP3   OH264690   6.430   0.288   6.776
21602TIP3    H164691   6.451   0.307   6.685
21602TIP3    H264692   6.390   0.369   6.809
21603TIP3   OH264693   7.678   1.017   7.440
21603TIP3    H164694   7.700   1.011   7.348
21603TIP3    H264695   7.607   0.954   7.452
21604TIP3   OH264696   7.298   0.451   7.005
21604TIP3    H164697   7.220   0.455   7.060
21604TIP3    H264698   7.371   0.449   7.066
21605TIP3   OH264699   6.772   0.522   7.084
21605TIP3    H164700   6.688   0.539   7.043
21605TIP3    H264701   6.798   0.436   7.051
21606TIP3   OH264702   7.009   0.583   6.689
21606TIP3    H164703   7.097   0.546   6.689
21606TIP3    H264704   6.970   0.552   6.608
21607TIP3   OH264705   7.800   0.513   7.223
21607TIP3    H164706   7.764   0.541   7.308
21607TIP3    H264707   7.746   0.439   7.197
21608TIP3   OH264708   6.837   0.484   6.496
21608TIP3    H164709   6.751   0.519   6.519
21608TIP3    H264710   6.853   0.515   6.407
21609TIP3   OH264711   7.319   0.705   7.158
21609TIP3    H164712   7.399   0.671   7.120
21609TIP3    H264713   7.331   0.694   7.253
21610TIP3   OH264714   6.860   0.282   6.991
21610TIP3    H164715   6.821   0.205   7.032
21610TIP3    H264716   6.859   0.262   6.897
21611TIP3   OH264717   7.325   0.716   7.433
21611TIP3    H164718   7.247   0.750   7.477
21611TIP3    H264719   7.397   0.738   7.492
21612TIP3   OH264720   7.501   0.394   6.434
21612TIP3    H164721   7.412   0.360   6.430
21612TIP3    H264722   7.497   0.477   6.388
21613TIP3   OH264723   7.617   0.684   6.425
21613TIP3    H164724   7.704   0.660   6.455
21613TIP3    H264725   7.628   0.706   6.333
21614TIP3   OH264726   8.098   0.776   6.338
21614TIP3    H164727   8.023   0.730   6.298
21614TIP3    H264728   8.063   0.860   6.366
21615TIP3   OH264729   7.707   0.618   7.453
21615TIP3    H164730   7.775   0.672   7.495
21615TIP3    H264731   7.686   0.551   7.518
21616TIP3   OH264732   7.581   0.354   6.691
21616TIP3    H164733   7.550   0.373   6.602
21616TIP3    H264734   7.619   0.436   6.721
21617TIP3   OH264735   7.264   0.496   6.736
21617TIP3    H164736   7.328   0.554   6.694
21617TIP3    H264737   7.283   0.503   6.829
21618TIP3   OH264738   7.521   0.811   7.589
21618TIP3    H164739   7.490   0.814   7.680
21618TIP3    H264740   7.600   0.756   7.592
21619TIP3   OH264741   7.393   0.242   6.855
21619TIP3    H164742   7.359   0.320   6.899
21619TIP3    H264743   7.461   0.275   6.797
21620TIP3   OH264744   6.865   0.278   6.692
21620TIP3    H164745   6.851   0.355   6.637
21620TIP3    H264746   6.960   0.263   6.687
21621TIP3   OH264747   8.132   0.750   7.527
21621TIP3    H164748   8.040   0.758   7.553
21621TIP3    H264749   8.129   0.695   7.448
21622TIP3   OH264750   7.808   0.878   6.869
21622TIP3    H164751   7.786   0.966   6.900
21622TIP3    H264752   7.871   0.845   6.932
21623TIP3   OH264753   6.423   0.376   6.521
21623TIP3    H164754   6.337   0.410   6.494
21623TIP3    H264755   6.448   0.315   6.451
21624TIP3   OH264756   6.857   0.196   7.381
21624TIP3    H164757   6.828   0.161   7.297
21624TIP3    H264758   6.851   0.122   7.442
21625TIP3   OH264759   6.959   0.787   6.341
21625TIP3    H164760   6.948   0.787   6.246
21625TIP3    H264761   7.053   0.774   6.355
21626TIP3   OH264762   7.345   0.776   7.804
21626TIP3    H164763   7.308   0.692   7.779
21626TIP3    H264764   7.271   0.836   7.805
21627TIP3   OH264765   7.259   0.548   7.654
21627TIP3    H164766   7.288   0.573   7.566
21627TIP3    H264767   7.165   0.534   7.645
21628TIP3   OH264768   7.406   0.331   7.737
21628TIP3    H164769   7.356   0.410   7.717
21628TIP3    H264770   7.343   0.260   7.724
21629TIP3   OH264771   7.722   0.758   7.800
21629TIP3    H164772   7.667   0.700   7.852
21629TIP3    H264773   7.787   0.792   7.862
21630TIP3   OH264774   7.914   0.718   7.998
21630TIP3    H164775   7.954   0.635   7.971
21630TIP3    H264776   7.829   0.692   8.034
21631TIP3   OH264777   7.514   0.352   7.992
21631TIP3    H164778   7.543   0.267   8.026
21631TIP3    H264779   7.481   0.334   7.904
21632TIP3   OH264780   1.106   5.220   0.008
21632TIP3    H164781   1.068   5.132  -0.002
21632TIP3    H264782   1.051   5.262   0.074
21633TIP3   OH264783   7.918   0.629   6.203
21633TIP3    H164784   7.926   0.655   6.111
21633TIP3    H264785   7.927   0.534   6.201
21634TIP3   OH264786   7.804   1.086   6.648
21634TIP3    H164787   7.855   1.005   6.654
21634TIP3    H264788   7.789   1.112   6.738
21635TIP3   OH264789   8.242   1.295   7.616
21635TIP3    H164790   8.183   1.235   7.571
21635TIP3    H264791   8.258   1.365   7.553
21636TIP3   OH264792   7.782   0.395   6.076
21636TIP3    H164793   7.855   0.360   6.127
21636TIP3    H264794   7.705   0.351   6.112
21637TIP3   OH264795   7.859   0.626   6.536
21637TIP3    H164796   7.922   0.555   6.541
21637TIP3    H264797   7.910   0.706   6.553
21638TIP3   OH264798   8.006   0.799   7.046
21638TIP3    H164799   8.079   0.782   6.986
21638TIP3    H264800   8.047   0.813   7.131
21639TIP3   OH264801   8.130   0.917   7.258
21639TIP3    H164802   8.077   0.987   7.297
21639TIP3    H264803   8.185   0.962   7.194
21640TIP3   OH264804   8.523   0.554   7.823
21640TIP3    H164805   8.602   0.519   7.783
21640TIP3    H264806   8.545   0.646   7.842
21641TIP3   OH264807   8.012   0.402   6.591
21641TIP3    H164808   8.051   0.395   6.678
21641TIP3    H264809   7.943   0.336   6.591
21642TIP3   OH264810   6.675   0.398   7.404
21642TIP3    H164811   6.734   0.323   7.402
21642TIP3    H264812   6.731   0.473   7.388
21643TIP3   OH264813   6.534   0.675   7.527
21643TIP3    H164814   6.574   0.674   7.440
21643TIP3    H264815   6.525   0.768   7.547
21644TIP3   OH264816   8.390   0.721   7.614
21644TIP3    H164817   8.301   0.731   7.580
21644TIP3    H264818   8.412   0.629   7.597
21645TIP3   OH264819   8.024   0.361   6.220
21645TIP3    H164820   8.063   0.295   6.163
21645TIP3    H264821   8.097   0.416   6.247
21646TIP3   OH264822   6.469   0.194   7.026
21646TIP3    H164823   6.380   0.164   7.044
21646TIP3    H264824   6.464   0.231   6.938
21647TIP3   OH264825   6.674   0.207   7.772
21647TIP3    H164826   6.629   0.183   7.853
21647TIP3    H264827   6.622   0.279   7.736
21648TIP3   OH264828   8.301   0.457   7.506
21648TIP3    H164829   8.217   0.452   7.460
21648TIP3    H264830   8.339   0.370   7.498
21649TIP3   OH264831   7.505   0.395   7.172
21649TIP3    H164832   7.467   0.322   7.221
21649TIP3    H264833   7.574   0.354   7.119
21650TIP3   OH264834   8.029   0.312   7.042
21650TIP3    H164835   8.080   0.356   6.973
21650TIP3    H264836   7.943   0.353   7.039
21651TIP3   OH264837   8.169   0.377   6.818
21651TIP3    H164838   8.228   0.305   6.795
21651TIP3    H264839   8.213   0.455   6.784
21652TIP3   OH264840   6.754   0.081   7.151
21652TIP3    H164841   6.663   0.053   7.161
21652TIP3    H264842   6.805  -0.000   7.150
21653TIP3   OH264843   6.569  -0.005   6.796
21653TIP3    H164844   6.600   0.036   6.715
21653TIP3    H264845   6.555   0.069   6.856
21654TIP3   OH264846   7.232   0.133   7.060
21654TIP3    H164847   7.288   0.165   6.988
21654TIP3    H264848   7.275   0.165   7.139
21655TIP3   OH264849   7.723   0.290   7.043
21655TIP3    H164850   7.737   0.265   6.952
21655TIP3    H264851   7.736   0.209   7.092
21656TIP3   OH264852   7.804   0.218   6.592
21656TIP3    H164853   7.726   0.267   6.618
21656TIP3    H264854   7.793   0.132   6.634
21657TIP3   OH264855   6.681   0.116   6.563
21657TIP3    H164856   6.733   0.064   6.501
21657TIP3    H264857   6.745   0.170   6.609
21658TIP3   OH264858   7.137   0.266   6.669
21658TIP3    H164859   7.174   0.183   6.695
21658TIP3    H264860   7.193   0.332   6.709
21659TIP3   OH264861   0.459   4.939   0.011
21659TIP3    H164862   0.423   4.887   0.082
21659TIP3    H264863   0.549   4.958   0.039
21660TIP3   OH264864   0.718   4.955   0.101
21660TIP3    H164865   0.795   4.991   0.056
21660TIP3    H264866   0.755   4.889   0.161
21661TIP3   OH264867   8.039   0.480   7.944
21661TIP3    H164868   8.068   0.449   8.030
21661TIP3    H264869   8.118   0.480   7.890
21662TIP3   OH264870   8.297   0.825   6.533
21662TIP3    H164871   8.257   0.912   6.535
21662TIP3    H264872   8.246   0.777   6.468
21663TIP3   OH264873   9.417   1.063   6.717
21663TIP3    H164874   9.460   0.977   6.710
21663TIP3    H264875   9.458   1.116   6.648
21664TIP3   OH264876   8.841   0.696   6.657
21664TIP3    H164877   8.842   0.759   6.585
21664TIP3    H264878   8.797   0.619   6.621
21665TIP3   OH264879   9.530   0.890   6.227
21665TIP3    H164880   9.584   0.873   6.304
21665TIP3    H264881   9.592   0.897   6.154
21666TIP3   OH264882   8.433   0.934   6.771
21666TIP3    H164883   8.516   0.885   6.776
21666TIP3    H264884   8.388   0.896   6.695
21667TIP3   OH264885   8.912   1.252   6.470
21667TIP3    H164886   8.997   1.207   6.462
21667TIP3    H264887   8.849   1.187   6.439
21668TIP3   OH264888   8.816   0.748   7.078
21668TIP3    H164889   8.751   0.767   7.011
21668TIP3    H264890   8.768   0.751   7.160
21669TIP3   OH264891   9.661   0.864   6.465
21669TIP3    H164892   9.611   0.833   6.540
21669TIP3    H264893   9.750   0.877   6.497
21670TIP3   OH264894   8.674   0.816   6.851
21670TIP3    H164895   8.718   0.900   6.860
21670TIP3    H264896   8.722   0.771   6.781
21671TIP3   OH264897   9.133   0.444   6.799
21671TIP3    H164898   9.132   0.353   6.826
21671TIP3    H264899   9.058   0.484   6.843
21672TIP3   OH264900   9.011   1.020   5.875
21672TIP3    H164901   9.031   1.079   5.947
21672TIP3    H264902   9.077   1.039   5.809
21673TIP3   OH264903   9.771   0.389   5.872
21673TIP3    H164904   9.685   0.387   5.913
21673TIP3    H264905   9.777   0.476   5.832
21674TIP3   OH264906   8.898   0.528   6.925
21674TIP3    H164907   8.812   0.511   6.887
21674TIP3    H264908   8.890   0.613   6.968
21675TIP3   OH264909   9.047   0.577   5.912
21675TIP3    H164910   9.024   0.564   6.004
21675TIP3    H264911   9.023   0.494   5.869
21676TIP3   OH264912   8.787   1.055   6.928
21676TIP3    H164913   8.757   1.034   7.017
21676TIP3    H264914   8.771   1.149   6.919
21677TIP3   OH264915   8.815   0.849   6.431
21677TIP3    H164916   8.726   0.851   6.467
21677TIP3    H264917   8.803   0.857   6.337
21678TIP3   OH264918   9.240   0.961   6.134
21678TIP3    H164919   9.178   1.032   6.116
21678TIP3    H264920   9.293   0.955   6.054
21679TIP3   OH264921   9.351   1.043   6.393
21679TIP3    H164922   9.299   1.008   6.321
21679TIP3    H264923   9.436   1.001   6.383
21680TIP3   OH264924   8.714   1.039   7.192
21680TIP3    H164925   8.645   1.088   7.236
21680TIP3    H264926   8.712   0.953   7.234
21681TIP3   OH264927   8.707   0.513   5.844
21681TIP3    H164928   8.681   0.556   5.926
21681TIP3    H264929   8.670   0.568   5.775
21682TIP3   OH264930   8.294   0.579   6.689
21682TIP3    H164931   8.254   0.646   6.745
21682TIP3    H264932   8.333   0.628   6.617
21683TIP3   OH264933   8.229   0.550   6.264
21683TIP3    H164934   8.244   0.568   6.171
21683TIP3    H264935   8.189   0.630   6.298
21684TIP3   OH264936   9.094   0.722   6.491
21684TIP3    H164937   9.027   0.676   6.541
21684TIP3    H264938   9.128   0.788   6.551
21685TIP3   OH264939   8.573   0.794   6.557
21685TIP3    H164940   8.486   0.805   6.519
21685TIP3    H264941   8.597   0.704   6.537
21686TIP3   OH264942   8.839   0.876   6.146
21686TIP3    H164943   8.914   0.817   6.158
21686TIP3    H264944   8.781   0.829   6.085
21687TIP3   OH264945   9.520   0.806   6.701
21687TIP3    H164946   9.561   0.770   6.779
21687TIP3    H264947   9.447   0.747   6.682
21688TIP3   OH264948   8.642   0.746   5.997
21688TIP3    H164949   8.553   0.776   6.016
21688TIP3    H264950   8.653   0.762   5.903
21689TIP3   OH264951   9.178   0.940   6.629
21689TIP3    H164952   9.259   0.979   6.662
21689TIP3    H264953   9.108   0.993   6.668
21690TIP3   OH264954   8.660   0.542   6.493
21690TIP3    H164955   8.621   0.466   6.535
21690TIP3    H264956   8.669   0.517   6.401
21691TIP3   OH264957   9.089   1.049   6.975
21691TIP3    H164958   8.997   1.051   7.001
21691TIP3    H264959   9.087   1.060   6.880
21692TIP3   OH264960   9.307   0.670   5.904
21692TIP3    H164961   9.213   0.655   5.906
21692TIP3    H264962   9.316   0.765   5.895
21693TIP3   OH264963   9.406   0.929   5.906
21693TIP3    H164964   9.495   0.917   5.938
21693TIP3    H264965   9.417   0.959   5.815
21694TIP3   OH264966   9.808   1.053   5.802
21694TIP3    H164967   9.748   1.019   5.735
21694TIP3    H264968   9.816   1.147   5.781
21695TIP3   OH264969   8.667   0.783   7.310
21695TIP3    H164970   8.572   0.776   7.308
21695TIP3    H264971   8.695   0.722   7.378
21696TIP3   OH264972   9.396   0.650   6.164
21696TIP3    H164973   9.363   0.657   6.074
21696TIP3    H264974   9.429   0.738   6.184
21697TIP3   OH264975   9.076   0.753   6.220
21697TIP3    H164976   9.140   0.818   6.194
21697TIP3    H264977   9.077   0.755   6.316
21698TIP3   OH264978   9.296   0.561   6.406
21698TIP3    H164979   9.220   0.617   6.419
21698TIP3    H264980   9.322   0.578   6.315
21699TIP3   OH264981   8.689   0.523   6.167
21699TIP3    H164982   8.678   0.612   6.133
21699TIP3    H264983   8.783   0.508   6.166
21700TIP3   OH264984   8.200   0.642   6.012
21700TIP3    H164985   8.126   0.702   6.007
21700TIP3    H264986   8.184   0.579   5.941
21701TIP3   OH264987   8.628   0.459   6.869
21701TIP3    H164988   8.602   0.423   6.784
21701TIP3    H264989   8.631   0.384   6.928
21702TIP3   OH264990   8.741   1.043   5.826
21702TIP3    H164991   8.733   1.035   5.731
21702TIP3    H264992   8.835   1.042   5.842
21703TIP3   OH264993   9.085   0.802   7.115
21703TIP3    H164994   9.103   0.886   7.071
21703TIP3    H264995   8.991   0.790   7.105
21704TIP3   OH264996   9.196   0.555   7.147
21704TIP3    H164997   9.166   0.646   7.143
21704TIP3    H264998   9.117   0.506   7.169
21705TIP3   OH264999   9.652   0.962   5.598
21705TIP3    H165000   9.669   0.996   5.510
21705TIP3    H265001   9.624   0.872   5.583
21706TIP3   OH265002   9.738   1.227   6.157
21706TIP3    H165003   9.649   1.206   6.129
21706TIP3    H265004   9.728   1.263   6.245
21707TIP3   OH265005   9.595   0.692   5.563
21707TIP3    H165006   9.664   0.662   5.623
21707TIP3    H265007   9.518   0.641   5.589
21708TIP3   OH265008   9.668   0.898   5.990
21708TIP3    H165009   9.717   0.816   6.001
21708TIP3    H265010   9.727   0.955   5.941
21709TIP3   OH265011   8.520   0.948   7.547
21709TIP3    H165012   8.613   0.930   7.530
21709TIP3    H265013   8.487   0.867   7.585
21710TIP3   OH265014   9.785   0.657   6.057
21710TIP3    H165015   9.824   0.659   6.145
21710TIP3    H265016   9.718   0.589   6.063
21711TIP3   OH265017   8.456   0.670   6.943
21711TIP3    H165018   8.492   0.585   6.917
21711TIP3    H265019   8.525   0.733   6.922
21712TIP3   OH265020   8.328   0.964   7.029
21712TIP3    H165021   8.373   0.949   6.946
21712TIP3    H265022   8.327   1.060   7.039
21713TIP3   OH265023   0.012   0.619   5.717
21713TIP3    H165024   0.053   0.559   5.655
21713TIP3    H265025   0.067   0.697   5.714
21714TIP3   OH265026   8.261   0.366   6.457
21714TIP3    H165027   8.184   0.375   6.515
21714TIP3    H265028   8.258   0.444   6.402
21715TIP3   OH265029   8.471   0.507   7.286
21715TIP3    H165030   8.421   0.498   7.367
21715TIP3    H265031   8.411   0.549   7.225
21716TIP3   OH265032   9.322   0.617   6.679
21716TIP3    H165033   9.251   0.569   6.721
21716TIP3    H265034   9.317   0.592   6.587
21717TIP3   OH265035   0.029   0.554   6.515
21717TIP3    H165036   0.061   0.609   6.444
21717TIP3    H265037  -0.067   0.561   6.510
21718TIP3   OH265038   0.145   0.657   6.285
21718TIP3    H165039   0.210   0.593   6.258
21718TIP3    H265040   0.182   0.742   6.258
21719TIP3   OH265041   8.555   0.328   6.631
21719TIP3    H165042   8.460   0.318   6.636
21719TIP3    H265043   8.588   0.239   6.634
21720TIP3   OH265044   8.373   0.220   6.258
21720TIP3    H165045   8.397   0.280   6.188
21720TIP3    H265046   8.337   0.276   6.327
21721TIP3   OH265047   9.035   0.439   6.540
21721TIP3    H165048   9.108   0.417   6.482
21721TIP3    H265049   9.075   0.445   6.627
21722TIP3   OH265050   9.560   0.527   6.492
21722TIP3    H165051   9.474   0.536   6.451
21722TIP3    H265052   9.546   0.464   6.563
21723TIP3   OH265053   9.587   0.463   6.090
21723TIP3    H165054   9.521   0.527   6.116
21723TIP3    H265055   9.549   0.379   6.113
21724TIP3   OH265056   8.482   0.377   6.048
21724TIP3    H165057   8.529   0.322   5.986
21724TIP3    H265058   8.550   0.425   6.095
21725TIP3   OH265059   8.969   0.505   6.170
21725TIP3    H165060   9.014   0.431   6.210
21725TIP3    H265061   9.013   0.582   6.205
21726TIP3   OH265062   8.773   0.610   7.516
21726TIP3    H165063   8.745   0.545   7.580
21726TIP3    H265064   8.863   0.631   7.541
21727TIP3   OH265065   0.198   1.137   6.006
21727TIP3    H165066   0.140   1.192   6.058
21727TIP3    H265067   0.142   1.100   5.938
21728TIP3   OH265068   1.085   0.706   5.483
21728TIP3    H165069   1.065   0.794   5.452
21728TIP3    H265070   1.015   0.651   5.448
21729TIP3   OH265071   0.661   0.793   5.383
21729TIP3    H165072   0.655   0.810   5.478
21729TIP3    H265073   0.592   0.847   5.345
21730TIP3   OH265074   0.275   0.856   6.149
21730TIP3    H165075   0.285   0.945   6.116
21730TIP3    H265076   0.294   0.801   6.073
21731TIP3   OH265077   0.172   0.847   5.715
21731TIP3    H165078   0.214   0.888   5.639
21731TIP3    H265079   0.121   0.918   5.755
21732TIP3   OH265080   0.581   1.052   5.527
21732TIP3    H165081   0.502   1.070   5.477
21732TIP3    H265082   0.653   1.068   5.465
21733TIP3   OH265083   0.623   0.810   5.653
21733TIP3    H165084   0.588   0.898   5.638
21733TIP3    H265085   0.716   0.825   5.671
21734TIP3   OH265086   0.225   1.033   5.515
21734TIP3    H165087   0.291   1.096   5.486
21734TIP3    H265088   0.146   1.056   5.466
21735TIP3   OH265089   0.755   1.132   5.334
21735TIP3    H165090   0.690   1.167   5.273
21735TIP3    H265091   0.839   1.152   5.294
21736TIP3   OH265092   0.233   0.681   5.926
21736TIP3    H165093   0.144   0.668   5.961
21736TIP3    H265094   0.221   0.743   5.854
21737TIP3   OH265095   0.534   0.597   6.056
21737TIP3    H165096   0.446   0.576   6.089
21737TIP3    H265097   0.590   0.528   6.091
21738TIP3   OH265098   0.339   0.480   5.767
21738TIP3    H165099   0.374   0.528   5.691
21738TIP3    H265100   0.314   0.548   5.829
21739TIP3   OH265101   0.452   0.618   5.550
21739TIP3    H165102   0.509   0.582   5.482
21739TIP3    H265103   0.507   0.681   5.596
21740TIP3   OH265104   0.251   6.794   1.491
21740TIP3    H165105   0.259   6.889   1.479
21740TIP3    H265106   0.338   6.760   1.470
21741TIP3   OH265107   9.534   6.957   1.633
21741TIP3    H165108   9.600   6.897   1.597
21741TIP3    H265109   9.547   6.952   1.728
21742TIP3   OH265110  -0.023   6.221   1.678
21742TIP3    H165111  -0.042   6.182   1.593
21742TIP3    H265112   0.070   6.207   1.691
21743TIP3   OH265113   0.184   6.837   1.755
21743TIP3    H165114   0.215   6.759   1.801
21743TIP3    H265115   0.222   6.830   1.668
21744TIP3   OH265116   0.279   7.067   1.506
21744TIP3    H165117   0.335   7.142   1.486
21744TIP3    H265118   0.198   7.105   1.539
21745TIP3   OH265119   9.382   6.666   1.648
21745TIP3    H165120   9.325   6.596   1.680
21745TIP3    H265121   9.449   6.620   1.597
21746TIP3   OH265122   9.734   6.801   1.533
21746TIP3    H165123   9.813   6.816   1.586
21746TIP3    H265124   9.766   6.801   1.443
21747TIP3   OH265125   0.262   6.338   1.563
21747TIP3    H165126   0.236   6.268   1.503
21747TIP3    H265127   0.209   6.413   1.537
21748TIP3   OH265128   0.220   7.109   1.825
21748TIP3    H165129   0.214   7.014   1.815
21748TIP3    H265130   0.171   7.144   1.751
21749TIP3   OH265131   1.038   6.777   1.191
21749TIP3    H165132   1.085   6.695   1.182
21749TIP3    H265133   1.069   6.813   1.275
21750TIP3   OH265134   1.027   6.999   1.370
21750TIP3    H165135   1.013   7.087   1.334
21750TIP3    H265136   1.055   7.014   1.460
21751TIP3   OH265137   0.777   6.719   1.407
21751TIP3    H165138   0.833   6.655   1.452
21751TIP3    H265139   0.823   6.737   1.324
21752TIP3   OH265140   1.180   7.002   1.086
21752TIP3    H165141   1.105   6.949   1.113
21752TIP3    H265142   1.252   6.970   1.139
21753TIP3   OH265143   1.011   7.254   1.272
21753TIP3    H165144   1.076   7.287   1.334
21753TIP3    H265145   1.012   7.317   1.200
21754TIP3   OH265146   0.501   6.702   1.424
21754TIP3    H165147   0.594   6.719   1.438
21754TIP3    H265148   0.497   6.607   1.409
21755TIP3   OH265149   0.402   7.280   1.938
21755TIP3    H165150   0.331   7.233   1.894
21755TIP3    H265151   0.456   7.210   1.976
21756TIP3   OH265152   0.559   7.036   1.570
21756TIP3    H165153   0.467   7.012   1.578
21756TIP3    H265154   0.562   7.129   1.593
21757TIP3   OH265155   1.286   7.269   1.129
21757TIP3    H165156   1.221   7.327   1.090
21757TIP3    H265157   1.248   7.181   1.120
21758TIP3   OH265158   0.596   7.079   1.302
21758TIP3    H165159   0.591   7.063   1.396
21758TIP3    H265160   0.673   7.031   1.273
21759TIP3   OH265161   8.026   8.421   1.602
21759TIP3    H165162   7.960   8.359   1.633
21759TIP3    H265163   8.108   8.371   1.605
21760TIP3   OH265164   7.900   8.690   1.680
21760TIP3    H165165   7.958   8.762   1.704
21760TIP3    H265166   7.917   8.674   1.588
21761TIP3   OH265167   7.828   5.394   0.440
21761TIP3    H165168   7.828   5.452   0.363
21761TIP3    H265169   7.743   5.350   0.437
21762TIP3   OH265170   9.652   8.470   1.989
21762TIP3    H165171   9.619   8.449   2.076
21762TIP3    H265172   9.742   8.500   2.003
21763TIP3   OH265173   9.277   8.947   2.030
21763TIP3    H165174   9.286   8.874   1.968
21763TIP3    H265175   9.339   8.926   2.100
21764TIP3   OH265176   9.158   8.359   1.836
21764TIP3    H165177   9.185   8.360   1.744
21764TIP3    H265178   9.140   8.450   1.857
21765TIP3   OH265179   9.351   8.755   1.843
21765TIP3    H165180   9.394   8.673   1.822
21765TIP3    H265181   9.408   8.823   1.807
21766TIP3   OH265182   9.487   8.530   1.772
21766TIP3    H165183   9.511   8.469   1.703
21766TIP3    H265184   9.546   8.509   1.844
21767TIP3   OH265185   9.153   8.004   1.748
21767TIP3    H165186   9.101   8.082   1.734
21767TIP3    H265187   9.225   8.011   1.686
21768TIP3   OH265188   9.178   7.828   1.466
21768TIP3    H165189   9.240   7.877   1.520
21768TIP3    H265190   9.232   7.769   1.414
21769TIP3   OH265191   9.534   8.131   1.753
21769TIP3    H165192   9.489   8.167   1.830
21769TIP3    H265193   9.614   8.093   1.787
21770TIP3   OH265194   9.383   7.977   1.582
21770TIP3    H165195   9.438   8.037   1.632
21770TIP3    H265196   9.410   7.989   1.491
21771TIP3   OH265197   9.104   8.632   1.840
21771TIP3    H165198   9.188   8.677   1.849
21771TIP3    H265199   9.051   8.690   1.785
21772TIP3   OH265200   0.066   7.212   1.618
21772TIP3    H165201  -0.010   7.236   1.671
21772TIP3    H265202   0.082   7.288   1.562
21773TIP3   OH265203   9.704   8.586   1.183
21773TIP3    H165204   9.698   8.678   1.159
21773TIP3    H265205   9.793   8.561   1.159
21774TIP3   OH265206   9.015   8.866   1.658
21774TIP3    H165207   8.975   8.851   1.572
21774TIP3    H265208   8.982   8.951   1.685
21775TIP3   OH265209   9.211   8.808   1.284
21775TIP3    H165210   9.261   8.734   1.250
21775TIP3    H265211   9.247   8.822   1.372
21776TIP3   OH265212   9.271   8.855   1.551
21776TIP3    H165213   9.191   8.848   1.602
21776TIP3    H265214   9.341   8.855   1.616
21777TIP3   OH265215   9.456   7.995   1.320
21777TIP3    H165216   9.406   7.984   1.239
21777TIP3    H265217   9.540   8.031   1.292
21778TIP3   OH265218   9.163   7.479   1.632
21778TIP3    H165219   9.099   7.517   1.692
21778TIP3    H265220   9.165   7.386   1.655
21779TIP3   OH265221   9.283   7.802   1.892
21779TIP3    H165222   9.235   7.876   1.853
21779TIP3    H265223   9.358   7.789   1.834
21780TIP3   OH265224   8.867   7.390   1.637
21780TIP3    H165225   8.898   7.465   1.687
21780TIP3    H265226   8.783   7.418   1.601
21781TIP3   OH265227   8.703   7.739   1.675
21781TIP3    H165228   8.676   7.653   1.645
21781TIP3    H265229   8.786   7.755   1.630
21782TIP3   OH265230   8.932   8.205   1.725
21782TIP3    H165231   8.862   8.141   1.735
21782TIP3    H265232   8.954   8.231   1.815
21783TIP3   OH265233   9.412   7.522   1.533
21783TIP3    H165234   9.320   7.517   1.560
21783TIP3    H265235   9.449   7.590   1.589
21784TIP3   OH265236   9.485   7.741   1.700
21784TIP3    H165237   9.580   7.744   1.713
21784TIP3    H265238   9.465   7.818   1.648
21785TIP3   OH265239   9.099   8.333   1.554
21785TIP3    H165240   9.059   8.420   1.553
21785TIP3    H265241   9.041   8.282   1.611
21786TIP3   OH265242   0.092   7.843   1.498
21786TIP3    H165243   0.031   7.798   1.439
21786TIP3    H265244   0.095   7.933   1.465
21787TIP3   OH265245   9.627   8.654   1.443
21787TIP3    H165246   9.588   8.580   1.491
21787TIP3    H265247   9.648   8.618   1.357
21788TIP3   OH265248   8.673   8.761   1.856
21788TIP3    H165249   8.653   8.737   1.946
21788TIP3    H265250   8.707   8.850   1.861
21789TIP3   OH265251   9.398   8.394   1.348
21789TIP3    H165252   9.436   8.374   1.433
21789TIP3    H265253   9.313   8.349   1.348
21790TIP3   OH265254   9.694   8.857   1.139
21790TIP3    H165255   9.697   8.911   1.060
21790TIP3    H265256   9.628   8.899   1.194
21791TIP3   OH265257   9.561   8.342   1.572
21791TIP3    H165258   9.545   8.267   1.629
21791TIP3    H265259   9.654   8.337   1.550
21792TIP3   OH265260   8.746   8.364   1.359
21792TIP3    H165261   8.761   8.275   1.328
21792TIP3    H265262   8.721   8.354   1.451
21793TIP3   OH265263   8.692   8.353   1.641
21793TIP3    H165264   8.783   8.333   1.662
21793TIP3    H265265   8.688   8.449   1.640
21794TIP3   OH265266   9.428   7.480   1.836
21794TIP3    H165267   9.362   7.452   1.773
21794TIP3    H265268   9.423   7.576   1.836
21795TIP3   OH265269   8.949   8.560   1.561
21795TIP3    H165270   8.860   8.582   1.590
21795TIP3    H265271   8.979   8.637   1.513
21796TIP3   OH265272   8.687   8.628   1.618
21796TIP3    H165273   8.671   8.698   1.554
21796TIP3    H265274   8.677   8.671   1.703
21797TIP3   OH265275   8.435   8.328   1.473
21797TIP3    H165276   8.464   8.372   1.553
21797TIP3    H265277   8.482   8.244   1.473
21798TIP3   OH265278   9.676   9.009   2.086
21798TIP3    H165279   9.632   9.048   2.010
21798TIP3    H265280   9.768   9.035   2.075
21799TIP3   OH265281   8.895   8.564   1.244
21799TIP3    H165282   8.851   8.494   1.291
21799TIP3    H265283   8.969   8.521   1.201
21800TIP3   OH265284   9.336   8.595   1.168
21800TIP3    H165285   9.373   8.532   1.229
21800TIP3    H265286   9.393   8.589   1.091
21801TIP3   OH265287   8.571   8.085   1.469
21801TIP3    H165288   8.617   8.081   1.553
21801TIP3    H265289   8.640   8.081   1.403
21802TIP3   OH265290   9.147   8.273   1.295
21802TIP3    H165291   9.120   8.285   1.386
21802TIP3    H265292   9.136   8.179   1.278
21803TIP3   OH265293   8.746   8.008   1.676
21803TIP3    H165294   8.703   7.929   1.706
21803TIP3    H265295   8.815   7.978   1.617
21804TIP3   OH265296   8.907   7.834   1.518
21804TIP3    H165297   8.878   7.842   1.428
21804TIP3    H265298   9.003   7.829   1.513
21805TIP3   OH265299   9.677   8.100   1.193
21805TIP3    H165300   9.661   8.057   1.109
21805TIP3    H265301   9.650   8.191   1.178
21806TIP3   OH265302   8.695   8.844   1.446
21806TIP3    H165303   8.788   8.835   1.427
21806TIP3    H265304   8.660   8.892   1.371
21807TIP3   OH265305   8.201   8.213   1.625
21807TIP3    H165306   8.288   8.227   1.663
21807TIP3    H265307   8.205   8.125   1.588
21808TIP3   OH265308   0.136   9.108   2.038
21808TIP3    H165309   0.143   9.196   2.076
21808TIP3    H265310   0.199   9.108   1.966
21809TIP3   OH265311   0.033   8.309   1.536
21809TIP3    H165312   0.093   8.378   1.505
21809TIP3    H265313   0.079   8.270   1.611
21810TIP3   OH265314   0.156   8.166   1.740
21810TIP3    H165315   0.091   8.123   1.796
21810TIP3    H265316   0.220   8.203   1.801
21811TIP3   OH265317   0.132   8.541   2.060
21811TIP3    H165318   0.209   8.494   2.090
21811TIP3    H265319   0.166   8.625   2.029
21812TIP3   OH265320   0.079   8.088   1.377
21812TIP3    H165321   0.010   8.086   1.311
21812TIP3    H265322   0.059   8.165   1.431
21813TIP3   OH265323   9.723   7.741   1.311
21813TIP3    H165324   9.673   7.774   1.236
21813TIP3    H265325   9.737   7.649   1.292
21814TIP3   OH265326   9.755   8.002   1.866
21814TIP3    H165327   9.760   7.918   1.820
21814TIP3    H265328   9.774   7.981   1.957
21815TIP3   OH265329   9.754   7.476   1.251
21815TIP3    H165330   9.817   7.455   1.319
21815TIP3    H265331   9.673   7.432   1.277
21816TIP3   OH265332   9.764   7.758   1.732
21816TIP3    H165333   9.803   7.675   1.759
21816TIP3    H265334   9.813   7.783   1.653
21817TIP3   OH265335   0.076   7.508   1.798
21817TIP3    H165336   0.120   7.502   1.883
21817TIP3    H265337   0.011   7.438   1.799
21818TIP3   OH265338   0.137   7.415   1.446
21818TIP3    H165339   0.180   7.352   1.388
21818TIP3    H265340   0.198   7.489   1.449
21819TIP3   OH265341   9.491   8.947   1.714
21819TIP3    H165342   9.556   8.946   1.643
21819TIP3    H265343   9.520   9.019   1.771
21820TIP3   OH265344   9.673   7.310   1.805
21820TIP3    H165345   9.590   7.358   1.800
21820TIP3    H265346   9.664   7.255   1.882
21821TIP3   OH265347   8.202   8.599   1.713
21821TIP3    H165348   8.121   8.558   1.682
21821TIP3    H265349   8.184   8.693   1.710
21822TIP3   OH265350   8.958   8.786   1.390
21822TIP3    H165351   9.041   8.813   1.351
21822TIP3    H265352   8.927   8.715   1.334
21823TIP3   OH265353   9.654   8.922   1.490
21823TIP3    H165354   9.650   8.827   1.479
21823TIP3    H265355   9.610   8.956   1.412
21824TIP3   OH265356   8.269   8.623   1.429
21824TIP3    H165357   8.263   8.614   1.524
21824TIP3    H265358   8.356   8.590   1.406
21825TIP3   OH265359   1.354   8.416   1.459
21825TIP3    H165360   1.325   8.506   1.447
21825TIP3    H265361   1.291   8.363   1.409
21826TIP3   OH265362   1.238   8.489   1.783
21826TIP3    H165363   1.302   8.473   1.852
21826TIP3    H265364   1.266   8.434   1.710
21827TIP3   OH265365   0.655   8.343   2.221
21827TIP3    H165366   0.707   8.410   2.266
21827TIP3    H265367   0.697   8.333   2.136
21828TIP3   OH265368   1.549   8.673   1.479
21828TIP3    H165369   1.531   8.623   1.558
21828TIP3    H265370   1.588   8.754   1.510
21829TIP3   OH265371   0.618   8.756   1.924
21829TIP3    H165372   0.588   8.667   1.906
21829TIP3    H265373   0.708   8.759   1.891
21830TIP3   OH265374   0.312   7.952   1.640
21830TIP3    H165375   0.269   8.031   1.672
21830TIP3    H265376   0.242   7.902   1.598
21831TIP3   OH265377   0.380   8.257   1.883
21831TIP3    H165378   0.431   8.179   1.906
21831TIP3    H265379   0.442   8.313   1.836
21832TIP3   OH265380   1.238   9.037   1.362
21832TIP3    H165381   1.319   8.987   1.366
21832TIP3    H265382   1.240   9.093   1.441
21833TIP3   OH265383   1.120   8.729   1.822
21833TIP3    H165384   1.161   8.646   1.800
21833TIP3    H265385   1.182   8.795   1.792
21834TIP3   OH265386   0.863   7.819   1.838
21834TIP3    H165387   0.831   7.888   1.781
21834TIP3    H265388   0.826   7.738   1.801
21835TIP3   OH265389   0.538   8.044   1.942
21835TIP3    H165390   0.606   8.014   2.003
21835TIP3    H265391   0.535   7.978   1.873
21836TIP3   OH265392   0.896   8.222   1.779
21836TIP3    H165393   0.986   8.194   1.795
21836TIP3    H265394   0.855   8.146   1.738
21837TIP3   OH265395   1.178   8.608   1.350
21837TIP3    H165396   1.174   8.607   1.254
21837TIP3    H265397   1.087   8.594   1.378
21838TIP3   OH265398   0.995   8.579   2.029
21838TIP3    H165399   0.959   8.639   2.094
21838TIP3    H265400   1.031   8.635   1.961
21839TIP3   OH265401   0.770   7.953   2.066
21839TIP3    H165402   0.832   8.023   2.085
21839TIP3    H265403   0.810   7.903   1.995
21840TIP3   OH265404   0.206   8.493   1.413
21840TIP3    H165405   0.171   8.511   1.326
21840TIP3    H265406   0.228   8.580   1.448
21841TIP3   OH265407   1.608   8.903   1.613
21841TIP3    H165408   1.516   8.920   1.631
21841TIP3    H265409   1.641   8.984   1.575
21842TIP3   OH265410   1.433   8.809   1.259
21842TIP3    H165411   1.462   8.757   1.183
21842TIP3    H265412   1.466   8.761   1.335
21843TIP3   OH265413   1.183   8.295   1.273
21843TIP3    H165414   1.100   8.335   1.248
21843TIP3    H265415   1.231   8.286   1.191
21844TIP3   OH265416   1.146   8.101   0.958
21844TIP3    H165417   1.212   8.150   1.007
21844TIP3    H265418   1.196   8.032   0.913
21845TIP3   OH265419   1.528   8.402   1.234
21845TIP3    H165420   1.480   8.413   1.316
21845TIP3    H265421   1.619   8.395   1.260
21846TIP3   OH265422   0.756   8.383   1.604
21846TIP3    H165423   0.713   8.320   1.546
21846TIP3    H265424   0.810   8.329   1.662
21847TIP3   OH265425   0.852   8.766   1.777
21847TIP3    H165426   0.835   8.746   1.685
21847TIP3    H265427   0.946   8.749   1.788
21848TIP3   OH265428   0.808   8.374   1.990
21848TIP3    H165429   0.840   8.314   1.923
21848TIP3    H265430   0.877   8.440   1.999
21849TIP3   OH265431   1.339   8.921   1.728
21849TIP3    H165432   1.311   9.012   1.736
21849TIP3    H265433   1.397   8.907   1.803
21850TIP3   OH265434   1.366   8.248   1.067
21850TIP3    H165435   1.426   8.307   1.113
21850TIP3    H265436   1.388   8.258   0.974
21851TIP3   OH265437   0.628   8.205   1.428
21851TIP3    H165438   0.547   8.245   1.397
21851TIP3    H265439   0.603   8.115   1.453
21852TIP3   OH265440   1.700   8.840   0.675
21852TIP3    H165441   1.696   8.931   0.647
21852TIP3    H265442   1.790   8.812   0.656
21853TIP3   OH265443   0.253   8.791   1.989
21853TIP3    H165444   0.347   8.798   2.007
21853TIP3    H265445   0.213   8.858   2.045
21854TIP3   OH265446   1.037   9.159   1.143
21854TIP3    H165447   1.009   9.155   1.052
21854TIP3    H265448   0.999   9.242   1.175
21855TIP3   OH265449   0.428   8.980   1.513
21855TIP3    H165450   0.470   8.971   1.598
21855TIP3    H265451   0.375   8.901   1.503
21856TIP3   OH265452   1.218   9.078   0.762
21856TIP3    H165453   1.270   9.003   0.734
21856TIP3    H265454   1.280   9.136   0.805
21857TIP3   OH265455   1.427   8.269   0.804
21857TIP3    H165456   1.380   8.248   0.723
21857TIP3    H265457   1.515   8.293   0.775
21858TIP3   OH265458   1.162   7.645   1.119
21858TIP3    H165459   1.137   7.638   1.211
21858TIP3    H265460   1.123   7.569   1.077
21859TIP3   OH265461   0.783   8.008   1.656
21859TIP3    H165462   0.696   7.976   1.679
21859TIP3    H265463   0.802   7.967   1.571
21860TIP3   OH265464   1.285   8.078   1.408
21860TIP3    H165465   1.243   8.155   1.370
21860TIP3    H265466   1.342   8.045   1.338
21861TIP3   OH265467   0.834   7.613   1.098
21861TIP3    H165468   0.825   7.608   1.194
21861TIP3    H265469   0.752   7.652   1.068
21862TIP3   OH265470   0.357   7.650   1.911
21862TIP3    H165471   0.442   7.642   1.953
21862TIP3    H265472   0.363   7.596   1.832
21863TIP3   OH265473   0.287   7.649   1.456
21863TIP3    H165474   0.331   7.681   1.377
21863TIP3    H265475   0.222   7.716   1.476
21864TIP3   OH265476   1.119   7.850   1.724
21864TIP3    H165477   1.041   7.874   1.774
21864TIP3    H265478   1.117   7.755   1.720
21865TIP3   OH265479   0.561   7.872   1.725
21865TIP3    H165480   0.471   7.884   1.693
21865TIP3    H265481   0.582   7.781   1.702
21866TIP3   OH265482   0.828   7.875   1.421
21866TIP3    H165483   0.922   7.886   1.408
21866TIP3    H265484   0.789   7.895   1.336
21867TIP3   OH265485   0.715   7.917   1.177
21867TIP3    H165486   0.659   7.858   1.127
21867TIP3    H265487   0.770   7.959   1.111
21868TIP3   OH265488   0.717   7.629   1.680
21868TIP3    H165489   0.676   7.556   1.726
21868TIP3    H265490   0.751   7.591   1.599
21869TIP3   OH265491   0.939   8.426   1.207
21869TIP3    H165492   0.867   8.366   1.187
21869TIP3    H265493   0.917   8.462   1.293
21870TIP3   OH265494   1.389   7.776   1.053
21870TIP3    H165495   1.304   7.740   1.079
21870TIP3    H265496   1.395   7.859   1.100
21871TIP3   OH265497   1.440   8.006   1.192
21871TIP3    H165498   1.522   8.014   1.241
21871TIP3    H265499   1.436   8.087   1.141
21872TIP3   OH265500   0.613   8.487   1.828
21872TIP3    H165501   0.652   8.464   1.744
21872TIP3    H265502   0.671   8.446   1.893
21873TIP3   OH265503   1.091   8.599   1.063
21873TIP3    H165504   1.054   8.686   1.078
21873TIP3    H265505   1.029   8.539   1.104
21874TIP3   OH265506   1.936   8.082   0.880
21874TIP3    H165507   1.902   7.994   0.889
21874TIP3    H265508   1.863   8.133   0.846
21875TIP3   OH265509   1.603   8.901   0.928
21875TIP3    H165510   1.571   8.823   0.974
21875TIP3    H265511   1.632   8.869   0.843
21876TIP3   OH265512   0.738   8.769   1.519
21876TIP3    H165513   0.726   8.849   1.468
21876TIP3    H265514   0.649   8.744   1.546
21877TIP3   OH265515   0.317   8.068   1.240
21877TIP3    H165516   0.359   8.151   1.261
21877TIP3    H265517   0.236   8.069   1.291
21878TIP3   OH265518   0.893   8.559   1.439
21878TIP3    H165519   0.849   8.640   1.461
21878TIP3    H265520   0.858   8.495   1.501
21879TIP3   OH265521   0.977   9.091   1.982
21879TIP3    H165522   1.033   9.166   1.960
21879TIP3    H265523   0.981   9.087   2.078
21880TIP3   OH265524   0.662   8.989   1.373
21880TIP3    H165525   0.573   8.996   1.408
21880TIP3    H265526   0.695   9.079   1.372
21881TIP3   OH265527   1.386   8.648   0.820
21881TIP3    H165528   1.423   8.633   0.907
21881TIP3    H265529   1.305   8.597   0.820
21882TIP3   OH265530   1.699   9.109   0.623
21882TIP3    H165531   1.715   9.160   0.544
21882TIP3    H265532   1.631   9.156   0.670
21883TIP3   OH265533   1.532   8.620   1.056
21883TIP3    H165534   1.515   8.548   1.116
21883TIP3    H265535   1.622   8.607   1.028
21884TIP3   OH265536   0.474   8.956   2.091
21884TIP3    H165537   0.546   8.900   2.061
21884TIP3    H265538   0.502   8.988   2.176
21885TIP3   OH265539   0.743   8.607   0.841
21885TIP3    H165540   0.750   8.516   0.811
21885TIP3    H265541   0.718   8.599   0.934
21886TIP3   OH265542   0.676   8.625   1.109
21886TIP3    H165543   0.725   8.590   1.184
21886TIP3    H265544   0.689   8.720   1.115
21887TIP3   OH265545   0.404   8.321   1.320
21887TIP3    H165546   0.337   8.367   1.371
21887TIP3    H265547   0.421   8.379   1.245
21888TIP3   OH265548   1.467   7.642   1.302
21888TIP3    H165549   1.456   7.700   1.226
21888TIP3    H265550   1.475   7.700   1.377
21889TIP3   OH265551   1.009   8.875   1.115
21889TIP3    H165552   0.916   8.866   1.135
21889TIP3    H265553   1.012   8.909   1.026
21890TIP3   OH265554   1.101   7.885   1.451
21890TIP3    H165555   1.166   7.952   1.428
21890TIP3    H265556   1.106   7.878   1.546
21891TIP3   OH265557   0.738   8.890   1.132
21891TIP3    H165558   0.714   8.955   1.065
21891TIP3    H265559   0.704   8.927   1.214
21892TIP3   OH265560   0.804   7.600   1.376
21892TIP3    H165561   0.803   7.692   1.402
21892TIP3    H265562   0.891   7.569   1.399
21893TIP3   OH265563   0.429   8.494   1.102
21893TIP3    H165564   0.498   8.561   1.105
21893TIP3    H265565   0.461   8.430   1.039
21894TIP3   OH265566   0.343   7.790   1.229
21894TIP3    H165567   0.354   7.885   1.238
21894TIP3    H265568   0.282   7.780   1.155
21895TIP3   OH265569   1.699   9.141   1.525
21895TIP3    H165570   1.645   9.195   1.467
21895TIP3    H265571   1.787   9.178   1.516
21896TIP3   OH265572   0.255   8.761   1.490
21896TIP3    H165573   0.214   8.797   1.569
21896TIP3    H265574   0.210   8.804   1.417
21897TIP3   OH265575   0.899   8.813   0.749
21897TIP3    H165576   0.846   8.741   0.783
21897TIP3    H265577   0.967   8.770   0.698
21898TIP3   OH265578   1.332   8.857   0.651
21898TIP3    H165579   1.368   8.789   0.709
21898TIP3    H265580   1.383   8.848   0.570
21899TIP3   OH265581   0.557   8.304   0.954
21899TIP3    H165582   0.608   8.279   1.030
21899TIP3    H265583   0.621   8.316   0.884
21900TIP3   OH265584   1.140   8.524   0.798
21900TIP3    H165585   1.114   8.535   0.889
21900TIP3    H265586   1.119   8.433   0.777
21901TIP3   OH265587   0.733   8.248   1.167
21901TIP3    H165588   0.705   8.213   1.251
21901TIP3    H265589   0.778   8.175   1.124
21902TIP3   OH265590   0.873   8.067   1.009
21902TIP3    H165591   0.844   8.068   0.917
21902TIP3    H265592   0.968   8.073   1.004
21903TIP3   OH265593   1.649   8.360   0.662
21903TIP3    H165594   1.631   8.314   0.580
21903TIP3    H265595   1.625   8.451   0.644
21904TIP3   OH265596   0.714   9.090   0.944
21904TIP3    H165597   0.805   9.087   0.917
21904TIP3    H265598   0.669   9.135   0.873
21905TIP3   OH265599   0.156   8.493   1.121
21905TIP3    H165600   0.251   8.504   1.117
21905TIP3    H265601   0.140   8.407   1.083
21906TIP3   OH265602   0.066   9.073   1.572
21906TIP3    H165603  -0.003   9.023   1.530
21906TIP3    H265604   0.109   9.011   1.630
21907TIP3   OH265605   0.207   8.902   1.735
21907TIP3    H165606   0.199   8.837   1.805
21907TIP3    H265607   0.257   8.974   1.775
21908TIP3   OH265608   5.224   0.007   1.487
21908TIP3    H165609   5.286   0.037   1.553
21908TIP3    H265610   5.222   0.077   1.421
21909TIP3   OH265611   1.799   8.573   1.004
21909TIP3    H165612   1.866   8.633   0.972
21909TIP3    H265613   1.833   8.540   1.087
21910TIP3   OH265614   1.914   8.442   1.222
21910TIP3    H165615   1.949   8.376   1.162
21910TIP3    H265616   1.990   8.495   1.247
21911TIP3   OH265617   1.867   8.365   0.827
21911TIP3    H165618   1.795   8.356   0.764
21911TIP3    H265619   1.839   8.434   0.887
21912TIP3   OH265620   1.636   8.001   0.802
21912TIP3    H165621   1.617   7.993   0.708
21912TIP3    H265622   1.653   7.911   0.831
21913TIP3   OH265623   0.385   8.413   2.115
21913TIP3    H165624   0.374   8.358   2.037
21913TIP3    H265625   0.470   8.386   2.151
21914TIP3   OH265626   1.677   7.736   0.848
21914TIP3    H165627   1.766   7.708   0.827
21914TIP3    H265628   1.621   7.665   0.816
21915TIP3   OH265629   0.335   7.499   1.677
21915TIP3    H165630   0.244   7.488   1.706
21915TIP3    H265631   0.329   7.559   1.603
21916TIP3   OH265632   1.430   9.220   1.136
21916TIP3    H165633   1.508   9.189   1.090
21916TIP3    H265634   1.461   9.242   1.224
21917TIP3   OH265635   3.919   0.030   2.035
21917TIP3    H165636   3.828   0.058   2.042
21917TIP3    H265637   3.942   0.048   1.944
21918TIP3   OH265638   4.348   0.052   1.805
21918TIP3    H165639   4.275   0.053   1.743
21918TIP3    H265640   4.347   0.140   1.844
21919TIP3   OH265641   1.323   9.172   1.871
21919TIP3    H165642   1.242   9.222   1.865
21919TIP3    H265643   1.391   9.231   1.838
21920TIP3   OH265644   4.959   0.217   1.808
21920TIP3    H165645   4.936   0.310   1.797
21920TIP3    H265646   4.998   0.193   1.724
21921TIP3   OH265647   0.368   9.093   1.877
21921TIP3    H165648   0.391   9.060   1.964
21921TIP3    H265649   0.438   9.062   1.820
21922TIP3   OH265650   0.568   8.965   1.748
21922TIP3    H165651   0.578   8.891   1.808
21922TIP3    H265652   0.655   9.006   1.745
21923TIP3   OH265653   0.834   9.039   1.760
21923TIP3    H165654   0.848   8.944   1.756
21923TIP3    H265655   0.880   9.066   1.840
21924TIP3   OH265656   0.617   7.417   1.825
21924TIP3    H165657   0.528   7.395   1.852
21924TIP3    H265658   0.658   7.333   1.806
21925TIP3   OH265659   0.436   7.300   1.502
21925TIP3    H165660   0.482   7.348   1.432
21925TIP3    H265661   0.414   7.366   1.566
21926TIP3   OH265662   0.138   8.885   1.275
21926TIP3    H165663   0.055   8.858   1.237
21926TIP3    H265664   0.148   8.976   1.248
21927TIP3   OH265665   0.582   7.442   1.289
21927TIP3    H165666   0.626   7.378   1.234
21927TIP3    H265667   0.653   7.495   1.326
21928TIP3   OH265668   1.098   7.619   1.387
21928TIP3    H165669   1.169   7.585   1.441
21928TIP3    H265670   1.097   7.713   1.405
21929TIP3   OH265671   0.982   9.032   0.887
21929TIP3    H165672   1.060   9.061   0.839
21929TIP3    H265673   0.944   8.963   0.833
21930TIP3   OH265674   1.656   9.166   0.971
21930TIP3    H165675   1.644   9.072   0.962
21930TIP3    H265676   1.618   9.202   0.890
21931TIP3   OH265677   0.258   8.878   0.932
21931TIP3    H165678   0.256   8.892   1.026
21931TIP3    H265679   0.338   8.829   0.916
21932TIP3   OH265680   2.000   8.733   0.898
21932TIP3    H165681   1.971   8.754   0.809
21932TIP3    H265682   2.029   8.817   0.934
21933TIP3   OH265683   6.057   0.167   0.601
21933TIP3    H165684   6.001   0.144   0.526
21933TIP3    H265685   6.017   0.245   0.638
21934TIP3   OH265686   2.246   9.204   1.009
21934TIP3    H165687   2.325   9.166   1.047
21934TIP3    H265688   2.188   9.129   0.991
21935TIP3   OH265689   6.261   0.050   0.247
21935TIP3    H165690   6.316  -0.022   0.218
21935TIP3    H265691   6.292   0.071   0.335
21936TIP3   OH265692   6.303   0.087   0.521
21936TIP3    H165693   6.217   0.111   0.557
21936TIP3    H265694   6.338   0.024   0.584
21937TIP3   OH265695   2.764   8.813   0.530
21937TIP3    H165696   2.771   8.908   0.535
21937TIP3    H265697   2.834   8.781   0.587
21938TIP3   OH265698   2.485   9.079   1.049
21938TIP3    H165699   2.516   9.136   0.979
21938TIP3    H265700   2.515   8.992   1.025
21939TIP3   OH265701   2.129   8.324   0.746
21939TIP3    H165702   2.167   8.410   0.761
21939TIP3    H265703   2.040   8.330   0.780
21940TIP3   OH265704   5.731   0.045   0.850
21940TIP3    H165705   5.645   0.040   0.893
21940TIP3    H265706   5.754   0.137   0.852
21941TIP3   OH265707   6.719   0.095   0.109
21941TIP3    H165708   6.757   0.157   0.046
21941TIP3    H265709   6.650   0.145   0.153
21942TIP3   OH265710   2.518   8.864   0.316
21942TIP3    H165711   2.536   8.773   0.291
21942TIP3    H265712   2.505   8.860   0.411
21943TIP3   OH265713   2.472   8.883   0.587
21943TIP3    H165714   2.558   8.849   0.612
21943TIP3    H265715   2.479   8.978   0.600
21944TIP3   OH265716   2.210   8.586   0.792
21944TIP3    H165717   2.140   8.626   0.842
21944TIP3    H265718   2.223   8.644   0.717
21945TIP3   OH265719   2.759   9.083   0.549
21945TIP3    H165720   2.674   9.109   0.584
21945TIP3    H265721   2.782   9.152   0.487
21946TIP3   OH265722   2.501   9.157   0.611
21946TIP3    H165723   2.478   9.223   0.546
21946TIP3    H265724   2.488   9.200   0.696
21947TIP3   OH265725   2.223   8.762   0.576
21947TIP3    H165726   2.297   8.822   0.587
21947TIP3    H265727   2.252   8.701   0.508
21948TIP3   OH265728   2.132   8.060   0.649
21948TIP3    H165729   2.143   8.144   0.692
21948TIP3    H265730   2.076   8.009   0.708
21949TIP3   OH265731   2.062   8.991   0.984
21949TIP3    H165732   2.033   9.021   1.070
21949TIP3    H265733   2.008   9.041   0.922
21950TIP3   OH265734   2.682   9.057   0.210
21950TIP3    H165735   2.632   8.987   0.251
21950TIP3    H265736   2.760   9.013   0.175
21951TIP3   OH265737   3.154   9.085   0.152
21951TIP3    H165738   3.241   9.078   0.191
21951TIP3    H265739   3.170   9.097   0.059
21952TIP3   OH265740   2.339   8.566   0.423
21952TIP3    H165741   2.379   8.519   0.496
21952TIP3    H265742   2.411   8.580   0.361
21953TIP3   OH265743   2.828   8.781   0.261
21953TIP3    H165744   2.795   8.786   0.351
21953TIP3    H265745   2.812   8.690   0.235
21954TIP3   OH265746   5.754   0.122   0.425
21954TIP3    H165747   5.841   0.099   0.392
21954TIP3    H265748   5.712   0.167   0.352
21955TIP3   OH265749   1.954   8.750   0.620
21955TIP3    H165750   2.047   8.767   0.605
21955TIP3    H265751   1.937   8.667   0.574
21956TIP3   OH265752   1.903   9.270   1.053
21956TIP3    H165753   1.840   9.217   1.005
21956TIP3    H265754   1.944   9.210   1.115
21957TIP3   OH265755   2.036   9.122   1.241
21957TIP3    H165756   1.988   9.120   1.324
21957TIP3    H265757   2.118   9.166   1.261
21958TIP3   OH265758   5.521   0.038   1.363
21958TIP3    H165759   5.500   0.072   1.449
21958TIP3    H265760   5.606  -0.004   1.374
21959TIP3   OH265761   1.927   9.129   0.786
21959TIP3    H165762   1.849   9.099   0.740
21959TIP3    H265763   1.953   9.208   0.740
21960TIP3   OH265764   6.004   0.046   0.345
21960TIP3    H165765   6.088   0.068   0.307
21960TIP3    H265766   5.974  -0.030   0.295
21961TIP3   OH265767   2.052   9.137   0.414
21961TIP3    H165768   2.056   9.167   0.505
21961TIP3    H265769   2.133   9.089   0.401
21962TIP3   OH265770   0.836   0.828   1.864
21962TIP3    H165771   0.829   0.895   1.796
21962TIP3    H265772   0.850   0.877   1.945
21963TIP3   OH265773   0.507   0.170   1.603
21963TIP3    H165774   0.582   0.208   1.648
21963TIP3    H265775   0.502   0.081   1.638
21964TIP3   OH265776   0.692   0.322   1.746
21964TIP3    H165777   0.752   0.250   1.765
21964TIP3    H265778   0.725   0.360   1.664
21965TIP3   OH265779   1.015   0.907   1.337
21965TIP3    H165780   1.011   0.999   1.311
21965TIP3    H265781   1.105   0.881   1.316
21966TIP3   OH265782   0.330   1.198   1.793
21966TIP3    H165783   0.290   1.182   1.707
21966TIP3    H265784   0.294   1.282   1.821
21967TIP3   OH265785   0.524   1.131   1.436
21967TIP3    H165786   0.572   1.057   1.397
21967TIP3    H265787   0.560   1.138   1.524
21968TIP3   OH265788   0.586   1.168   1.702
21968TIP3    H165789   0.503   1.167   1.750
21968TIP3    H265790   0.653   1.180   1.769
21969TIP3   OH265791   0.756   0.341   1.473
21969TIP3    H165792   0.721   0.327   1.385
21969TIP3    H265793   0.846   0.370   1.459
21970TIP3   OH265794   0.366   0.617   1.735
21970TIP3    H165795   0.320   0.699   1.715
21970TIP3    H265796   0.446   0.645   1.780
21971TIP3   OH265797   1.231   0.188   1.648
21971TIP3    H165798   1.151   0.153   1.610
21971TIP3    H265799   1.238   0.276   1.612
21972TIP3   OH265800   0.944   0.941   1.605
21972TIP3    H165801   0.979   0.860   1.642
21972TIP3    H265802   0.954   0.931   1.510
21973TIP3   OH265803   0.700   0.702   1.471
21973TIP3    H165804   0.749   0.670   1.547
21973TIP3    H265805   0.615   0.660   1.478
21974TIP3   OH265806   1.012   1.176   1.292
21974TIP3    H165807   1.036   1.234   1.219
21974TIP3    H265808   0.943   1.223   1.339
21975TIP3   OH265809   0.857   0.621   1.682
21975TIP3    H165810   0.842   0.675   1.760
21975TIP3    H265811   0.952   0.610   1.678
21976TIP3   OH265812   0.049   0.712   1.483
21976TIP3    H165813   0.094   0.638   1.442
21976TIP3    H265814  -0.021   0.671   1.535
21977TIP3   OH265815   0.258   0.860   1.694
21977TIP3    H165816   0.165   0.877   1.708
21977TIP3    H265817   0.295   0.946   1.671
21978TIP3   OH265818   9.799   0.943   1.739
21978TIP3    H165819   9.787   1.015   1.676
21978TIP3    H265820   9.775   0.981   1.823
21979TIP3   OH265821   0.210   0.907   1.382
21979TIP3    H165822   0.162   0.842   1.433
21979TIP3    H265823   0.283   0.859   1.344
21980TIP3   OH265824   0.644   0.919   1.312
21980TIP3    H165825   0.683   0.852   1.369
21980TIP3    H265826   0.697   0.916   1.232
21981TIP3   OH265827   9.686   0.506   1.588
21981TIP3    H165828   9.688   0.523   1.682
21981TIP3    H265829   9.767   0.458   1.570
21982TIP3   OH265830   0.444   0.597   1.460
21982TIP3    H165831   0.402   0.590   1.546
21982TIP3    H265832   0.444   0.507   1.427
21983TIP3   OH265833   0.167   0.136   1.762
21983TIP3    H165834   0.090   0.093   1.725
21983TIP3    H265835   0.195   0.197   1.693
21984TIP3   OH265836   0.986   0.425   1.343
21984TIP3    H165837   0.976   0.377   1.261
21984TIP3    H265838   0.959   0.515   1.322
21985TIP3   OH265839  -0.005   1.155   1.570
21985TIP3    H165840   0.091   1.160   1.563
21985TIP3    H265841  -0.037   1.210   1.499
21986TIP3   OH265842   1.137   0.634   1.683
21986TIP3    H165843   1.197   0.700   1.648
21986TIP3    H265844   1.185   0.593   1.755
21987TIP3   OH265845   1.286   0.508   1.882
21987TIP3    H165846   1.242   0.503   1.967
21987TIP3    H265847   1.375   0.538   1.902
21988TIP3   OH265848   1.198   0.424   1.514
21988TIP3    H165849   1.124   0.414   1.454
21988TIP3    H265850   1.174   0.498   1.570
21989TIP3   OH265851   1.015   0.116   1.490
21989TIP3    H165852   0.988   0.107   1.399
21989TIP3    H265853   1.032   0.026   1.519
21990TIP3   OH265854   7.591   9.112   1.603
21990TIP3    H165855   7.676   9.069   1.591
21990TIP3    H265856   7.533   9.068   1.541
21991TIP3   OH265857   7.830   8.980   1.597
21991TIP3    H165858   7.886   8.930   1.538
21991TIP3    H265859   7.876   9.063   1.610
21992TIP3   OH265860   0.787   1.258   1.863
21992TIP3    H165861   0.853   1.253   1.793
21992TIP3    H265862   0.831   1.307   1.933
21993TIP3   OH265863   0.267   1.123   1.535
21993TIP3    H165864   0.353   1.147   1.499
21993TIP3    H265865   0.237   1.052   1.478
21994TIP3   OH265866   0.952   1.220   1.643
21994TIP3    H165867   0.951   1.125   1.628
21994TIP3    H265868   0.916   1.256   1.562
21995TIP3   OH265869   9.346   0.908   1.594
21995TIP3    H165870   9.348   0.979   1.658
21995TIP3    H265871   9.437   0.894   1.571
21996TIP3   OH265872   2.458   0.778   1.578
21996TIP3    H165873   2.435   0.867   1.552
21996TIP3    H265874   2.388   0.724   1.541
21997TIP3   OH265875   2.387   0.769   1.970
21997TIP3    H165876   2.430   0.740   2.050
21997TIP3    H265877   2.359   0.689   1.927
21998TIP3   OH265878   2.731   1.063   1.612
21998TIP3    H165879   2.737   0.988   1.670
21998TIP3    H265880   2.752   1.138   1.667
21999TIP3   OH265881   1.746   1.044   2.042
21999TIP3    H165882   1.721   0.952   2.038
21999TIP3    H265883   1.841   1.044   2.031
22000TIP3   OH265884   1.415   0.254   1.844
22000TIP3    H165885   1.381   0.343   1.856
22000TIP3    H265886   1.354   0.213   1.782
22001TIP3   OH265887   1.544   0.555   1.957
22001TIP3    H165888   1.606   0.482   1.952
22001TIP3    H265889   1.598   0.631   1.978
22002TIP3   OH265890   2.304   1.031   2.008
22002TIP3    H165891   2.313   0.941   1.975
22002TIP3    H265892   2.381   1.044   2.063
22003TIP3   OH265893   3.285   0.321   1.985
22003TIP3    H165894   3.261   0.413   1.985
22003TIP3    H265895   3.338   0.310   1.906
22004TIP3   OH265896   2.641   0.451   2.041
22004TIP3    H165897   2.679   0.368   2.069
22004TIP3    H265898   2.627   0.442   1.947
22005TIP3   OH265899   2.059   0.099   1.956
22005TIP3    H165900   2.020   0.184   1.935
22005TIP3    H265901   1.994   0.035   1.926
22006TIP3   OH265902   2.718   0.230   1.621
22006TIP3    H165903   2.784   0.220   1.690
22006TIP3    H265904   2.766   0.264   1.546
22007TIP3   OH265905   2.076   0.534   1.890
22007TIP3    H165906   2.169   0.513   1.891
22007TIP3    H265907   2.032   0.451   1.873
22008TIP3   OH265908   2.363   1.011   1.453
22008TIP3    H165909   2.309   0.998   1.375
22008TIP3    H265910   2.319   1.081   1.501
22009TIP3   OH265911   2.897   0.248   1.824
22009TIP3    H165912   2.952   0.197   1.883
22009TIP3    H265913   2.928   0.337   1.833
22010TIP3   OH265914   1.313   0.812   1.565
22010TIP3    H165915   1.289   0.830   1.475
22010TIP3    H265916   1.336   0.897   1.602
22011TIP3   OH265917   2.776   1.268   1.796
22011TIP3    H165918   2.693   1.264   1.844
22011TIP3    H265919   2.779   1.356   1.760
22012TIP3   OH265920   3.061   0.157   2.026
22012TIP3    H165921   3.022   0.186   2.109
22012TIP3    H265922   3.139   0.210   2.017
22013TIP3   OH265923   2.625   1.075   1.356
22013TIP3    H165924   2.535   1.056   1.381
22013TIP3    H265925   2.673   1.076   1.438
22014TIP3   OH265926   2.289   0.620   1.419
22014TIP3    H165927   2.205   0.661   1.402
22014TIP3    H265928   2.333   0.617   1.334
22015TIP3   OH265929   2.250   0.416   1.108
22015TIP3    H165930   2.316   0.466   1.156
22015TIP3    H265931   2.300   0.348   1.063
22016TIP3   OH265932   3.130   0.822   2.008
22016TIP3    H165933   3.042   0.860   2.019
22016TIP3    H265934   3.152   0.837   1.916
22017TIP3   OH265935   2.635   0.687   1.387
22017TIP3    H165936   2.584   0.725   1.460
22017TIP3    H265937   2.721   0.670   1.425
22018TIP3   OH265938   1.863   0.672   1.769
22018TIP3    H165939   1.823   0.614   1.704
22018TIP3    H265940   1.940   0.623   1.801
22019TIP3   OH265941   2.007   1.034   1.930
22019TIP3    H165942   1.961   1.056   1.848
22019TIP3    H265943   2.008   0.939   1.932
22020TIP3   OH265944   2.015   0.732   2.071
22020TIP3    H165945   2.035   0.662   2.009
22020TIP3    H265946   2.088   0.729   2.134
22021TIP3   OH265947   2.559   1.283   1.954
22021TIP3    H165948   2.507   1.363   1.952
22021TIP3    H265949   2.499   1.216   1.986
22022TIP3   OH265950   2.472   0.556   1.207
22022TIP3    H165951   2.531   0.614   1.256
22022TIP3    H265952   2.502   0.563   1.117
22023TIP3   OH265953   9.517   9.022   1.271
22023TIP3    H165954   9.440   9.044   1.323
22023TIP3    H265955   9.529   9.097   1.213
22024TIP3   OH265956   1.738   0.511   1.577
22024TIP3    H165957   1.661   0.560   1.548
22024TIP3    H265958   1.707   0.422   1.592
22025TIP3   OH265959   2.797   1.147   0.811
22025TIP3    H165960   2.789   1.241   0.801
22025TIP3    H265961   2.889   1.128   0.793
22026TIP3   OH265962   2.106   1.465   1.271
22026TIP3    H165963   2.058   1.447   1.190
22026TIP3    H265964   2.063   1.543   1.307
22027TIP3   OH265965   1.528   1.302   1.674
22027TIP3    H165966   1.574   1.291   1.758
22027TIP3    H265967   1.487   1.217   1.658
22028TIP3   OH265968   2.305   1.372   0.912
22028TIP3    H165969   2.357   1.300   0.877
22028TIP3    H265970   2.334   1.381   1.003
22029TIP3   OH265971   2.353   1.409   1.178
22029TIP3    H165972   2.269   1.419   1.223
22029TIP3    H265973   2.419   1.419   1.247
22030TIP3   OH265974   2.550   0.519   0.943
22030TIP3    H165975   2.507   0.530   0.858
22030TIP3    H265976   2.632   0.568   0.934
22031TIP3   OH265977   8.794   9.199   1.265
22031TIP3    H165978   8.757   9.205   1.353
22031TIP3    H265979   8.758   9.117   1.230
22032TIP3   OH265980   1.926   0.311   1.834
22032TIP3    H165981   1.838   0.285   1.862
22032TIP3    H265982   1.933   0.279   1.744
22033TIP3   OH265983   2.411   0.411   1.550
22033TIP3    H165984   2.365   0.486   1.511
22033TIP3    H265985   2.466   0.377   1.480
22034TIP3   OH265986   2.579   0.422   1.768
22034TIP3    H165987   2.517   0.441   1.697
22034TIP3    H265988   2.627   0.344   1.738
22035TIP3   OH265989   8.461   9.179   1.250
22035TIP3    H165990   8.452   9.188   1.345
22035TIP3    H265991   8.389   9.230   1.214
22036TIP3   OH265992   1.414  -0.014   1.615
22036TIP3    H165993   1.453   0.017   1.533
22036TIP3    H265994   1.350   0.054   1.638
22037TIP3   OH265995   2.527   0.658   2.177
22037TIP3    H165996   2.572   0.585   2.134
22037TIP3    H265997   2.591   0.692   2.239
22038TIP3   OH265998   2.312   0.112   1.858
22038TIP3    H165999   2.227   0.114   1.903
22038TIP3    H266000   2.376   0.097   1.928
22039TIP3   OH266001   1.683   0.202   1.889
22039TIP3    H166002   1.589   0.215   1.875
22039TIP3    H266003   1.695   0.107   1.884
22040TIP3   OH266004   1.945   0.205   1.581
22040TIP3    H166005   2.039   0.221   1.571
22040TIP3    H266006   1.909   0.227   1.495
22041TIP3   OH266007   2.721   0.192   2.079
22041TIP3    H166008   2.644   0.139   2.098
22041TIP3    H266009   2.762   0.150   2.003
22042TIP3   OH266010   1.833   0.235   1.334
22042TIP3    H166011   1.769   0.188   1.280
22042TIP3    H266012   1.888   0.282   1.271
22043TIP3   OH266013   2.350   0.489   1.928
22043TIP3    H166014   2.417   0.461   1.866
22043TIP3    H266015   2.383   0.462   2.013
22044TIP3   OH266016   8.407   9.172   1.834
22044TIP3    H166017   8.357   9.095   1.859
22044TIP3    H266018   8.411   9.168   1.739
22045TIP3   OH266019   2.047   0.745   1.367
22045TIP3    H166020   1.972   0.690   1.341
22045TIP3    H266021   2.018   0.788   1.447
22046TIP3   OH266022   2.883   0.946   2.040
22046TIP3    H166023   2.918   0.990   1.963
22046TIP3    H266024   2.803   0.903   2.010
22047TIP3   OH266025   2.512   0.064   1.265
22047TIP3    H166026   2.419   0.043   1.262
22047TIP3    H266027   2.515   0.159   1.277
22048TIP3   OH266028   2.571   0.328   1.336
22048TIP3    H166029   2.666   0.333   1.346
22048TIP3    H266030   2.548   0.405   1.283
22049TIP3   OH266031   1.747   0.759   2.003
22049TIP3    H166032   1.773   0.740   1.913
22049TIP3    H266033   1.828   0.748   2.053
22050TIP3   OH266034   2.199   0.906   1.207
22050TIP3    H166035   2.153   0.990   1.206
22050TIP3    H266036   2.145   0.849   1.262
22051TIP3   OH266037   2.978   0.410   1.155
22051TIP3    H166038   2.921   0.364   1.093
22051TIP3    H266039   2.986   0.499   1.119
22052TIP3   OH266040   2.720   1.194   1.121
22052TIP3    H166041   2.689   1.150   1.200
22052TIP3    H266042   2.721   1.126   1.054
22053TIP3   OH266043   2.658   0.843   1.922
22053TIP3    H166044   2.565   0.827   1.910
22053TIP3    H266045   2.701   0.780   1.866
22054TIP3   OH266046   1.896   1.117   1.680
22054TIP3    H166047   1.980   1.163   1.676
22054TIP3    H266048   1.836   1.173   1.632
22055TIP3   OH266049   1.430   0.393   1.374
22055TIP3    H166050   1.477   0.474   1.395
22055TIP3    H266051   1.348   0.399   1.423
22056TIP3   OH266052   1.940   0.864   1.584
22056TIP3    H166053   1.923   0.952   1.615
22056TIP3    H266054   1.909   0.806   1.654
22057TIP3   OH266055   2.150   1.311   2.065
22057TIP3    H166056   2.168   1.394   2.021
22057TIP3    H266057   2.125   1.335   2.154
22058TIP3   OH266058   1.762   1.318   1.530
22058TIP3    H166059   1.675   1.326   1.569
22058TIP3    H266060   1.796   1.407   1.529
22059TIP3   OH266061   2.558   1.040   2.112
22059TIP3    H166062   2.630   1.095   2.141
22059TIP3    H266063   2.598   0.978   2.052
22060TIP3   OH266064   2.486   0.958   0.976
22060TIP3    H166065   2.536   0.917   1.046
22060TIP3    H266066   2.398   0.921   0.984
22061TIP3   OH266067   2.791   1.422   0.777
22061TIP3    H166068   2.810   1.482   0.705
22061TIP3    H266069   2.717   1.462   0.823
22062TIP3   OH266070   2.654   0.825   1.146
22062TIP3    H166071   2.640   0.800   1.238
22062TIP3    H266072   2.746   0.848   1.142
22063TIP3   OH266073   1.843   0.926   0.992
22063TIP3    H166074   1.853   0.834   0.967
22063TIP3    H266075   1.827   0.923   1.087
22064TIP3   OH266076   1.787   0.946   1.264
22064TIP3    H166077   1.852   0.922   1.330
22064TIP3    H266078   1.784   1.041   1.266
22065TIP3   OH266079   1.518   0.641   1.472
22065TIP3    H166080   1.451   0.686   1.524
22065TIP3    H266081   1.537   0.701   1.401
22066TIP3   OH266082   2.574   0.013   1.529
22066TIP3    H166083   2.554   0.033   1.438
22066TIP3    H266084   2.615   0.092   1.563
22067TIP3   OH266085   2.062   1.139   1.218
22067TIP3    H166086   1.974   1.163   1.248
22067TIP3    H266087   2.094   1.217   1.173
22068TIP3   OH266088   2.226   0.216   1.615
22068TIP3    H166089   2.285   0.287   1.588
22068TIP3    H266090   2.255   0.192   1.703
22069TIP3   OH266091   8.926   9.139   1.700
22069TIP3    H166092   8.908   9.217   1.753
22069TIP3    H266093   8.997   9.166   1.641
22070TIP3   OH266094   1.802   1.217   1.278
22070TIP3    H166095   1.784   1.289   1.217
22070TIP3    H266096   1.788   1.255   1.364
22071TIP3   OH266097   8.434   9.174   1.538
22071TIP3    H166098   8.427   9.268   1.555
22071TIP3    H266099   8.529   9.157   1.537
22072TIP3   OH266100   2.777   0.624   1.783
22072TIP3    H166101   2.708   0.559   1.783
22072TIP3    H266102   2.851   0.581   1.825
22073TIP3   OH266103   1.541   0.816   1.257
22073TIP3    H166104   1.612   0.880   1.266
22073TIP3    H266105   1.573   0.754   1.192
22074TIP3   OH266106   1.457   0.116   1.377
22074TIP3    H166107   1.463   0.211   1.377
22074TIP3    H266108   1.395   0.096   1.307
22075TIP3   OH266109   2.774   1.533   1.722
22075TIP3    H166110   2.737   1.570   1.642
22075TIP3    H266111   2.867   1.552   1.717
22076TIP3   OH266112   1.356   1.074   1.655
22076TIP3    H166113   1.325   1.120   1.733
22076TIP3    H266114   1.316   1.120   1.582
22077TIP3   OH266115   1.994   1.126   0.880
22077TIP3    H166116   1.949   1.055   0.925
22077TIP3    H266117   2.070   1.085   0.839
22078TIP3   OH266118   2.442   1.165   0.801
22078TIP3    H166119   2.476   1.102   0.865
22078TIP3    H266120   2.502   1.160   0.727
22079TIP3   OH266121   1.665   0.625   1.106
22079TIP3    H166122   1.717   0.603   1.184
22079TIP3    H266123   1.729   0.637   1.037
22080TIP3   OH266124   2.228   0.845   0.940
22080TIP3    H166125   2.207   0.856   1.033
22080TIP3    H266126   2.210   0.753   0.922
22081TIP3   OH266127   1.839   0.568   1.316
22081TIP3    H166128   1.817   0.534   1.403
22081TIP3    H266129   1.888   0.497   1.274
22082TIP3   OH266130   1.980   0.386   1.160
22082TIP3    H166131   1.950   0.387   1.069
22082TIP3    H266132   2.075   0.394   1.154
22083TIP3   OH266133   2.769   0.657   0.844
22083TIP3    H166134   2.756   0.620   0.756
22083TIP3    H266135   2.744   0.749   0.835
22084TIP3   OH266136   1.796   1.422   1.093
22084TIP3    H166137   1.885   1.400   1.064
22084TIP3    H266138   1.758   1.470   1.018
22085TIP3   OH266139   1.269   0.812   1.281
22085TIP3    H166140   1.363   0.826   1.272
22085TIP3    H266141   1.252   0.728   1.239
22086TIP3   OH266142   1.159   1.394   1.711
22086TIP3    H166143   1.094   1.336   1.671
22086TIP3    H266144   1.209   1.337   1.769
22087TIP3   OH266145   1.294   1.228   1.885
22087TIP3    H166146   1.251   1.186   1.959
22087TIP3    H266147   1.352   1.293   1.924
22088TIP3   OH266148   3.042   1.584   1.754
22088TIP3    H166149   3.119   1.537   1.788
22088TIP3    H266150   3.065   1.606   1.664
22089TIP3   OH266151   2.926   0.866   1.164
22089TIP3    H166152   2.984   0.933   1.129
22089TIP3    H266153   2.973   0.830   1.240
22090TIP3   OH266154   3.060   0.725   1.359
22090TIP3    H166155   2.995   0.691   1.420
22090TIP3    H266156   3.131   0.756   1.415
22091TIP3   OH266157   2.997   1.023   1.808
22091TIP3    H166158   3.075   0.990   1.764
22091TIP3    H266159   3.001   1.118   1.798
22092TIP3   OH266160   2.829   1.280   2.112
22092TIP3    H166161   2.855   1.367   2.081
22092TIP3    H266162   2.793   1.238   2.034
22093TIP3   OH266163   2.983   0.645   1.013
22093TIP3    H166164   2.911   0.641   0.950
22093TIP3    H266165   2.964   0.722   1.067
22094TIP3   OH266166   2.827   0.296   0.960
22094TIP3    H166167   2.778   0.335   0.886
22094TIP3    H266168   2.822   0.202   0.945
22095TIP3   OH266169   2.868   0.603   1.518
22095TIP3    H166170   2.870   0.508   1.508
22095TIP3    H266171   2.842   0.617   1.609
22096TIP3   OH266172   2.798   0.024   0.927
22096TIP3    H166173   2.860   0.000   0.996
22096TIP3    H266174   2.714  -0.010   0.957
22097TIP3   OH266175   2.861   0.323   1.397
22097TIP3    H166176   2.908   0.240   1.408
22097TIP3    H266177   2.900   0.363   1.320
22098TIP3   OH266178   3.003   0.494   1.879
22098TIP3    H166179   3.088   0.513   1.840
22098TIP3    H266180   3.014   0.513   1.972
22099TIP3   OH266181   3.070   0.584   2.128
22099TIP3    H166182   3.013   0.619   2.196
22099TIP3    H266183   3.112   0.661   2.090
22100TIP3   OH266184   2.979   0.074   1.442
22100TIP3    H166185   3.026   0.057   1.524
22100TIP3    H266186   2.916   0.003   1.436
22101TIP3   OH266187   9.557   9.219   1.085
22101TIP3    H166188   9.607   9.160   1.028
22101TIP3    H266189   9.609   9.300   1.088
22102TIP3   OH266190   8.069   9.076   1.816
22102TIP3    H166191   7.994   9.036   1.860
22102TIP3    H266192   8.031   9.140   1.757
22103TIP3   OH266193   2.543   1.504   1.348
22103TIP3    H166194   2.603   1.492   1.275
22103TIP3    H266195   2.595   1.548   1.415
22104TIP3   OH266196   1.857   1.553   2.130
22104TIP3    H166197   1.837   1.611   2.203
22104TIP3    H266198   1.819   1.596   2.053
22105TIP3   OH266199   2.158   1.582   1.980
22105TIP3    H166200   2.114   1.598   1.896
22105TIP3    H266201   2.132   1.656   2.035
22106TIP3   OH266202   2.428   1.525   1.982
22106TIP3    H166203   2.333   1.533   1.972
22106TIP3    H266204   2.462   1.610   1.955
22107TIP3   OH266205   2.765   1.704   1.937
22107TIP3    H166206   2.726   1.790   1.921
22107TIP3    H266207   2.740   1.652   1.860
22108TIP3   OH266208   1.462   1.403   2.022
22108TIP3    H166209   1.481   1.415   2.115
22108TIP3    H266210   1.539   1.360   1.987
22109TIP3   OH266211   1.669   1.273   1.910
22109TIP3    H166212   1.691   1.191   1.954
22109TIP3    H266213   1.753   1.314   1.891
22110TIP3   OH266214   1.914   1.390   1.873
22110TIP3    H166215   1.988   1.351   1.826
22110TIP3    H266216   1.947   1.402   1.962
22111TIP3   OH266217   9.036   9.250   2.030
22111TIP3    H166218   9.019   9.167   2.076
22111TIP3    H266219   9.110   9.231   1.973
22112TIP3   OH266220   9.559   9.166   1.877
22112TIP3    H166221   9.603   9.201   1.800
22112TIP3    H266222   9.569   9.235   1.943
22113TIP3   OH266223   3.146   0.018   1.655
22113TIP3    H166224   3.215  -0.042   1.625
22113TIP3    H266225   3.183   0.106   1.642
22114TIP3   OH266226   8.122   8.861   1.656
22114TIP3    H166227   8.157   8.899   1.575
22114TIP3    H266228   8.116   8.935   1.716
22115TIP3   OH266229   8.761   9.020   1.895
22115TIP3    H166230   8.822   9.050   1.828
22115TIP3    H266231   8.721   9.100   1.929
22116TIP3   OH266232   9.269   9.189   1.904
22116TIP3    H166233   9.352   9.191   1.856
22116TIP3    H266234   9.269   9.103   1.946
22117TIP3   OH266235   9.327   9.105   1.450
22117TIP3    H166236   9.249   9.153   1.476
22117TIP3    H266237   9.314   9.017   1.487
22118TIP3   OH266238   1.246   1.202   1.442
22118TIP3    H166239   1.165   1.172   1.400
22118TIP3    H266240   1.261   1.290   1.407
22119TIP3   OH266241   8.239   8.998   1.435
22119TIP3    H166242   8.290   8.945   1.374
22119TIP3    H266243   8.303   9.057   1.475
22120TIP3   OH266244   8.708   9.200   1.529
22120TIP3    H166245   8.774   9.151   1.579
22120TIP3    H266246   8.723   9.291   1.553
22121TIP3   OH266247   2.050   1.355   1.017
22121TIP3    H166248   2.133   1.379   0.977
22121TIP3    H266249   2.022   1.277   0.969
22122TIP3   OH266250   2.696   1.464   1.120
22122TIP3    H166251   2.702   1.368   1.115
22122TIP3    H266252   2.660   1.490   1.036
22123TIP3   OH266253   1.359   1.195   1.083
22123TIP3    H166254   1.366   1.226   1.173
22123TIP3    H266255   1.442   1.150   1.066
22124TIP3   OH266256   4.182   0.939   1.067
22124TIP3    H166257   4.152   1.028   1.049
22124TIP3    H266258   4.123   0.883   1.017
22125TIP3   OH266259   4.274   1.044   1.416
22125TIP3    H166260   4.300   1.058   1.507
22125TIP3    H266261   4.212   0.970   1.420
22126TIP3   OH266262   3.498   0.849   1.756
22126TIP3    H166263   3.519   0.928   1.805
22126TIP3    H266264   3.564   0.844   1.687
22127TIP3   OH266265   4.474   1.384   1.178
22127TIP3    H166266   4.474   1.293   1.208
22127TIP3    H266267   4.554   1.421   1.215
22128TIP3   OH266268   3.495   1.347   1.508
22128TIP3    H166269   3.552   1.277   1.476
22128TIP3    H266270   3.555   1.414   1.541
22129TIP3   OH266271   3.214   0.498   1.286
22129TIP3    H166272   3.180   0.585   1.307
22129TIP3    H266273   3.140   0.453   1.244
22130TIP3   OH266274   3.286   0.784   1.499
22130TIP3    H166275   3.340   0.711   1.533
22130TIP3    H266276   3.350   0.853   1.479
22131TIP3   OH266277   4.177   1.892   1.110
22131TIP3    H166278   4.243   1.834   1.149
22131TIP3    H266279   4.099   1.880   1.165
22132TIP3   OH266280   4.081   1.219   1.545
22132TIP3    H166281   4.063   1.130   1.514
22132TIP3    H266282   4.173   1.234   1.524
22133TIP3   OH266283   4.972   0.594   1.480
22133TIP3    H166284   5.018   0.677   1.474
22133TIP3    H266285   5.032   0.531   1.439
22134TIP3   OH266286   4.484   0.747   1.419
22134TIP3    H166287   4.551   0.720   1.482
22134TIP3    H266288   4.432   0.668   1.405
22135TIP3   OH266289   3.785   0.366   1.472
22135TIP3    H166290   3.768   0.442   1.416
22135TIP3    H266291   3.733   0.296   1.433
22136TIP3   OH266292   4.537   0.360   1.069
22136TIP3    H166293   4.583   0.391   1.147
22136TIP3    H266294   4.515   0.440   1.021
22137TIP3   OH266295   3.431   0.571   1.608
22137TIP3    H166296   3.519   0.564   1.645
22137TIP3    H266297   3.434   0.518   1.528
22138TIP3   OH266298   3.864   0.752   1.374
22138TIP3    H166299   3.945   0.702   1.387
22138TIP3    H266300   3.799   0.687   1.348
22139TIP3   OH266301   3.728   0.340   1.952
22139TIP3    H166302   3.709   0.378   1.866
22139TIP3    H266303   3.653   0.284   1.970
22140TIP3   OH266304   4.105   1.181   0.981
22140TIP3    H166305   4.024   1.196   0.932
22140TIP3    H266306   4.107   1.252   1.045
22141TIP3   OH266307   3.891   1.085   1.718
22141TIP3    H166308   3.859   1.152   1.780
22141TIP3    H266309   3.976   1.117   1.690
22142TIP3   OH266310   4.672   0.478   1.278
22142TIP3    H166311   4.756   0.434   1.261
22142TIP3    H266312   4.695   0.571   1.284
22143TIP3   OH266313   3.679   0.466   1.707
22143TIP3    H166314   3.732   0.541   1.734
22143TIP3    H266315   3.724   0.431   1.631
22144TIP3   OH266316   3.102   1.031   1.034
22144TIP3    H166317   3.068   1.044   0.945
22144TIP3    H266318   3.125   1.119   1.064
22145TIP3   OH266319   4.914   0.480   1.717
22145TIP3    H166320   4.958   0.521   1.792
22145TIP3    H266321   4.936   0.536   1.643
22146TIP3   OH266322   4.127   0.040   1.631
22146TIP3    H166323   4.120  -0.051   1.660
22146TIP3    H266324   4.055   0.085   1.675
22147TIP3   OH266325   4.340   1.670   1.135
22147TIP3    H166326   4.325   1.585   1.096
22147TIP3    H266327   4.383   1.721   1.065
22148TIP3   OH266328   4.255   1.433   1.026
22148TIP3    H166329   4.282   1.388   0.946
22148TIP3    H266330   4.318   1.405   1.092
22149TIP3   OH266331   4.038   0.835   0.856
22149TIP3    H166332   3.956   0.884   0.853
22149TIP3    H266333   4.081   0.853   0.772
22150TIP3   OH266334   4.019   0.635   0.574
22150TIP3    H166335   4.085   0.687   0.620
22150TIP3    H266336   4.070   0.569   0.526
22151TIP3   OH266337   4.339   0.930   0.835
22151TIP3    H166338   4.284   0.937   0.913
22151TIP3    H266339   4.425   0.907   0.869
22152TIP3   OH266340   3.643   0.896   1.264
22152TIP3    H166341   3.605   0.839   1.198
22152TIP3    H266342   3.724   0.853   1.290
22153TIP3   OH266343   3.693   1.220   1.366
22153TIP3    H166344   3.684   1.232   1.271
22153TIP3    H266345   3.764   1.279   1.390
22154TIP3   OH266346   3.760   0.865   1.608
22154TIP3    H166347   3.783   0.837   1.519
22154TIP3    H266348   3.816   0.940   1.625
22155TIP3   OH266349   4.243   0.764   0.651
22155TIP3    H166350   4.280   0.833   0.707
22155TIP3    H266351   4.283   0.778   0.565
22156TIP3   OH266352   4.027   1.496   0.899
22156TIP3    H166353   4.097   1.481   0.963
22156TIP3    H266354   3.955   1.535   0.949
22157TIP3   OH266355   4.791   0.037   0.752
22157TIP3    H166356   4.711   0.055   0.801
22157TIP3    H266357   4.801   0.112   0.694
22158TIP3   OH266358   3.526   0.745   1.063
22158TIP3    H166359   3.454   0.800   1.032
22158TIP3    H266360   3.488   0.657   1.066
22159TIP3   OH266361   4.569   1.356   0.216
22159TIP3    H166362   4.530   1.442   0.199
22159TIP3    H266363   4.663   1.370   0.203
22160TIP3   OH266364   3.098   1.316   1.587
22160TIP3    H166365   3.176   1.263   1.600
22160TIP3    H266366   3.052   1.313   1.671
22161TIP3   OH266367   3.798   1.671   0.775
22161TIP3    H166368   3.798   1.647   0.682
22161TIP3    H266369   3.785   1.766   0.774
22162TIP3   OH266370   3.263   1.540   1.111
22162TIP3    H166371   3.333   1.518   1.173
22162TIP3    H266372   3.227   1.455   1.085
22163TIP3   OH266373   4.042   1.545   0.393
22163TIP3    H166374   4.115   1.503   0.348
22163TIP3    H266375   4.078   1.569   0.479
22164TIP3   OH266376   4.124   1.650   0.628
22164TIP3    H166377   4.100   1.675   0.717
22164TIP3    H266378   4.203   1.596   0.639
22165TIP3   OH266379   3.917   0.135   1.773
22165TIP3    H166380   3.824   0.145   1.753
22165TIP3    H266381   3.941   0.216   1.818
22166TIP3   OH266382   4.351   0.777   0.405
22166TIP3    H166383   4.302   0.790   0.324
22166TIP3    H266384   4.439   0.808   0.386
22167TIP3   OH266385   4.044   0.200   0.756
22167TIP3    H166386   4.008   0.207   0.844
22167TIP3    H266387   4.007   0.119   0.721
22168TIP3   OH266388   3.825   0.679   1.791
22168TIP3    H166389   3.831   0.729   1.872
22168TIP3    H266390   3.802   0.744   1.724
22169TIP3   OH266391   3.686   0.563   1.307
22169TIP3    H166392   3.599   0.535   1.334
22169TIP3    H266393   3.696   0.529   1.218
22170TIP3   OH266394   4.151   0.629   0.998
22170TIP3    H166395   4.104   0.695   0.947
22170TIP3    H266396   4.221   0.599   0.940
22171TIP3   OH266397   4.287   0.500   1.216
22171TIP3    H166398   4.220   0.558   1.179
22171TIP3    H266399   4.370   0.534   1.182
22172TIP3   OH266400   3.721   0.186   0.735
22172TIP3    H166401   3.709   0.193   0.829
22172TIP3    H266402   3.644   0.229   0.697
22173TIP3   OH266403   3.264   0.252   1.593
22173TIP3    H166404   3.332   0.287   1.650
22173TIP3    H266405   3.300   0.259   1.505
22174TIP3   OH266406   3.169   0.217   1.093
22174TIP3    H166407   3.214   0.252   1.016
22174TIP3    H266408   3.104   0.283   1.116
22175TIP3   OH266409   4.343   1.064   1.684
22175TIP3    H166410   4.435   1.062   1.655
22175TIP3    H266411   4.314   0.973   1.679
22176TIP3   OH266412   4.047   0.351   1.366
22176TIP3    H166413   3.965   0.338   1.415
22176TIP3    H266414   4.083   0.432   1.400
22177TIP3   OH266415   3.460   0.426   1.380
22177TIP3    H166416   3.377   0.439   1.335
22177TIP3    H266417   3.492   0.342   1.347
22178TIP3   OH266418   3.716   0.444   1.065
22178TIP3    H166419   3.811   0.454   1.060
22178TIP3    H266420   3.684   0.466   0.977
22179TIP3   OH266421   4.631   0.603   1.611
22179TIP3    H166422   4.643   0.568   1.699
22179TIP3    H266423   4.575   0.539   1.567
22180TIP3   OH266424   3.612   0.474   0.817
22180TIP3    H166425   3.552   0.423   0.763
22180TIP3    H266426   3.664   0.524   0.754
22181TIP3   OH266427   4.093   0.614   1.434
22181TIP3    H166428   4.148   0.662   1.373
22181TIP3    H266429   4.120   0.645   1.521
22182TIP3   OH266430   3.613   0.194   1.332
22182TIP3    H166431   3.590   0.119   1.386
22182TIP3    H266432   3.631   0.157   1.246
22183TIP3   OH266433   4.051   0.536   1.765
22183TIP3    H166434   3.970   0.586   1.769
22183TIP3    H266435   4.119   0.602   1.746
22184TIP3   OH266436   3.813   0.988   0.843
22184TIP3    H166437   3.734   0.939   0.823
22184TIP3    H266438   3.795   1.030   0.927
22185TIP3   OH266439   4.295   0.295   0.738
22185TIP3    H166440   4.201   0.277   0.737
22185TIP3    H266441   4.302   0.389   0.756
22186TIP3   OH266442   4.335   0.556   0.807
22186TIP3    H166443   4.430   0.557   0.810
22186TIP3    H266444   4.312   0.626   0.745
22187TIP3   OH266445   3.476   0.982   1.471
22187TIP3    H166446   3.528   0.964   1.393
22187TIP3    H266447   3.535   1.031   1.529
22188TIP3   OH266448   3.998   1.082   0.657
22188TIP3    H166449   4.028   1.171   0.673
22188TIP3    H266450   3.928   1.068   0.720
22189TIP3   OH266451   4.797   0.645   0.544
22189TIP3    H166452   4.717   0.609   0.507
22189TIP3    H266453   4.816   0.722   0.491
22190TIP3   OH266454   4.634   1.356   0.625
22190TIP3    H166455   4.576   1.350   0.702
22190TIP3    H266456   4.594   1.424   0.570
22191TIP3   OH266457   4.548   1.123   1.488
22191TIP3    H166458   4.479   1.189   1.491
22191TIP3    H266459   4.611   1.158   1.424
22192TIP3   OH266460   3.603   1.319   1.096
22192TIP3    H166461   3.634   1.384   1.033
22192TIP3    H266462   3.540   1.366   1.151
22193TIP3   OH266463   3.225   0.636   0.881
22193TIP3    H166464   3.265   0.721   0.899
22193TIP3    H266465   3.142   0.638   0.929
22194TIP3   OH266466   3.743   1.086   1.089
22194TIP3    H166467   3.681   1.158   1.081
22194TIP3    H266468   3.705   1.030   1.157
22195TIP3   OH266469   3.489   1.587   0.966
22195TIP3    H166470   3.402   1.583   1.006
22195TIP3    H266471   3.534   1.657   1.012
22196TIP3   OH266472   4.347   1.322   1.519
22196TIP3    H166473   4.339   1.341   1.612
22196TIP3    H266474   4.333   1.406   1.476
22197TIP3   OH266475   4.272   1.190   0.426
22197TIP3    H166476   4.312   1.174   0.512
22197TIP3    H266477   4.185   1.151   0.433
22198TIP3   OH266478   4.649   1.801   0.431
22198TIP3    H166479   4.687   1.838   0.351
22198TIP3    H266480   4.561   1.839   0.435
22199TIP3   OH266481   4.413   1.117   0.648
22199TIP3    H166482   4.379   1.064   0.720
22199TIP3    H266483   4.485   1.065   0.612
22200TIP3   OH266484   3.285   1.470   1.835
22200TIP3    H166485   3.372   1.433   1.817
22200TIP3    H266486   3.302   1.562   1.855
22201TIP3   OH266487   3.621   1.171   0.474
22201TIP3    H166488   3.638   1.080   0.452
22201TIP3    H266489   3.623   1.173   0.570
22202TIP3   OH266490   3.567   1.193   0.759
22202TIP3    H166491   3.647   1.184   0.812
22202TIP3    H266492   3.554   1.288   0.752
22203TIP3   OH266493   3.319   0.885   0.954
22203TIP3    H166494   3.247   0.928   1.001
22203TIP3    H266495   3.338   0.945   0.881
22204TIP3   OH266496   4.484   0.602   1.914
22204TIP3    H166497   4.440   0.684   1.936
22204TIP3    H266498   4.435   0.569   1.838
22205TIP3   OH266499   4.337   0.197   0.991
22205TIP3    H166500   4.313   0.224   0.902
22205TIP3    H266501   4.398   0.264   1.021
22206TIP3   OH266502   3.788   1.353   0.643
22206TIP3    H166503   3.709   1.401   0.667
22206TIP3    H266504   3.833   1.411   0.582
22207TIP3   OH266505   3.988   0.443   1.106
22207TIP3    H166506   4.046   0.510   1.070
22207TIP3    H266507   4.021   0.429   1.195
22208TIP3   OH266508   4.169   0.160   1.207
22208TIP3    H166509   4.146   0.236   1.260
22208TIP3    H266510   4.228   0.195   1.139
22209TIP3   OH266511   3.554   1.465   0.733
22209TIP3    H166512   3.533   1.530   0.666
22209TIP3    H266513   3.531   1.508   0.816
22210TIP3   OH266514   3.682   0.174   1.018
22210TIP3    H166515   3.673   0.266   1.041
22210TIP3    H266516   3.777   0.157   1.021
22211TIP3   OH266517   4.589   0.905   1.218
22211TIP3    H166518   4.561   0.842   1.285
22211TIP3    H266519   4.683   0.914   1.231
22212TIP3   OH266520   3.328   1.063   0.739
22212TIP3    H166521   3.400   1.124   0.753
22212TIP3    H266522   3.359   1.004   0.671
22213TIP3   OH266523   3.242   0.360   0.872
22213TIP3    H166524   3.256   0.454   0.884
22213TIP3    H266525   3.189   0.353   0.793
22214TIP3   OH266526   3.638   0.096   1.739
22214TIP3    H166527   3.617   0.066   1.650
22214TIP3    H266528   3.630   0.017   1.793
22215TIP3   OH266529   3.135   1.295   1.090
22215TIP3    H166530   3.065   1.316   1.152
22215TIP3    H266531   3.107   1.334   1.007
22216TIP3   OH266532   3.765   1.368   0.342
22216TIP3    H166533   3.725   1.296   0.392
22216TIP3    H266534   3.847   1.332   0.309
22217TIP3   OH266535   4.238   1.408   0.272
22217TIP3    H166536   4.269   1.334   0.324
22217TIP3    H266537   4.288   1.403   0.190
22218TIP3   OH266538   3.450   0.875   0.583
22218TIP3    H166539   3.498   0.850   0.663
22218TIP3    H266540   3.518   0.888   0.518
22219TIP3   OH266541   4.017   1.076   0.388
22219TIP3    H166542   3.996   1.078   0.481
22219TIP3    H266543   4.004   0.984   0.363
22220TIP3   OH266544   3.610   0.808   0.799
22220TIP3    H166545   3.594   0.772   0.886
22220TIP3    H266546   3.663   0.741   0.755
22221TIP3   OH266547   3.755   0.630   0.645
22221TIP3    H166548   3.725   0.636   0.554
22221TIP3    H266549   3.850   0.630   0.639
22222TIP3   OH266550   4.574   0.888   0.281
22222TIP3    H166551   4.554   0.845   0.198
22222TIP3    H266552   4.537   0.976   0.272
22223TIP3   OH266553   4.016   0.335   1.937
22223TIP3    H166554   4.028   0.413   1.882
22223TIP3    H266555   3.933   0.350   1.982
22224TIP3   OH266556   3.542   1.663   0.546
22224TIP3    H166557   3.637   1.661   0.534
22224TIP3    H266558   3.509   1.705   0.467
22225TIP3   OH266559   3.056   1.062   0.757
22225TIP3    H166560   3.151   1.075   0.752
22225TIP3    H266561   3.041   0.978   0.714
22226TIP3   OH266562   2.916   1.598   1.197
22226TIP3    H166563   2.842   1.549   1.161
22226TIP3    H266564   2.966   1.534   1.247
22227TIP3   OH266565   3.069   1.409   1.335
22227TIP3    H166566   3.056   1.357   1.414
22227TIP3    H266567   3.158   1.387   1.306
22228TIP3   OH266568   4.717   1.009   0.657
22228TIP3    H166569   4.693   1.069   0.586
22228TIP3    H266570   4.686   1.053   0.736
22229TIP3   OH266571   4.840   0.976   0.957
22229TIP3    H166572   4.760   1.026   0.946
22229TIP3    H266573   4.849   0.963   1.051
22230TIP3   OH266574   4.810   0.889   0.423
22230TIP3    H166575   4.731   0.893   0.369
22230TIP3    H266576   4.785   0.930   0.506
22231TIP3   OH266577   4.580   0.542   0.417
22231TIP3    H166578   4.534   0.556   0.334
22231TIP3    H266579   4.591   0.447   0.422
22232TIP3   OH266580   4.565   0.860   0.953
22232TIP3    H166581   4.646   0.817   0.927
22232TIP3    H266582   4.576   0.880   1.046
22233TIP3   OH266583   3.227   0.860   1.754
22233TIP3    H166584   3.214   0.838   1.662
22233TIP3    H266585   3.321   0.869   1.764
22234TIP3   OH266586   4.598   0.268   0.412
22234TIP3    H166587   4.658   0.250   0.485
22234TIP3    H266588   4.514   0.233   0.441
22235TIP3   OH266589   4.605   0.541   0.826
22235TIP3    H166590   4.666   0.468   0.834
22235TIP3    H266591   4.661   0.618   0.816
22236TIP3   OH266592   4.774   0.726   1.363
22236TIP3    H166593   4.842   0.671   1.403
22236TIP3    H266594   4.745   0.783   1.434
22237TIP3   OH266595   4.770   0.326   0.888
22237TIP3    H166596   4.830   0.283   0.950
22237TIP3    H266597   4.684   0.289   0.909
22238TIP3   OH266598   3.467   0.304   1.777
22238TIP3    H166599   3.519   0.224   1.764
22238TIP3    H266600   3.525   0.375   1.749
22239TIP3   OH266601   3.264   0.577   1.831
22239TIP3    H166602   3.318   0.561   1.754
22239TIP3    H266603   3.255   0.672   1.835
22240TIP3   OH266604   4.832   0.235   0.568
22240TIP3    H166605   4.872   0.174   0.506
22240TIP3    H266606   4.885   0.315   0.560
22241TIP3   OH266607   3.247   0.086   1.319
22241TIP3    H166608   3.163   0.075   1.362
22241TIP3    H266609   3.228   0.139   1.241
22242TIP3   OH266610   4.450   1.826   0.946
22242TIP3    H166611   4.492   1.798   0.864
22242TIP3    H266612   4.517   1.877   0.991
22243TIP3   OH266613   3.443   0.134   2.117
22243TIP3    H166614   3.445   0.164   2.208
22243TIP3    H266615   3.385   0.196   2.072
22244TIP3   OH266616   3.665   1.770   1.677
22244TIP3    H166617   3.701   1.812   1.755
22244TIP3    H266618   3.660   1.841   1.612
22245TIP3   OH266619   3.401   1.654   1.588
22245TIP3    H166620   3.438   1.637   1.674
22245TIP3    H266621   3.373   1.746   1.591
22246TIP3   OH266622   3.466   1.477   1.274
22246TIP3    H166623   3.465   1.427   1.356
22246TIP3    H266624   3.513   1.558   1.296
22247TIP3   OH266625   3.820   1.635   1.308
22247TIP3    H166626   3.832   1.562   1.368
22247TIP3    H266627   3.730   1.664   1.322
22248TIP3   OH266628   4.313   0.226   1.527
22248TIP3    H166629   4.241   0.166   1.546
22248TIP3    H266630   4.351   0.192   1.446
22249TIP3   OH266631   4.781   0.063   1.382
22249TIP3    H166632   4.847   0.132   1.386
22249TIP3    H266633   4.709   0.096   1.435
22250TIP3   OH266634   4.960   0.217   1.044
22250TIP3    H166635   4.985   0.125   1.037
22250TIP3    H266636   5.042   0.265   1.033
22251TIP3   OH266637   0.292   9.221   1.500
22251TIP3    H166638   0.202   9.189   1.507
22251TIP3    H266639   0.345   9.141   1.489
22252TIP3   OH266640   0.126   9.136   1.167
22252TIP3    H166641   0.142   9.181   1.083
22252TIP3    H266642   0.081   9.202   1.221
22253TIP3   OH266643   4.023   0.001   1.378
22253TIP3    H166644   4.066   0.060   1.315
22253TIP3    H266645   4.057   0.028   1.463
22254TIP3   OH266646   4.477   0.139   1.312
22254TIP3    H166647   4.502   0.187   1.233
22254TIP3    H266648   4.507   0.050   1.297
22255TIP3   OH266649   4.574   0.070   0.912
22255TIP3    H166650   4.488   0.106   0.932
22255TIP3    H266651   4.609   0.043   0.997
22256TIP3   OH266652   3.048   1.433   0.877
22256TIP3    H166653   2.959   1.409   0.852
22256TIP3    H266654   3.053   1.528   0.860
22257TIP3   OH266655   3.477   0.014   0.917
22257TIP3    H166656   3.524  -0.045   0.858
22257TIP3    H266657   3.545   0.070   0.954
22258TIP3   OH266658   3.956   0.190   1.018
22258TIP3    H166659   4.017   0.141   1.075
22258TIP3    H266660   3.966   0.281   1.045
22259TIP3   OH266661   3.799   1.591   0.496
22259TIP3    H166662   3.889   1.602   0.464
22259TIP3    H266663   3.761   1.525   0.438
22260TIP3   OH266664   4.557   1.735   0.715
22260TIP3    H166665   4.631   1.686   0.680
22260TIP3    H266666   4.500   1.749   0.640
22261TIP3   OH266667   3.153   1.442   0.578
22261TIP3    H166668   3.152   1.450   0.673
22261TIP3    H266669   3.236   1.399   0.558
22262TIP3   OH266670   4.787   0.746   0.797
22262TIP3    H166671   4.806   0.840   0.795
22262TIP3    H266672   4.796   0.719   0.705
22263TIP3   OH266673   5.121   1.091   1.020
22263TIP3    H166674   5.138   0.997   1.026
22263TIP3    H266675   5.161   1.118   0.937
22264TIP3   OH266676   5.657   0.554   0.888
22264TIP3    H166677   5.634   0.644   0.863
22264TIP3    H266678   5.579   0.503   0.868
22265TIP3   OH266679   5.237   0.842   1.079
22265TIP3    H166680   5.291   0.877   1.009
22265TIP3    H266681   5.221   0.751   1.055
22266TIP3   OH266682   4.940   1.171   0.517
22266TIP3    H166683   4.889   1.170   0.436
22266TIP3    H266684   4.928   1.260   0.551
22267TIP3   OH266685   5.834   0.908   0.084
22267TIP3    H166686   5.875   0.981   0.130
22267TIP3    H266687   5.907   0.852   0.058
22268TIP3   OH266688   6.527   0.277   0.197
22268TIP3    H166689   6.468   0.288   0.272
22268TIP3    H266690   6.540   0.365   0.163
22269TIP3   OH266691   5.300   0.935   0.493
22269TIP3    H166692   5.270   1.009   0.440
22269TIP3    H266693   5.317   0.865   0.430
22270TIP3   OH266694   9.344   5.662   7.909
22270TIP3    H166695   9.345   5.649   7.814
22270TIP3    H266696   9.436   5.673   7.932
22271TIP3   OH266697   5.852   0.451   0.248
22271TIP3    H166698   5.817   0.462   0.337
22271TIP3    H266699   5.808   0.373   0.214
22272TIP3   OH266700   5.548   0.782   0.776
22272TIP3    H166701   5.465   0.794   0.822
22272TIP3    H266702   5.524   0.742   0.692
22273TIP3   OH266703   5.520   0.454   0.221
22273TIP3    H166704   5.508   0.448   0.315
22273TIP3    H266705   5.439   0.494   0.189
22274TIP3   OH266706   5.180   0.386   1.035
22274TIP3    H166707   5.227   0.446   1.092
22274TIP3    H266708   5.245   0.359   0.970
22275TIP3   OH266709   4.998   0.461   0.558
22275TIP3    H166710   5.052   0.495   0.487
22275TIP3    H266711   4.928   0.525   0.568
22276TIP3   OH266712   5.328   0.632   0.903
22276TIP3    H166713   5.248   0.656   0.855
22276TIP3    H266714   5.361   0.556   0.856
22277TIP3   OH266715   5.510   0.676   0.523
22277TIP3    H166716   5.599   0.709   0.508
22277TIP3    H266717   5.460   0.709   0.448
22278TIP3   OH266718   5.379   0.754   0.295
22278TIP3    H166719   5.325   0.693   0.244
22278TIP3    H266720   5.443   0.787   0.231
22279TIP3   OH266721   5.438   0.408   0.787
22279TIP3    H166722   5.421   0.324   0.829
22279TIP3    H266723   5.452   0.387   0.695
22280TIP3   OH266724   5.668   1.262   0.275
22280TIP3    H166725   5.594   1.202   0.266
22280TIP3    H266726   5.629   1.347   0.291
22281TIP3   OH266727   6.076   0.600   0.232
22281TIP3    H166728   5.990   0.556   0.232
22281TIP3    H266729   6.068   0.665   0.163
22282TIP3   OH266730   5.053   0.891   0.301
22282TIP3    H166731   5.093   0.978   0.312
22282TIP3    H266732   4.970   0.897   0.347
22283TIP3   OH266733   8.756   6.031   7.923
22283TIP3    H166734   8.755   5.938   7.898
22283TIP3    H266735   8.721   6.032   8.012
22284TIP3   OH266736   5.376   1.416   0.167
22284TIP3    H166737   5.430   1.423   0.245
22284TIP3    H266738   5.313   1.488   0.174
22285TIP3   OH266739   5.172   1.142   0.374
22285TIP3    H166740   5.092   1.169   0.420
22285TIP3    H266741   5.194   1.216   0.318
22286TIP3   OH266742   6.157   0.527   0.484
22286TIP3    H166743   6.125   0.545   0.396
22286TIP3    H266744   6.222   0.596   0.501
22287TIP3   OH266745   5.781   0.759   0.533
22287TIP3    H166746   5.871   0.787   0.519
22287TIP3    H266747   5.734   0.839   0.558
22288TIP3   OH266748   5.987   0.428   0.682
22288TIP3    H166749   6.020   0.471   0.760
22288TIP3    H266750   6.046   0.457   0.612
22289TIP3   OH266751   5.499   0.406   0.502
22289TIP3    H166752   5.486   0.500   0.520
22289TIP3    H266753   5.593   0.393   0.506
22290TIP3   OH266754   5.110   1.286   0.122
22290TIP3    H166755   5.148   1.364   0.082
22290TIP3    H266756   5.175   1.217   0.105
22291TIP3   OH266757   5.073   0.614   0.340
22291TIP3    H166758   5.087   0.709   0.339
22291TIP3    H266759   5.009   0.600   0.270
22292TIP3   OH266760   5.492   0.254   1.189
22292TIP3    H166761   5.485   0.229   1.097
22292TIP3    H266762   5.520   0.174   1.233
22293TIP3   OH266763   4.874   1.700   0.705
22293TIP3    H166764   4.946   1.646   0.737
22293TIP3    H266765   4.896   1.717   0.613
22294TIP3   OH266766   8.905   6.239   7.820
22294TIP3    H166767   8.877   6.159   7.864
22294TIP3    H266768   8.992   6.218   7.786
22295TIP3   OH266769   5.287   1.087   0.077
22295TIP3    H166770   5.341   1.076   0.155
22295TIP3    H266771   5.349   1.106   0.007
22296TIP3   OH266772   9.061   5.974   7.904
22296TIP3    H166773   9.030   5.981   7.994
22296TIP3    H266774   9.057   5.880   7.885
22297TIP3   OH266775   5.475   1.064   0.288
22297TIP3    H166776   5.474   1.031   0.378
22297TIP3    H266777   5.514   0.992   0.237
22298TIP3   OH266778   5.566   0.865   0.125
22298TIP3    H166779   5.535   0.869   0.034
22298TIP3    H266780   5.661   0.869   0.119
22299TIP3   OH266781   4.892   1.205   0.253
22299TIP3    H166782   4.973   1.224   0.207
22299TIP3    H266783   4.848   1.139   0.199
22300TIP3   OH266784   9.575   5.466   7.900
22300TIP3    H166785   9.565   5.459   7.805
22300TIP3    H266786   9.607   5.380   7.928
22301TIP3   OH266787   9.622   5.194   7.922
22301TIP3    H166788   9.695   5.169   7.978
22301TIP3    H266789   9.551   5.136   7.947
22302TIP3   OH266790   5.302   0.564   1.210
22302TIP3    H166791   5.388   0.526   1.226
22302TIP3    H266792   5.306   0.652   1.248
22303TIP3   OH266793   5.066   0.826   1.370
22303TIP3    H166794   5.058   0.773   1.291
22303TIP3    H266795   5.081   0.915   1.337
22304TIP3   OH266796   6.583   0.517   0.069
22304TIP3    H166797   6.633   0.460   0.012
22304TIP3    H266798   6.646   0.581   0.102
22305TIP3   OH266799   5.062   0.294   0.764
22305TIP3    H166800   4.971   0.274   0.785
22305TIP3    H266801   5.056   0.363   0.697
22306TIP3   OH266802   5.371   0.185   0.934
22306TIP3    H166803   5.283   0.152   0.953
22306TIP3    H266804   5.428   0.109   0.945
22307TIP3   OH266805   5.213   0.111   0.622
22307TIP3    H166806   5.229   0.158   0.540
22307TIP3    H266807   5.165   0.173   0.677
22308TIP3   OH266808   5.785   0.313   0.851
22308TIP3    H166809   5.854   0.342   0.791
22308TIP3    H266810   5.746   0.394   0.884
22309TIP3   OH266811   6.352   0.333   0.403
22309TIP3    H166812   6.281   0.389   0.435
22309TIP3    H266813   6.342   0.252   0.453
22310TIP3   OH266814   4.925   1.733   0.439
22310TIP3    H166815   4.832   1.751   0.426
22310TIP3    H266816   4.967   1.761   0.358
22311TIP3   OH266817   5.285   0.261   0.393
22311TIP3    H166818   5.328   0.203   0.330
22311TIP3    H266819   5.356   0.310   0.434
22312TIP3   OH266820   5.769   0.481   0.512
22312TIP3    H166821   5.833   0.449   0.576
22312TIP3    H266822   5.767   0.576   0.526
22313TIP3   OH266823   8.167   6.343   7.956
22313TIP3    H166824   8.157   6.431   7.994
22313TIP3    H266825   8.258   6.340   7.926
22314TIP3   OH266826   8.712   2.447   1.526
22314TIP3    H166827   8.701   2.517   1.461
22314TIP3    H266828   8.792   2.402   1.498
22315TIP3   OH266829   8.500   1.884   1.676
22315TIP3    H166830   8.487   1.870   1.582
22315TIP3    H266831   8.421   1.929   1.705
22316TIP3   OH266832   8.615   2.628   1.758
22316TIP3    H166833   8.537   2.573   1.746
22316TIP3    H266834   8.688   2.566   1.753
22317TIP3   OH266835   8.390   2.201   1.599
22317TIP3    H166836   8.344   2.143   1.659
22317TIP3    H266837   8.326   2.222   1.532
22318TIP3   OH266838   8.734   2.774   1.558
22318TIP3    H166839   8.676   2.840   1.519
22318TIP3    H266840   8.683   2.737   1.630
22319TIP3   OH266841   8.304   2.619   1.588
22319TIP3    H166842   8.328   2.583   1.674
22319TIP3    H266843   8.355   2.567   1.526
22320TIP3   OH266844   8.029   2.046   1.772
22320TIP3    H166845   8.014   2.141   1.768
22320TIP3    H266846   8.124   2.036   1.774
22321TIP3   OH266847   8.734   1.902   1.473
22321TIP3    H166848   8.699   1.863   1.393
22321TIP3    H266849   8.712   1.995   1.465
22322TIP3   OH266850   8.884   1.913   1.703
22322TIP3    H166851   8.838   1.893   1.621
22322TIP3    H266852   8.846   1.995   1.732
22323TIP3   OH266853   8.674   1.604   1.620
22323TIP3    H166854   8.674   1.697   1.599
22323TIP3    H266855   8.633   1.562   1.544
22324TIP3   OH266856   0.293   2.344   1.711
22324TIP3    H166857   0.248   2.402   1.773
22324TIP3    H266858   0.226   2.281   1.684
22325TIP3   OH266859   0.476   2.659   1.815
22325TIP3    H166860   0.506   2.575   1.852
22325TIP3    H266861   0.529   2.725   1.859
22326TIP3   OH266862   0.184   3.068   1.772
22326TIP3    H166863   0.228   2.991   1.735
22326TIP3    H266864   0.179   3.050   1.866
22327TIP3   OH266865   1.147   1.874   2.130
22327TIP3    H166866   1.122   1.962   2.104
22327TIP3    H266867   1.208   1.845   2.062
22328TIP3   OH266868   0.585   1.777   1.776
22328TIP3    H166869   0.647   1.783   1.849
22328TIP3    H266870   0.629   1.820   1.703
22329TIP3   OH266871   0.756   1.814   1.983
22329TIP3    H166872   0.809   1.756   2.037
22329TIP3    H266873   0.783   1.902   2.009
22330TIP3   OH266874   9.011   2.317   1.727
22330TIP3    H166875   8.965   2.327   1.644
22330TIP3    H266876   8.999   2.400   1.773
22331TIP3   OH266877   0.579   2.868   1.964
22331TIP3    H166878   0.495   2.881   2.009
22331TIP3    H266879   0.594   2.950   1.917
22332TIP3   OH266880   0.314   2.842   1.665
22332TIP3    H166881   0.368   2.780   1.713
22332TIP3    H266882   0.376   2.894   1.615
22333TIP3   OH266883   0.137   2.163   1.571
22333TIP3    H166884   0.057   2.209   1.543
22333TIP3    H266885   0.185   2.149   1.489
22334TIP3   OH266886   0.099   1.965   1.248
22334TIP3    H166887   0.163   2.014   1.300
22334TIP3    H266888   0.151   1.899   1.202
22335TIP3   OH266889   1.006   2.343   2.125
22335TIP3    H166890   0.932   2.403   2.136
22335TIP3    H266891   1.069   2.392   2.072
22336TIP3   OH266892   0.470   2.271   1.517
22336TIP3    H166893   0.422   2.299   1.595
22336TIP3    H266894   0.557   2.247   1.550
22337TIP3   OH266895   9.538   2.214   1.902
22337TIP3    H166896   9.493   2.160   1.836
22337TIP3    H266897   9.529   2.164   1.983
22338TIP3   OH266898   9.579   2.654   1.995
22338TIP3    H166899   9.661   2.625   1.956
22338TIP3    H266900   9.592   2.643   2.089
22339TIP3   OH266901   0.339   2.836   2.098
22339TIP3    H166902   0.248   2.822   2.126
22339TIP3    H266903   0.381   2.751   2.114
22340TIP3   OH266904   0.312   2.113   1.362
22340TIP3    H166905   0.373   2.171   1.408
22340TIP3    H266906   0.339   2.119   1.270
22341TIP3   OH266907   0.025   2.824   1.645
22341TIP3    H166908   0.120   2.819   1.652
22341TIP3    H266909   0.010   2.884   1.572
22342TIP3   OH266910   0.833   1.339   1.419
22342TIP3    H166911   0.757   1.362   1.473
22342TIP3    H266912   0.845   1.414   1.361
22343TIP3   OH266913   9.410   2.055   1.714
22343TIP3    H166914   9.329   2.093   1.678
22343TIP3    H266915   9.395   1.961   1.714
22344TIP3   OH266916   0.627   2.717   0.996
22344TIP3    H166917   0.636   2.812   0.987
22344TIP3    H266918   0.714   2.683   0.974
22345TIP3   OH266919   9.773   3.006   1.434
22345TIP3    H166920   9.737   2.976   1.350
22345TIP3    H266921   9.743   3.097   1.442
22346TIP3   OH266922   0.169   2.912   1.074
22346TIP3    H166923   0.232   2.850   1.038
22346TIP3    H266924   0.205   2.935   1.160
22347TIP3   OH266925   0.231   2.970   1.337
22347TIP3    H166926   0.152   2.972   1.392
22347TIP3    H266927   0.303   2.979   1.399
22348TIP3   OH266928   0.386   2.115   1.102
22348TIP3    H166929   0.345   2.106   1.016
22348TIP3    H266930   0.471   2.155   1.084
22349TIP3   OH266931   0.103   1.517   1.416
22349TIP3    H166932   0.073   1.518   1.507
22349TIP3    H266933   0.062   1.439   1.379
22350TIP3   OH266934   0.251   1.947   1.695
22350TIP3    H166935   0.208   2.025   1.660
22350TIP3    H266936   0.312   1.921   1.626
22351TIP3   OH266937   0.437   1.981   1.901
22351TIP3    H166938   0.361   1.983   1.843
22351TIP3    H266939   0.483   1.901   1.877
22352TIP3   OH266940   9.567   1.503   1.383
22352TIP3    H166941   9.563   1.498   1.479
22352TIP3    H266942   9.488   1.551   1.359
22353TIP3   OH266943   9.091   1.532   1.792
22353TIP3    H166944   9.108   1.548   1.699
22353TIP3    H266945   9.058   1.615   1.825
22354TIP3   OH266946   9.564   1.741   1.724
22354TIP3    H166947   9.656   1.769   1.723
22354TIP3    H266948   9.530   1.769   1.639
22355TIP3   OH266949   9.458   1.805   1.479
22355TIP3    H166950   9.400   1.752   1.425
22355TIP3    H266951   9.519   1.845   1.416
22356TIP3   OH266952   9.728   2.319   1.488
22356TIP3    H166953   9.651   2.267   1.463
22356TIP3    H266954   9.705   2.356   1.573
22357TIP3   OH266955   0.787   2.515   2.122
22357TIP3    H166956   0.825   2.582   2.065
22357TIP3    H266957   0.703   2.494   2.083
22358TIP3   OH266958   0.355   1.622   1.411
22358TIP3    H166959   0.261   1.602   1.411
22358TIP3    H266960   0.359   1.717   1.423
22359TIP3   OH266961   0.422   1.883   1.485
22359TIP3    H166962   0.517   1.885   1.497
22359TIP3    H266963   0.403   1.959   1.431
22360TIP3   OH266964   0.141   2.516   1.393
22360TIP3    H166965   0.075   2.583   1.376
22360TIP3    H266966   0.091   2.440   1.422
22361TIP3   OH266967   0.827   1.980   1.309
22361TIP3    H166968   0.768   1.934   1.249
22361TIP3    H266969   0.834   2.068   1.272
22362TIP3   OH266970   0.490   2.602   1.282
22362TIP3    H166971   0.576   2.584   1.321
22362TIP3    H266972   0.510   2.641   1.197
22363TIP3   OH266973   0.552   2.430   1.987
22363TIP3    H166974   0.486   2.393   2.046
22363TIP3    H266975   0.594   2.354   1.948
22364TIP3   OH266976   9.463   2.608   1.749
22364TIP3    H166977   9.457   2.696   1.710
22364TIP3    H266978   9.479   2.624   1.842
22365TIP3   OH266979   9.098   1.921   1.528
22365TIP3    H166980   9.143   2.005   1.537
22365TIP3    H266981   9.034   1.920   1.599
22366TIP3   OH266982   9.643   2.403   1.732
22366TIP3    H166983   9.579   2.474   1.737
22366TIP3    H266984   9.613   2.339   1.797
22367TIP3   OH266985   9.471   2.877   1.670
22367TIP3    H166986   9.421   2.937   1.725
22367TIP3    H266987   9.562   2.896   1.691
22368TIP3   OH266988   0.653   2.986   0.971
22368TIP3    H166989   0.721   3.045   0.939
22368TIP3    H266990   0.574   3.040   0.975
22369TIP3   OH266991   9.550   2.459   1.150
22369TIP3    H166992   9.527   2.372   1.119
22369TIP3    H266993   9.509   2.466   1.236
22370TIP3   OH266994   9.429   2.505   1.400
22370TIP3    H166995   9.474   2.474   1.479
22370TIP3    H266996   9.434   2.600   1.405
22371TIP3   OH266997   9.196   2.174   1.588
22371TIP3    H166998   9.138   2.215   1.651
22371TIP3    H266999   9.211   2.240   1.521
22372TIP3   OH267000   0.431   1.576   1.672
22372TIP3    H167001   0.405   1.595   1.582
22372TIP3    H267002   0.473   1.656   1.703
22373TIP3   OH267003   9.734   2.688   1.345
22373TIP3    H167004   9.650   2.699   1.391
22373TIP3    H267005   9.735   2.759   1.280
22374TIP3   OH267006   0.045   1.778   1.762
22374TIP3    H167007   0.116   1.834   1.729
22374TIP3    H267008   0.046   1.793   1.857
22375TIP3   OH267009   0.256   1.460   1.847
22375TIP3    H167010   0.290   1.485   1.933
22375TIP3    H267011   0.317   1.501   1.784
22376TIP3   OH267012   9.465   2.776   1.413
22376TIP3    H167013   9.447   2.851   1.357
22376TIP3    H267014   9.459   2.810   1.502
22377TIP3   OH267015   9.559   1.471   1.656
22377TIP3    H167016   9.536   1.554   1.698
22377TIP3    H267017   9.653   1.461   1.672
22378TIP3   OH267018   0.633   2.173   1.920
22378TIP3    H167019   0.562   2.109   1.925
22378TIP3    H267020   0.704   2.135   1.972
22379TIP3   OH267021   9.183   2.377   1.371
22379TIP3    H167022   9.254   2.440   1.387
22379TIP3    H267023   9.223   2.309   1.316
22380TIP3   OH267024   9.095   1.643   1.537
22380TIP3    H167025   9.118   1.735   1.535
22380TIP3    H267026   9.010   1.639   1.494
22381TIP3   OH267027   0.622   3.112   1.860
22381TIP3    H167028   0.574   3.159   1.791
22381TIP3    H267029   0.709   3.151   1.860
22382TIP3   OH267030   8.970   2.573   1.829
22382TIP3    H167031   9.015   2.634   1.889
22382TIP3    H267032   8.979   2.613   1.743
22383TIP3   OH267033   9.649   2.686   1.027
22383TIP3    H167034   9.616   2.609   1.074
22383TIP3    H267035   9.731   2.656   0.988
22384TIP3   OH267036   0.341   2.727   0.955
22384TIP3    H167037   0.432   2.738   0.980
22384TIP3    H267038   0.342   2.734   0.859
22385TIP3   OH267039   9.320   2.176   1.251
22385TIP3    H167040   9.372   2.155   1.329
22385TIP3    H267041   9.384   2.183   1.181
22386TIP3   OH267042   0.028   2.401   1.087
22386TIP3    H167043  -0.057   2.410   1.130
22386TIP3    H267044   0.035   2.307   1.069
22387TIP3   OH267045   9.508   2.140   1.459
22387TIP3    H167046   9.486   2.108   1.546
22387TIP3    H267047   9.551   2.065   1.417
22388TIP3   OH267048   9.626   1.941   1.306
22388TIP3    H167049   9.596   1.940   1.215
22388TIP3    H267050   9.722   1.943   1.299
22389TIP3   OH267051   0.612   2.234   1.001
22389TIP3    H167052   0.603   2.193   0.915
22389TIP3    H267053   0.582   2.324   0.988
22390TIP3   OH267054   9.462   3.001   1.246
22390TIP3    H167055   9.550   2.976   1.219
22390TIP3    H267056   9.422   3.036   1.167
22391TIP3   OH267057   8.935   2.313   1.456
22391TIP3    H167058   9.022   2.343   1.432
22391TIP3    H267059   8.922   2.233   1.406
22392TIP3   OH267060   0.872   3.230   1.863
22392TIP3    H167061   0.910   3.191   1.941
22392TIP3    H267062   0.940   3.223   1.796
22393TIP3   OH267063   0.792   2.446   1.329
22393TIP3    H167064   0.849   2.513   1.293
22393TIP3    H267065   0.840   2.412   1.405
22394TIP3   OH267066   0.930   2.317   1.541
22394TIP3    H167067   0.857   2.290   1.597
22394TIP3    H267068   0.973   2.387   1.590
22395TIP3   OH267069   0.880   2.675   1.924
22395TIP3    H167070   0.935   2.623   1.866
22395TIP3    H267071   0.864   2.757   1.876
22396TIP3   OH267072   0.798   2.998   2.117
22396TIP3    H167073   0.712   2.996   2.075
22396TIP3    H267074   0.835   2.911   2.100
22397TIP3   OH267075   0.825   2.219   1.174
22397TIP3    H167076   0.752   2.220   1.112
22397TIP3    H267077   0.812   2.297   1.228
22398TIP3   OH267078   0.664   1.865   1.122
22398TIP3    H167079   0.621   1.903   1.046
22398TIP3    H267080   0.658   1.770   1.109
22399TIP3   OH267081   0.699   2.174   1.651
22399TIP3    H167082   0.718   2.081   1.639
22399TIP3    H267083   0.681   2.184   1.744
22400TIP3   OH267084   0.633   1.594   1.080
22400TIP3    H167085   0.700   1.566   1.142
22400TIP3    H267086   0.553   1.551   1.110
22401TIP3   OH267087   0.706   1.879   1.541
22401TIP3    H167088   0.753   1.796   1.552
22401TIP3    H267089   0.748   1.921   1.467
22402TIP3   OH267090   0.843   2.065   2.063
22402TIP3    H167091   0.930   2.069   2.023
22402TIP3    H267092   0.850   2.120   2.142
22403TIP3   OH267093   0.825   1.632   1.591
22403TIP3    H167094   0.871   1.619   1.674
22403TIP3    H267095   0.765   1.557   1.585
22404TIP3   OH267096   0.860   1.540   1.232
22404TIP3    H167097   0.911   1.482   1.175
22404TIP3    H267098   0.913   1.619   1.238
22405TIP3   OH267099   0.448   3.024   1.497
22405TIP3    H167100   0.509   3.029   1.423
22405TIP3    H267101   0.473   3.097   1.553
22406TIP3   OH267102   0.877   1.453   2.034
22406TIP3    H167103   0.919   1.508   1.968
22406TIP3    H267104   0.787   1.486   2.039
22407TIP3   OH267105   0.982   1.579   1.812
22407TIP3    H167106   1.048   1.519   1.779
22407TIP3    H267107   1.022   1.666   1.802
22408TIP3   OH267108   0.609   1.476   1.942
22408TIP3    H167109   0.595   1.535   1.867
22408TIP3    H267110   0.647   1.398   1.904
22409TIP3   OH267111   0.642   1.417   1.597
22409TIP3    H167112   0.562   1.467   1.616
22409TIP3    H267113   0.623   1.329   1.630
22410TIP3   OH267114   8.991   2.700   1.587
22410TIP3    H167115   8.901   2.731   1.581
22410TIP3    H267116   9.023   2.700   1.497
22411TIP3   OH267117   9.352   1.320   1.538
22411TIP3    H167118   9.406   1.258   1.489
22411TIP3    H267119   9.414   1.367   1.594
22412TIP3   OH267120   0.034   1.514   1.685
22412TIP3    H167121   0.100   1.477   1.743
22412TIP3    H267122   0.032   1.607   1.707
22413TIP3   OH267123   9.711   2.909   1.171
22413TIP3    H167124   9.797   2.930   1.134
22413TIP3    H267125   9.675   2.842   1.113
22414TIP3   OH267126   0.592   3.040   1.252
22414TIP3    H167127   0.654   2.988   1.202
22414TIP3    H267128   0.539   3.085   1.186
22415TIP3   OH267129   9.022   2.738   1.313
22415TIP3    H167130   9.023   2.834   1.317
22415TIP3    H267131   9.097   2.716   1.259
22416TIP3   OH267132   2.067   2.600   1.232
22416TIP3    H167133   2.046   2.673   1.174
22416TIP3    H267134   2.009   2.530   1.204
22417TIP3   OH267135   1.944   2.525   1.584
22417TIP3    H167136   2.000   2.517   1.661
22417TIP3    H267137   1.932   2.435   1.553
22418TIP3   OH267138   1.458   2.465   2.014
22418TIP3    H167139   1.366   2.442   2.002
22418TIP3    H267140   1.477   2.527   1.943
22419TIP3   OH267141   2.316   2.785   1.254
22419TIP3    H167142   2.232   2.749   1.285
22419TIP3    H267143   2.330   2.861   1.310
22420TIP3   OH267144   1.348   2.812   1.702
22420TIP3    H167145   1.295   2.733   1.710
22420TIP3    H267146   1.438   2.781   1.707
22421TIP3   OH267147   1.051   2.069   1.471
22421TIP3    H167148   1.023   2.157   1.495
22421TIP3    H267149   0.980   2.034   1.418
22422TIP3   OH267150   1.986   3.262   1.251
22422TIP3    H167151   2.056   3.208   1.215
22422TIP3    H267152   2.025   3.304   1.328
22423TIP3   OH267153   1.856   2.746   1.719
22423TIP3    H167154   1.873   2.669   1.664
22423TIP3    H267155   1.932   2.803   1.704
22424TIP3   OH267156   2.896   2.190   1.718
22424TIP3    H167157   2.897   2.268   1.663
22424TIP3    H267158   2.897   2.117   1.656
22425TIP3   OH267159   2.260   2.218   1.704
22425TIP3    H167160   2.279   2.135   1.661
22425TIP3    H267161   2.223   2.274   1.636
22426TIP3   OH267162   1.661   1.937   1.624
22426TIP3    H167163   1.636   2.011   1.568
22426TIP3    H267164   1.606   1.865   1.594
22427TIP3   OH267165   2.331   2.033   1.226
22427TIP3    H167166   2.408   2.028   1.283
22427TIP3    H267167   2.365   2.061   1.142
22428TIP3   OH267168   1.287   2.163   1.795
22428TIP3    H167169   1.372   2.125   1.820
22428TIP3    H267170   1.275   2.137   1.704
22429TIP3   OH267171   1.703   2.333   1.520
22429TIP3    H167172   1.790   2.296   1.533
22429TIP3    H267173   1.648   2.258   1.497
22430TIP3   OH267174   1.654   1.929   2.092
22430TIP3    H167175   1.608   1.970   2.018
22430TIP3    H267176   1.589   1.924   2.161
22431TIP3   OH267177   2.028   2.776   1.026
22431TIP3    H167178   1.982   2.736   0.952
22431TIP3    H267179   1.979   2.856   1.043
22432TIP3   OH267180   1.618   2.705   1.845
22432TIP3    H167181   1.661   2.679   1.927
22432TIP3    H267182   1.690   2.730   1.787
22433TIP3   OH267183   2.531   2.045   1.404
22433TIP3    H167184   2.469   2.015   1.471
22433TIP3    H267185   2.573   2.122   1.443
22434TIP3   OH267186   1.530   2.022   1.856
22434TIP3    H167187   1.570   2.107   1.879
22434TIP3    H267188   1.580   1.993   1.780
22435TIP3   OH267189   0.948   2.628   1.194
22435TIP3    H167190   0.917   2.640   1.104
22435TIP3    H267191   0.967   2.716   1.225
22436TIP3   OH267192   2.372   3.003   1.422
22436TIP3    H167193   2.282   3.030   1.438
22436TIP3    H267194   2.415   3.082   1.389
22437TIP3   OH267195   2.758   1.989   1.853
22437TIP3    H167196   2.713   2.018   1.932
22437TIP3    H267197   2.795   2.069   1.815
22438TIP3   OH267198   1.960   1.645   1.783
22438TIP3    H167199   1.939   1.552   1.796
22438TIP3    H267200   1.892   1.692   1.830
22439TIP3   OH267201   2.202   3.130   1.160
22439TIP3    H167202   2.223   3.056   1.103
22439TIP3    H267203   2.242   3.206   1.118
22440TIP3   OH267204   2.275   2.904   1.015
22440TIP3    H167205   2.193   2.860   0.991
22440TIP3    H267206   2.305   2.858   1.093
22441TIP3   OH267207   1.919   2.431   1.061
22441TIP3    H167208   1.833   2.471   1.047
22441TIP3    H267209   1.958   2.427   0.973
22442TIP3   OH267210   1.880   2.220   0.743
22442TIP3    H167211   1.944   2.274   0.790
22442TIP3    H267212   1.932   2.154   0.698
22443TIP3   OH267213   2.799   2.630   1.576
22443TIP3    H167214   2.762   2.704   1.623
22443TIP3    H267215   2.863   2.669   1.516
22444TIP3   OH267216   2.230   2.525   1.019
22444TIP3    H167217   2.188   2.559   1.098
22444TIP3    H267218   2.299   2.467   1.052
22445TIP3   OH267219   1.505   2.501   1.421
22445TIP3    H167220   1.460   2.444   1.358
22445TIP3    H267221   1.577   2.447   1.454
22446TIP3   OH267222   1.605   2.838   1.537
22446TIP3    H167223   1.556   2.860   1.458
22446TIP3    H267224   1.633   2.748   1.524
22447TIP3   OH267225   1.696   2.445   1.771
22447TIP3    H167226   1.699   2.418   1.680
22447TIP3    H267227   1.640   2.522   1.772
22448TIP3   OH267228   2.121   3.068   1.502
22448TIP3    H167229   2.074   3.141   1.540
22448TIP3    H267230   2.086   2.991   1.545
22449TIP3   OH267231   2.094   2.370   0.839
22449TIP3    H167232   2.144   2.435   0.888
22449TIP3    H267233   2.128   2.376   0.750
22450TIP3   OH267234   1.870   2.993   1.028
22450TIP3    H167235   1.830   3.015   1.112
22450TIP3    H267236   1.797   2.994   0.966
22451TIP3   OH267237   2.593   1.579   0.886
22451TIP3    H167238   2.515   1.601   0.937
22451TIP3    H267239   2.613   1.659   0.837
22452TIP3   OH267240   1.373   2.343   1.226
22452TIP3    H167241   1.298   2.392   1.190
22452TIP3    H267242   1.335   2.261   1.257
22453TIP3   OH267243   2.438   2.974   0.478
22453TIP3    H167244   2.428   3.062   0.443
22453TIP3    H267245   2.518   2.941   0.437
22454TIP3   OH267246   0.982   2.868   1.737
22454TIP3    H167247   1.014   2.781   1.715
22454TIP3    H267248   1.033   2.894   1.814
22455TIP3   OH267249   1.745   3.275   0.890
22455TIP3    H167250   1.713   3.238   0.807
22455TIP3    H267251   1.679   3.340   0.914
22456TIP3   OH267252   1.962   3.191   0.597
22456TIP3    H167253   2.000   3.119   0.548
22456TIP3    H267254   1.981   3.171   0.689
22457TIP3   OH267255   2.000   3.187   0.878
22457TIP3    H167256   1.914   3.228   0.889
22457TIP3    H267257   1.997   3.109   0.933
22458TIP3   OH267258   1.746   1.719   1.937
22458TIP3    H167259   1.661   1.691   1.902
22458TIP3    H267260   1.726   1.799   1.987
22459TIP3   OH267261   2.191   2.343   0.584
22459TIP3    H167262   2.139   2.346   0.504
22459TIP3    H267263   2.272   2.389   0.562
22460TIP3   OH267264   1.892   1.767   0.900
22460TIP3    H167265   1.853   1.775   0.987
22460TIP3    H267266   1.857   1.684   0.867
22461TIP3   OH267267   1.634   2.251   1.948
22461TIP3    H167268   1.579   2.301   2.008
22461TIP3    H267269   1.659   2.315   1.881
22462TIP3   OH267270   1.546   2.123   1.459
22462TIP3    H167271   1.458   2.102   1.491
22462TIP3    H267272   1.549   2.087   1.371
22463TIP3   OH267273   2.036   2.211   1.176
22463TIP3    H167274   1.992   2.288   1.140
22463TIP3    H267275   2.092   2.180   1.105
22464TIP3   OH267276   2.173   2.186   1.413
22464TIP3    H167277   2.119   2.211   1.337
22464TIP3    H267278   2.218   2.107   1.385
22465TIP3   OH267279   1.561   1.747   0.880
22465TIP3    H167280   1.552   1.754   0.975
22465TIP3    H267281   1.484   1.792   0.845
22466TIP3   OH267282   1.107   1.812   1.751
22466TIP3    H167283   1.176   1.833   1.814
22466TIP3    H267284   1.120   1.874   1.680
22467TIP3   OH267285   1.008   1.778   1.245
22467TIP3    H167286   1.053   1.814   1.168
22467TIP3    H267287   0.950   1.848   1.274
22468TIP3   OH267288   2.103   2.500   1.806
22468TIP3    H167289   2.174   2.490   1.742
22468TIP3    H267290   2.146   2.538   1.882
22469TIP3   OH267291   1.922   1.930   1.506
22469TIP3    H167292   1.844   1.932   1.562
22469TIP3    H267293   1.993   1.904   1.566
22470TIP3   OH267294   1.310   2.018   1.549
22470TIP3    H167295   1.223   2.026   1.511
22470TIP3    H267296   1.338   1.929   1.527
22471TIP3   OH267297   1.568   2.009   1.213
22471TIP3    H167298   1.662   2.026   1.206
22471TIP3    H267299   1.533   2.029   1.126
22472TIP3   OH267300   2.336   1.981   1.590
22472TIP3    H167301   2.410   1.938   1.634
22472TIP3    H267302   2.263   1.920   1.601
22473TIP3   OH267303   1.462   2.037   0.963
22473TIP3    H167304   1.400   1.988   0.909
22473TIP3    H267305   1.514   2.087   0.900
22474TIP3   OH267306   1.954   2.241   1.585
22474TIP3    H167307   2.027   2.207   1.533
22474TIP3    H267308   1.967   2.202   1.672
22475TIP3   OH267309   1.463   1.774   1.503
22475TIP3    H167310   1.434   1.696   1.550
22475TIP3    H267311   1.483   1.743   1.415
22476TIP3   OH267312   1.900   2.163   1.897
22476TIP3    H167313   1.806   2.171   1.910
22476TIP3    H267314   1.936   2.248   1.922
22477TIP3   OH267315   1.677   2.558   1.012
22477TIP3    H167316   1.602   2.504   0.987
22477TIP3    H267317   1.648   2.604   1.091
22478TIP3   OH267318   2.651   2.815   1.713
22478TIP3    H167319   2.651   2.860   1.628
22478TIP3    H267320   2.571   2.845   1.756
22479TIP3   OH267321   2.142   1.871   0.901
22479TIP3    H167322   2.049   1.848   0.895
22479TIP3    H267323   2.143   1.966   0.910
22480TIP3   OH267324   2.194   2.138   0.954
22480TIP3    H167325   2.290   2.137   0.949
22480TIP3    H267326   2.169   2.216   0.905
22481TIP3   OH267327   1.383   2.525   1.679
22481TIP3    H167328   1.407   2.521   1.586
22481TIP3    H267329   1.288   2.524   1.679
22482TIP3   OH267330   1.831   2.705   0.841
22482TIP3    H167331   1.787   2.790   0.834
22482TIP3    H267332   1.774   2.653   0.898
22483TIP3   OH267333   2.615   2.210   0.773
22483TIP3    H167334   2.559   2.162   0.713
22483TIP3    H267335   2.613   2.300   0.740
22484TIP3   OH267336   2.402   2.970   0.786
22484TIP3    H167337   2.353   2.945   0.864
22484TIP3    H267338   2.389   2.897   0.725
22485TIP3   OH267339   2.261   2.745   1.546
22485TIP3    H167340   2.247   2.653   1.569
22485TIP3    H267341   2.348   2.746   1.505
22486TIP3   OH267342   1.445   2.912   1.323
22486TIP3    H167343   1.438   2.982   1.259
22486TIP3    H267344   1.356   2.903   1.358
22487TIP3   OH267345   1.061   2.204   1.028
22487TIP3    H167346   1.104   2.287   1.047
22487TIP3    H267347   0.981   2.206   1.080
22488TIP3   OH267348   1.578   2.686   1.229
22488TIP3    H167349   1.538   2.770   1.253
22488TIP3    H267350   1.551   2.626   1.299
22489TIP3   OH267351   1.828   3.354   1.859
22489TIP3    H167352   1.754   3.353   1.799
22489TIP3    H267353   1.794   3.315   1.940
22490TIP3   OH267354   1.359   3.108   1.147
22490TIP3    H167355   1.266   3.115   1.126
22490TIP3    H267356   1.390   3.199   1.151
22491TIP3   OH267357   2.096   2.883   1.716
22491TIP3    H167358   2.128   2.896   1.805
22491TIP3    H267359   2.167   2.839   1.670
22492TIP3   OH267360   2.097   2.776   0.585
22492TIP3    H167361   2.134   2.745   0.667
22492TIP3    H267362   2.012   2.733   0.580
22493TIP3   OH267363   2.423   3.239   0.389
22493TIP3    H167364   2.405   3.256   0.297
22493TIP3    H267365   2.345   3.268   0.435
22494TIP3   OH267366   2.232   2.685   0.800
22494TIP3    H167367   2.218   2.642   0.884
22494TIP3    H267368   2.326   2.679   0.784
22495TIP3   OH267369   1.128   2.970   1.965
22495TIP3    H167370   1.218   2.949   1.938
22495TIP3    H267371   1.128   3.065   1.974
22496TIP3   OH267372   1.474   2.754   0.618
22496TIP3    H167373   1.488   2.663   0.591
22496TIP3    H267374   1.455   2.748   0.712
22497TIP3   OH267375   1.409   2.766   0.889
22497TIP3    H167376   1.468   2.741   0.960
22497TIP3    H267377   1.410   2.862   0.890
22498TIP3   OH267378   1.151   2.458   1.106
22498TIP3    H167379   1.087   2.505   1.160
22498TIP3    H267380   1.166   2.515   1.031
22499TIP3   OH267381   2.219   2.104   2.055
22499TIP3    H167382   2.201   2.196   2.075
22499TIP3    H267383   2.136   2.059   2.073
22500TIP3   OH267384   2.189   1.810   1.164
22500TIP3    H167385   2.168   1.826   1.072
22500TIP3    H267386   2.233   1.890   1.193
22501TIP3   OH267387   1.689   2.940   0.811
22501TIP3    H167388   1.606   2.976   0.842
22501TIP3    H267389   1.685   2.950   0.716
22502TIP3   OH267390   1.847   2.025   1.255
22502TIP3    H167391   1.909   2.092   1.227
22502TIP3    H267392   1.872   2.006   1.346
22503TIP3   OH267393   2.003   1.718   1.342
22503TIP3    H167394   1.986   1.795   1.396
22503TIP3    H267395   2.075   1.745   1.285
22504TIP3   OH267396   1.446   3.039   0.895
22504TIP3    H167397   1.424   3.114   0.840
22504TIP3    H267398   1.416   3.063   0.982
22505TIP3   OH267399   1.526   1.739   1.161
22505TIP3    H167400   1.515   1.831   1.185
22505TIP3    H267401   1.621   1.724   1.165
22506TIP3   OH267402   2.404   2.338   1.385
22506TIP3    H167403   2.333   2.277   1.404
22506TIP3    H267404   2.473   2.315   1.448
22507TIP3   OH267405   1.158   2.632   0.886
22507TIP3    H167406   1.221   2.703   0.895
22507TIP3    H267407   1.198   2.571   0.825
22508TIP3   OH267408   1.085   1.925   1.027
22508TIP3    H167409   1.097   2.020   1.037
22508TIP3    H267410   1.049   1.914   0.939
22509TIP3   OH267411   2.569   3.434   1.441
22509TIP3    H167412   2.478   3.462   1.426
22509TIP3    H267413   2.575   3.348   1.400
22510TIP3   OH267414   1.491   1.635   1.872
22510TIP3    H167415   1.462   1.612   1.784
22510TIP3    H267416   1.471   1.558   1.925
22511TIP3   OH267417   0.986   2.892   1.255
22511TIP3    H167418   0.976   2.939   1.337
22511TIP3    H267419   1.011   2.959   1.192
22512TIP3   OH267420   1.637   2.955   0.515
22512TIP3    H167421   1.579   2.882   0.537
22512TIP3    H267422   1.620   2.972   0.423
22513TIP3   OH267423   2.103   3.010   0.448
22513TIP3    H167424   2.088   2.924   0.486
22513TIP3    H267425   2.115   2.994   0.355
22514TIP3   OH267426   1.298   2.444   0.744
22514TIP3    H167427   1.349   2.421   0.822
22514TIP3    H267428   1.363   2.459   0.676
22515TIP3   OH267429   1.852   2.657   0.570
22515TIP3    H167430   1.834   2.665   0.664
22515TIP3    H267431   1.837   2.564   0.551
22516TIP3   OH267432   1.470   2.381   0.957
22516TIP3    H167433   1.448   2.347   1.044
22516TIP3    H267434   1.516   2.308   0.914
22517TIP3   OH267435   1.608   2.197   0.795
22517TIP3    H167436   1.578   2.201   0.704
22517TIP3    H267437   1.703   2.202   0.790
22518TIP3   OH267438   2.400   2.475   0.456
22518TIP3    H167439   2.382   2.440   0.369
22518TIP3    H267440   2.379   2.568   0.451
22519TIP3   OH267441   1.949   1.971   2.087
22519TIP3    H167442   1.938   2.029   2.011
22519TIP3    H267443   1.860   1.952   2.115
22520TIP3   OH267444   1.442   3.261   0.723
22520TIP3    H167445   1.530   3.240   0.693
22520TIP3    H267446   1.394   3.283   0.643
22521TIP3   OH267447   0.881   2.617   0.918
22521TIP3    H167448   0.974   2.639   0.907
22521TIP3    H267449   0.871   2.533   0.873
22522TIP3   OH267450   0.768   3.205   1.388
22522TIP3    H167451   0.709   3.150   1.336
22522TIP3    H267452   0.822   3.143   1.437
22523TIP3   OH267453   0.940   3.026   1.510
22523TIP3    H167454   0.929   2.967   1.584
22523TIP3    H267455   1.029   3.061   1.520
22524TIP3   OH267456   2.500   2.679   0.777
22524TIP3    H167457   2.556   2.713   0.707
22524TIP3    H267458   2.555   2.682   0.855
22525TIP3   OH267459   2.637   2.484   1.054
22525TIP3    H167460   2.547   2.451   1.059
22525TIP3    H267461   2.667   2.484   1.145
22526TIP3   OH267462   2.644   2.909   1.462
22526TIP3    H167463   2.720   2.907   1.403
22526TIP3    H267464   2.578   2.960   1.415
22527TIP3   OH267465   2.589   2.448   0.648
22527TIP3    H167466   2.524   2.449   0.578
22527TIP3    H267467   2.564   2.522   0.704
22528TIP3   OH267468   2.457   2.099   0.584
22528TIP3    H167469   2.406   2.132   0.509
22528TIP3    H267470   2.455   2.004   0.575
22529TIP3   OH267471   2.411   2.349   1.115
22529TIP3    H167472   2.437   2.261   1.090
22529TIP3    H267473   2.409   2.347   1.211
22530TIP3   OH267474   1.204   2.397   1.929
22530TIP3    H167475   1.160   2.458   1.869
22530TIP3    H267476   1.235   2.327   1.872
22531TIP3   OH267477   2.433   1.828   0.561
22531TIP3    H167478   2.494   1.804   0.631
22531TIP3    H267479   2.348   1.795   0.591
22532TIP3   OH267480   2.480   2.107   0.998
22532TIP3    H167481   2.523   2.024   1.016
22532TIP3    H267482   2.530   2.145   0.926
22533TIP3   OH267483   2.613   2.262   1.550
22533TIP3    H167484   2.703   2.291   1.540
22533TIP3    H267485   2.597   2.265   1.645
22534TIP3   OH267486   2.796   2.482   1.810
22534TIP3    H167487   2.719   2.522   1.852
22534TIP3    H267488   2.797   2.518   1.722
22535TIP3   OH267489   2.591   1.861   1.054
22535TIP3    H167490   2.634   1.843   1.138
22535TIP3    H267491   2.524   1.792   1.047
22536TIP3   OH267492   1.326   1.848   1.918
22536TIP3    H167493   1.379   1.769   1.907
22536TIP3    H267494   1.385   1.920   1.898
22537TIP3   OH267495   1.104   2.114   2.003
22537TIP3    H167496   1.163   2.135   1.930
22537TIP3    H267497   1.087   2.199   2.043
22538TIP3   OH267498   2.658   1.791   0.721
22538TIP3    H167499   2.705   1.729   0.664
22538TIP3    H267500   2.712   1.870   0.718
22539TIP3   OH267501   1.084   1.612   1.449
22539TIP3    H167502   1.007   1.617   1.505
22539TIP3    H267503   1.069   1.680   1.383
22540TIP3   OH267504   2.312   3.359   1.067
22540TIP3    H167505   2.335   3.342   0.975
22540TIP3    H267506   2.384   3.413   1.100
22541TIP3   OH267507   1.346   3.321   1.777
22541TIP3    H167508   1.341   3.413   1.802
22541TIP3    H267509   1.436   3.309   1.747
22542TIP3   OH267510   1.905   3.523   1.637
22542TIP3    H167511   1.852   3.600   1.618
22542TIP3    H267512   1.876   3.494   1.723
22543TIP3   OH267513   2.017   3.263   1.669
22543TIP3    H167514   1.952   3.267   1.739
22543TIP3    H267515   2.002   3.344   1.619
22544TIP3   OH267516   1.103   3.216   1.703
22544TIP3    H167517   1.177   3.263   1.741
22544TIP3    H267518   1.142   3.142   1.657
22545TIP3   OH267519   1.245   3.029   1.565
22545TIP3    H167520   1.259   2.945   1.607
22545TIP3    H267521   1.331   3.073   1.570
22546TIP3   OH267522   1.634   3.203   1.449
22546TIP3    H167523   1.681   3.150   1.385
22546TIP3    H267524   1.586   3.140   1.502
22547TIP3   OH267525   2.134   1.797   1.629
22547TIP3    H167526   2.084   1.741   1.688
22547TIP3    H267527   2.196   1.738   1.586
22548TIP3   OH267528   2.677   1.677   1.513
22548TIP3    H167529   2.702   1.721   1.432
22548TIP3    H267530   2.630   1.743   1.564
22549TIP3   OH267531   2.740   1.794   1.274
22549TIP3    H167532   2.804   1.726   1.254
22549TIP3    H267533   2.788   1.876   1.262
22550TIP3   OH267534   1.391   1.540   1.634
22550TIP3    H167535   1.299   1.513   1.638
22550TIP3    H267536   1.440   1.458   1.633
22551TIP3   OH267537   1.227   1.433   1.294
22551TIP3    H167538   1.251   1.484   1.217
22551TIP3    H267539   1.182   1.494   1.351
22552TIP3   OH267540   1.851   1.577   1.530
22552TIP3    H167541   1.900   1.617   1.459
22552TIP3    H267542   1.891   1.612   1.610
22553TIP3   OH267543   2.331   1.648   1.510
22553TIP3    H167544   2.388   1.660   1.433
22553TIP3    H267545   2.335   1.555   1.529
22554TIP3   OH267546   2.401   1.659   1.067
22554TIP3    H167547   2.325   1.706   1.100
22554TIP3    H267548   2.393   1.571   1.106
22555TIP3   OH267549   1.323   1.571   1.064
22555TIP3    H167550   1.371   1.513   1.005
22555TIP3    H267551   1.390   1.628   1.101
22556TIP3   OH267552   1.799   1.772   1.160
22556TIP3    H167553   1.860   1.722   1.216
22556TIP3    H267554   1.812   1.863   1.187
22557TIP3   OH267555   1.688   3.197   0.630
22557TIP3    H167556   1.779   3.213   0.605
22557TIP3    H267557   1.662   3.119   0.579
22558TIP3   OH267558   2.390   3.281   0.818
22558TIP3    H167559   2.434   3.202   0.849
22558TIP3    H267560   2.323   3.249   0.756
22559TIP3   OH267561   1.028   3.040   0.751
22559TIP3    H167562   1.039   3.063   0.844
22559TIP3    H267563   1.104   2.986   0.730
22560TIP3   OH267564   2.818   2.320   0.938
22560TIP3    H167565   2.760   2.381   0.983
22560TIP3    H267566   2.763   2.277   0.873
22561TIP3   OH267567   2.890   2.632   1.147
22561TIP3    H167568   2.890   2.552   1.199
22561TIP3    H267569   2.981   2.663   1.148
22562TIP3   OH267570   3.409   2.179   1.125
22562TIP3    H167571   3.369   2.226   1.051
22562TIP3    H267572   3.405   2.086   1.099
22563TIP3   OH267573   4.126   2.295   0.772
22563TIP3    H167574   4.122   2.294   0.867
22563TIP3    H267575   4.118   2.388   0.748
22564TIP3   OH267576   3.071   2.395   1.251
22564TIP3    H167577   3.152   2.435   1.219
22564TIP3    H267578   3.050   2.328   1.186
22565TIP3   OH267579   3.577   2.675   1.069
22565TIP3    H167580   3.608   2.597   1.115
22565TIP3    H267581   3.490   2.652   1.038
22566TIP3   OH267582   3.477   2.211   1.604
22566TIP3    H167583   3.480   2.245   1.515
22566TIP3    H267584   3.432   2.279   1.654
22567TIP3   OH267585   3.311   2.556   1.298
22567TIP3    H167586   3.351   2.631   1.341
22567TIP3    H267587   3.358   2.480   1.333
22568TIP3   OH267588   2.693   2.779   0.619
22568TIP3    H167589   2.670   2.815   0.533
22568TIP3    H267590   2.705   2.855   0.675
22569TIP3   OH267591   3.878   1.903   1.339
22569TIP3    H167592   3.871   1.810   1.318
22569TIP3    H267593   3.816   1.917   1.410
22570TIP3   OH267594   3.736   2.656   0.539
22570TIP3    H167595   3.673   2.728   0.541
22570TIP3    H267596   3.822   2.699   0.539
22571TIP3   OH267597   3.691   2.444   0.281
22571TIP3    H167598   3.745   2.504   0.333
22571TIP3    H267599   3.702   2.359   0.324
22572TIP3   OH267600   3.274   2.830   0.870
22572TIP3    H167601   3.221   2.789   0.803
22572TIP3    H267602   3.295   2.759   0.931
22573TIP3   OH267603   3.898   2.658   0.282
22573TIP3    H167604   3.944   2.735   0.313
22573TIP3    H267605   3.933   2.643   0.194
22574TIP3   OH267606   4.374   1.803   0.511
22574TIP3    H167607   4.306   1.828   0.574
22574TIP3    H267608   4.379   1.876   0.450
22575TIP3   OH267609   3.143   2.669   0.687
22575TIP3    H167610   3.142   2.652   0.593
22575TIP3    H267611   3.063   2.629   0.719
22576TIP3   OH267612   3.041   3.276   0.959
22576TIP3    H167613   2.976   3.340   0.930
22576TIP3    H267614   2.991   3.196   0.971
22577TIP3   OH267615   3.772   3.344   0.027
22577TIP3    H167616   3.857   3.387   0.027
22577TIP3    H267617   3.758   3.320   0.119
22578TIP3   OH267618   3.661   1.979   1.501
22578TIP3    H167619   3.598   1.969   1.430
22578TIP3    H267620   3.657   2.072   1.523
22579TIP3   OH267621   4.064   2.619   0.060
22579TIP3    H167622   3.987   2.585   0.015
22579TIP3    H267623   4.101   2.684   0.000
22580TIP3   OH267624   3.680   1.963   0.309
22580TIP3    H167625   3.658   1.992   0.398
22580TIP3    H267626   3.630   1.882   0.298
22581TIP3   OH267627   3.286   2.341   0.943
22581TIP3    H167628   3.197   2.377   0.950
22581TIP3    H267629   3.330   2.397   0.880
22582TIP3   OH267630   3.871   2.417   0.670
22582TIP3    H167631   3.817   2.491   0.698
22582TIP3    H267632   3.893   2.437   0.579
22583TIP3   OH267633   3.328   1.992   0.331
22583TIP3    H167634   3.322   1.992   0.427
22583TIP3    H267635   3.247   2.035   0.302
22584TIP3   OH267636   2.901   1.999   1.179
22584TIP3    H167637   2.989   2.000   1.216
22584TIP3    H267638   2.909   1.946   1.100
22585TIP3   OH267639   2.814   2.024   0.725
22585TIP3    H167640   2.872   2.062   0.659
22585TIP3    H267641   2.749   2.092   0.741
22586TIP3   OH267642   3.691   2.199   1.015
22586TIP3    H167643   3.603   2.195   0.978
22586TIP3    H267644   3.691   2.134   1.086
22587TIP3   OH267645   3.040   2.216   1.043
22587TIP3    H167646   2.958   2.248   1.005
22587TIP3    H267647   3.034   2.120   1.035
22588TIP3   OH267648   3.373   2.258   0.637
22588TIP3    H167649   3.441   2.322   0.620
22588TIP3    H267650   3.325   2.252   0.554
22589TIP3   OH267651   3.207   2.285   0.413
22589TIP3    H167652   3.141   2.225   0.379
22589TIP3    H267653   3.266   2.301   0.339
22590TIP3   OH267654   3.331   1.916   1.038
22590TIP3    H167655   3.258   1.864   1.074
22590TIP3    H267656   3.294   1.960   0.962
22591TIP3   OH267657   3.495   2.830   0.503
22591TIP3    H167658   3.420   2.808   0.447
22591TIP3    H267659   3.474   2.918   0.537
22592TIP3   OH267660   3.807   2.165   0.192
22592TIP3    H167661   3.743   2.100   0.222
22592TIP3    H267662   3.844   2.201   0.273
22593TIP3   OH267663   4.008   2.467   0.443
22593TIP3    H167664   4.103   2.471   0.441
22593TIP3    H267665   3.980   2.534   0.381
22594TIP3   OH267666   3.123   2.773   1.192
22594TIP3    H167667   3.124   2.853   1.140
22594TIP3    H267668   3.215   2.749   1.201
22595TIP3   OH267669   3.751   2.970   0.361
22595TIP3    H167670   3.754   3.035   0.431
22595TIP3    H267671   3.664   2.979   0.323
22596TIP3   OH267672   4.507   2.485   0.267
22596TIP3    H167673   4.422   2.530   0.270
22596TIP3    H267674   4.571   2.556   0.268
22597TIP3   OH267675   3.326   3.212   0.938
22597TIP3    H167676   3.398   3.245   0.884
22597TIP3    H267677   3.249   3.220   0.882
22598TIP3   OH267678   2.794   2.390   0.469
22598TIP3    H167679   2.831   2.478   0.458
22598TIP3    H267680   2.722   2.402   0.531
22599TIP3   OH267681   3.501   2.983   0.865
22599TIP3    H167682   3.495   3.079   0.858
22599TIP3    H267683   3.411   2.954   0.880
22600TIP3   OH267684   3.095   3.433   0.682
22600TIP3    H167685   3.045   3.453   0.761
22600TIP3    H267686   3.155   3.508   0.673
22601TIP3   OH267687   3.918   2.988   0.142
22601TIP3    H167688   3.856   2.999   0.215
22601TIP3    H267689   3.881   2.918   0.089
22602TIP3   OH267690   3.244   2.938   0.065
22602TIP3    H167691   3.241   2.857   0.015
22602TIP3    H267692   3.265   2.910   0.155
22603TIP3   OH267693   3.220   3.036   0.364
22603TIP3    H167694   3.190   2.946   0.371
22603TIP3    H267695   3.312   3.029   0.337
22604TIP3   OH267696   2.885   2.644   0.484
22604TIP3    H167697   2.817   2.693   0.531
22604TIP3    H267698   2.929   2.709   0.430
22605TIP3   OH267699   3.992   2.093   0.646
22605TIP3    H167700   3.986   2.102   0.551
22605TIP3    H267701   4.029   2.176   0.676
22606TIP3   OH267702   3.455   3.244   0.389
22606TIP3    H167703   3.371   3.289   0.400
22606TIP3    H267704   3.515   3.313   0.357
22607TIP3   OH267705   3.715   2.204   0.728
22607TIP3    H167706   3.781   2.272   0.710
22607TIP3    H267707   3.663   2.239   0.800
22608TIP3   OH267708   3.748   1.950   0.842
22608TIP3    H167709   3.706   2.035   0.830
22608TIP3    H267710   3.814   1.964   0.909
22609TIP3   OH267711   3.231   3.385   0.445
22609TIP3    H167712   3.196   3.468   0.413
22609TIP3    H267713   3.173   3.361   0.518
22610TIP3   OH267714   3.282   1.972   0.601
22610TIP3    H167715   3.251   2.014   0.681
22610TIP3    H267716   3.376   1.960   0.615
22611TIP3   OH267717   2.986   2.867   0.348
22611TIP3    H167718   2.973   2.946   0.295
22611TIP3    H267719   3.009   2.799   0.285
22612TIP3   OH267720   2.934   2.162   0.517
22612TIP3    H167721   2.885   2.241   0.500
22612TIP3    H267722   2.927   2.111   0.436
22613TIP3   OH267723   3.296   1.772   1.331
22613TIP3    H167724   3.239   1.777   1.254
22613TIP3    H267725   3.251   1.713   1.391
22614TIP3   OH267726   2.890   3.183   0.701
22614TIP3    H167727   2.867   3.156   0.790
22614TIP3    H267728   2.809   3.217   0.664
22615TIP3   OH267729   6.656   7.727   7.904
22615TIP3    H167730   6.623   7.648   7.948
22615TIP3    H267731   6.690   7.782   7.975
22616TIP3   OH267732   7.295   7.901   7.909
22616TIP3    H167733   7.239   7.835   7.950
22616TIP3    H267734   7.270   7.899   7.817
22617TIP3   OH267735   3.062   2.653   0.199
22617TIP3    H167736   3.102   2.615   0.277
22617TIP3    H267737   3.132   2.655   0.134
22618TIP3   OH267738   6.788   7.448   7.907
22618TIP3    H167739   6.839   7.513   7.955
22618TIP3    H267740   6.804   7.365   7.953
22619TIP3   OH267741   3.177   2.559   0.438
22619TIP3    H167742   3.160   2.466   0.450
22619TIP3    H267743   3.271   2.564   0.421
22620TIP3   OH267744   3.373   2.325   0.202
22620TIP3    H167745   3.348   2.360   0.116
22620TIP3    H267746   3.420   2.244   0.183
22621TIP3   OH267747   7.433   7.400   7.877
22621TIP3    H167748   7.427   7.344   7.800
22621TIP3    H267749   7.411   7.488   7.844
22622TIP3   OH267750   3.289   3.528   0.168
22622TIP3    H167751   3.318   3.615   0.141
22622TIP3    H267752   3.207   3.515   0.121
22623TIP3   OH267753   2.659   2.863   0.370
22623TIP3    H167754   2.705   2.932   0.323
22623TIP3    H267755   2.668   2.786   0.314
22624TIP3   OH267756   2.690   3.384   0.835
22624TIP3    H167757   2.624   3.393   0.766
22624TIP3    H267758   2.650   3.325   0.899
22625TIP3   OH267759   2.596   3.240   1.036
22625TIP3    H167760   2.667   3.202   1.088
22625TIP3    H267761   2.567   3.316   1.086
22626TIP3   OH267762   4.519   2.768   0.201
22626TIP3    H167763   4.490   2.799   0.116
22626TIP3    H267764   4.605   2.809   0.213
22627TIP3   OH267765   7.586   6.981   7.999
22627TIP3    H167766   7.522   7.003   7.931
22627TIP3    H267767   7.593   6.886   7.997
22628TIP3   OH267768   2.860   2.876   1.303
22628TIP3    H167769   2.901   2.798   1.267
22628TIP3    H267770   2.930   2.941   1.305
22629TIP3   OH267771   4.155   2.120   0.005
22629TIP3    H167772   4.238   2.077   0.027
22629TIP3    H267773   4.088   2.052   0.020
22630TIP3   OH267774   4.303   2.420   0.495
22630TIP3    H167775   4.290   2.336   0.538
22630TIP3    H267776   4.396   2.440   0.508
22631TIP3   OH267777   4.534   2.122   0.583
22631TIP3    H167778   4.555   2.108   0.676
22631TIP3    H267779   4.441   2.145   0.583
22632TIP3   OH267780   3.128   2.059   1.337
22632TIP3    H167781   3.223   2.055   1.327
22632TIP3    H267782   3.113   2.134   1.394
22633TIP3   OH267783   2.879   2.375   1.528
22633TIP3    H167784   2.880   2.346   1.436
22633TIP3    H267785   2.861   2.469   1.523
22634TIP3   OH267786   4.422   2.068   0.077
22634TIP3    H167787   4.456   1.980   0.060
22634TIP3    H267788   4.452   2.088   0.166
22635TIP3   OH267789   2.861   1.870   0.943
22635TIP3    H167790   2.771   1.850   0.966
22635TIP3    H267791   2.854   1.929   0.867
22636TIP3   OH267792   3.084   2.018   1.973
22636TIP3    H167793   3.082   1.923   1.987
22636TIP3    H267794   3.078   2.028   1.878
22637TIP3   OH267795   3.940   2.140   1.196
22637TIP3    H167796   3.940   2.057   1.243
22637TIP3    H267797   3.950   2.116   1.104
22638TIP3   OH267798   3.120   1.768   1.121
22638TIP3    H167799   3.031   1.741   1.144
22638TIP3    H267800   3.164   1.687   1.096
22639TIP3   OH267801   3.012   1.686   0.790
22639TIP3    H167802   3.030   1.732   0.708
22639TIP3    H267803   2.971   1.753   0.846
22640TIP3   OH267804   3.629   1.787   1.082
22640TIP3    H167805   3.718   1.813   1.060
22640TIP3    H267806   3.591   1.864   1.123
22641TIP3   OH267807   4.280   2.071   0.933
22641TIP3    H167808   4.281   2.013   0.857
22641TIP3    H267809   4.259   2.013   1.007
22642TIP3   OH267810   4.208   1.931   0.696
22642TIP3    H167811   4.120   1.963   0.677
22642TIP3    H267812   4.194   1.859   0.758
22643TIP3   OH267813   2.643   3.221   0.573
22643TIP3    H167814   2.565   3.220   0.518
22643TIP3    H267815   2.682   3.307   0.559
22644TIP3   OH267816   3.085   1.797   0.540
22644TIP3    H167817   3.131   1.732   0.488
22644TIP3    H267818   3.153   1.859   0.567
22645TIP3   OH267819   3.564   2.023   0.569
22645TIP3    H167820   3.618   1.946   0.583
22645TIP3    H267821   3.603   2.091   0.624
22646TIP3   OH267822   3.532   3.479   0.275
22646TIP3    H167823   3.592   3.551   0.253
22646TIP3    H267824   3.447   3.509   0.243
22647TIP3   OH267825   2.757   3.081   0.247
22647TIP3    H167826   2.718   3.169   0.254
22647TIP3    H267827   2.849   3.098   0.229
22648TIP3   OH267828   8.336   6.820   7.765
22648TIP3    H167829   8.399   6.875   7.812
22648TIP3    H267830   8.321   6.867   7.683
22649TIP3   OH267831   4.653   2.269   0.190
22649TIP3    H167832   4.714   2.310   0.129
22649TIP3    H267833   4.598   2.340   0.221
22650TIP3   OH267834   8.069   7.023   7.988
22650TIP3    H167835   8.114   7.102   7.959
22650TIP3    H267836   7.978   7.035   7.962
22651TIP3   OH267837   4.752   2.135   0.405
22651TIP3    H167838   4.688   2.145   0.475
22651TIP3    H267839   4.718   2.188   0.333
22652TIP3   OH267840   4.793   1.922   0.234
22652TIP3    H167841   4.852   1.949   0.164
22652TIP3    H267842   4.788   1.997   0.293
22653TIP3   OH267843   8.186   6.622   8.009
22653TIP3    H167844   8.217   6.609   7.919
22653TIP3    H267845   8.225   6.705   8.036
22654TIP3   OH267846   9.534   3.805   0.859
22654TIP3    H167847   9.563   3.812   0.950
22654TIP3    H267848   9.587   3.734   0.822
22655TIP3   OH267849   0.445   3.153   1.040
22655TIP3    H167850   0.374   3.185   1.097
22655TIP3    H267851   0.466   3.228   0.984
22656TIP3   OH267852   0.062   3.850   0.728
22656TIP3    H167853   0.010   3.866   0.649
22656TIP3    H267854   0.131   3.917   0.725
22657TIP3   OH267855   9.543   3.337   1.014
22657TIP3    H167856   9.498   3.357   1.097
22657TIP3    H267857   9.514   3.248   0.993
22658TIP3   OH267858   9.229   3.316   1.029
22658TIP3    H167859   9.253   3.356   1.112
22658TIP3    H267860   9.147   3.359   1.004
22659TIP3   OH267861   9.800   3.418   1.042
22659TIP3    H167862   9.706   3.408   1.024
22659TIP3    H267863   9.817   3.511   1.025
22660TIP3   OH267864   0.078   3.680   1.014
22660TIP3    H167865   0.159   3.673   1.065
22660TIP3    H267866   0.101   3.735   0.940
22661TIP3   OH267867   0.479   3.787   0.937
22661TIP3    H167868   0.418   3.740   0.881
22661TIP3    H267869   0.487   3.873   0.896
22662TIP3   OH267870   0.057   3.379   1.306
22662TIP3    H167871   0.032   3.386   1.214
22662TIP3    H267872   0.085   3.467   1.330
22663TIP3   OH267873   0.241   4.044   0.632
22663TIP3    H167874   0.239   4.005   0.545
22663TIP3    H267875   0.197   4.129   0.621
22664TIP3   OH267876   0.455   4.031   0.805
22664TIP3    H167877   0.385   4.027   0.739
22664TIP3    H267878   0.424   4.095   0.869
22665TIP3   OH267879   0.301   3.680   0.762
22665TIP3    H167880   0.236   3.711   0.699
22665TIP3    H267881   0.303   3.585   0.748
22666TIP3   OH267882   0.285   3.410   0.725
22666TIP3    H167883   0.359   3.376   0.775
22666TIP3    H267884   0.212   3.354   0.751
22667TIP3   OH267885   0.324   3.654   1.136
22667TIP3    H167886   0.373   3.580   1.173
22667TIP3    H267887   0.388   3.701   1.083
22668TIP3   OH267888   0.459   3.429   1.231
22668TIP3    H167889   0.500   3.427   1.317
22668TIP3    H267890   0.397   3.355   1.232
22669TIP3   OH267891   0.523   3.353   0.868
22669TIP3    H167892   0.587   3.287   0.840
22669TIP3    H267893   0.573   3.434   0.876
22670TIP3   OH267894   0.498   3.248   1.655
22670TIP3    H167895   0.543   3.312   1.600
22670TIP3    H267896   0.411   3.285   1.668
22671TIP3   OH267897   0.605   3.414   1.464
22671TIP3    H167898   0.677   3.355   1.439
22671TIP3    H267899   0.640   3.502   1.448
22672TIP3   OH267900   0.231   3.309   1.651
22672TIP3    H167901   0.186   3.301   1.567
22672TIP3    H267902   0.207   3.229   1.699
22673TIP3   OH267903   0.272   3.225   1.237
22673TIP3    H167904   0.193   3.274   1.262
22673TIP3    H267905   0.257   3.137   1.272
22674TIP3   OH267906   9.028   3.009   1.291
22674TIP3    H167907   9.069   3.034   1.208
22674TIP3    H267908   8.961   3.076   1.305
22675TIP3   OH267909   9.423   3.358   1.262
22675TIP3    H167910   9.430   3.273   1.305
22675TIP3    H267911   9.456   3.421   1.326
22676TIP3   OH267912   1.759   4.402   0.906
22676TIP3    H167913   1.695   4.455   0.859
22676TIP3    H267914   1.708   4.331   0.945
22677TIP3   OH267915   0.674   3.864   1.123
22677TIP3    H167916   0.645   3.845   1.211
22677TIP3    H267917   0.603   3.835   1.066
22678TIP3   OH267918   1.204   3.696   1.218
22678TIP3    H167919   1.171   3.777   1.178
22678TIP3    H267920   1.152   3.627   1.179
22679TIP3   OH267921   1.932   3.834   0.849
22679TIP3    H167922   1.958   3.757   0.898
22679TIP3    H267923   1.999   3.843   0.781
22680TIP3   OH267924   1.305   4.227   1.165
22680TIP3    H167925   1.394   4.260   1.163
22680TIP3    H267926   1.315   4.132   1.176
22681TIP3   OH267927   1.551   4.534   0.784
22681TIP3    H167928   1.544   4.481   0.704
22681TIP3    H267929   1.521   4.621   0.758
22682TIP3   OH267930   2.262   3.997   1.211
22682TIP3    H167931   2.208   3.929   1.171
22682TIP3    H267932   2.322   4.025   1.142
22683TIP3   OH267933   1.043   3.877   1.639
22683TIP3    H167934   1.025   3.969   1.660
22683TIP3    H267935   1.120   3.881   1.583
22684TIP3   OH267936   1.574   3.454   1.378
22684TIP3    H167937   1.609   3.365   1.388
22684TIP3    H267938   1.522   3.467   1.457
22685TIP3   OH267939   1.744   4.850   0.730
22685TIP3    H167940   1.785   4.769   0.760
22685TIP3    H267941   1.724   4.898   0.811
22686TIP3   OH267942   1.442   4.134   0.666
22686TIP3    H167943   1.354   4.116   0.702
22686TIP3    H267944   1.435   4.222   0.629
22687TIP3   OH267945   1.470   4.008   0.348
22687TIP3    H167946   1.541   4.048   0.399
22687TIP3    H267947   1.513   3.941   0.295
22688TIP3   OH267948   1.958   4.387   0.719
22688TIP3    H167949   1.917   4.368   0.804
22688TIP3    H267950   1.995   4.303   0.691
22689TIP3   OH267951   1.079   4.329   1.042
22689TIP3    H167952   1.027   4.267   0.991
22689TIP3    H267953   1.155   4.280   1.071
22690TIP3   OH267954   1.717   4.095   0.415
22690TIP3    H167955   1.734   4.169   0.473
22690TIP3    H267956   1.728   4.131   0.327
22691TIP3   OH267957   2.184   3.351   0.455
22691TIP3    H167958   2.162   3.284   0.520
22691TIP3    H267959   2.176   3.434   0.502
22692TIP3   OH267960   0.950   4.140   0.888
22692TIP3    H167961   0.885   4.177   0.829
22692TIP3    H267962   0.915   4.054   0.912
22693TIP3   OH267963   2.101   4.814   0.013
22693TIP3    H167964   2.154   4.853   0.082
22693TIP3    H267965   2.160   4.755  -0.033
22694TIP3   OH267966   1.593   5.031   0.202
22694TIP3    H167967   1.629   4.952   0.164
22694TIP3    H267968   1.554   5.003   0.284
22695TIP3   OH267969   1.681   5.081   0.592
22695TIP3    H167970   1.596   5.101   0.631
22695TIP3    H267971   1.715   5.009   0.644
22696TIP3   OH267972   1.454   3.552   1.599
22696TIP3    H167973   1.366   3.543   1.565
22696TIP3    H267974   1.475   3.645   1.589
22697TIP3   OH267975   1.715   4.192   0.159
22697TIP3    H167976   1.705   4.137   0.081
22697TIP3    H267977   1.790   4.248   0.139
22698TIP3   OH267978   1.521   3.567   0.538
22698TIP3    H167979   1.451   3.590   0.600
22698TIP3    H267980   1.492   3.484   0.500
22699TIP3   OH267981   1.114   3.944   1.067
22699TIP3    H167982   1.038   3.891   1.090
22699TIP3    H267983   1.147   3.904   0.986
22700TIP3   OH267984   1.644   3.990   0.770
22700TIP3    H167985   1.571   4.037   0.728
22700TIP3    H267986   1.694   3.954   0.697
22701TIP3   OH267987   1.749   4.034   1.017
22701TIP3    H167988   1.711   4.019   0.931
22701TIP3    H267989   1.844   4.025   1.004
22702TIP3   OH267990   1.192   3.564   0.510
22702TIP3    H167991   1.190   3.558   0.606
22702TIP3    H267992   1.110   3.607   0.487
22703TIP3   OH267993   0.695   3.661   1.350
22703TIP3    H167994   0.775   3.665   1.402
22703TIP3    H267995   0.717   3.605   1.276
22704TIP3   OH267996   0.670   3.586   0.887
22704TIP3    H167997   0.714   3.619   0.809
22704TIP3    H267998   0.611   3.657   0.913
22705TIP3   OH267999   1.443   3.685   1.073
22705TIP3    H168000   1.354   3.674   1.107
22705TIP3    H268001   1.496   3.703   1.150
22706TIP3   OH268002   0.929   3.767   1.137
22706TIP3    H168003   0.837   3.790   1.129
22706TIP3    H268004   0.932   3.672   1.125
22707TIP3   OH268005   1.196   3.809   0.842
22707TIP3    H168006   1.288   3.796   0.817
22707TIP3    H268007   1.151   3.830   0.761
22708TIP3   OH268008   1.877   3.953   1.344
22708TIP3    H168009   1.888   3.860   1.364
22708TIP3    H268010   1.963   3.981   1.312
22709TIP3   OH268011   1.072   3.853   0.604
22709TIP3    H168012   1.013   3.798   0.551
22709TIP3    H268013   1.120   3.905   0.539
22710TIP3   OH268014   1.631   4.015   1.263
22710TIP3    H168015   1.664   4.036   1.175
22710TIP3    H268016   1.710   3.996   1.314
22711TIP3   OH268017   1.048   3.511   1.097
22711TIP3    H168018   1.023   3.442   1.159
22711TIP3    H268019   1.057   3.466   1.013
22712TIP3   OH268020   1.656   4.014   1.594
22712TIP3    H168021   1.679   4.087   1.536
22712TIP3    H268022   1.662   4.050   1.682
22713TIP3   OH268023   1.746   3.663   0.433
22713TIP3    H168024   1.661   3.631   0.463
22713TIP3    H268025   1.752   3.752   0.470
22714TIP3   OH268026   1.801   3.894   0.575
22714TIP3    H168027   1.890   3.872   0.549
22714TIP3    H268028   1.773   3.959   0.510
22715TIP3   OH268029   2.330   4.098   0.437
22715TIP3    H168030   2.356   4.053   0.357
22715TIP3    H268031   2.285   4.177   0.408
22716TIP3   OH268032   2.099   4.791   0.379
22716TIP3    H168033   2.076   4.780   0.471
22716TIP3    H268034   2.030   4.745   0.331
22717TIP3   OH268035   0.687   4.005   0.656
22717TIP3    H168036   0.728   4.090   0.670
22717TIP3    H268037   0.608   4.007   0.709
22718TIP3   OH268038   1.232   4.571   1.004
22718TIP3    H168039   1.215   4.592   0.912
22718TIP3    H268040   1.175   4.496   1.022
22719TIP3   OH268041   1.650   4.523   0.325
22719TIP3    H168042   1.673   4.552   0.413
22719TIP3    H268043   1.555   4.531   0.321
22720TIP3   OH268044   2.052   5.170   0.177
22720TIP3    H168045   2.119   5.167   0.108
22720TIP3    H268046   1.970   5.187   0.130
22721TIP3   OH268047   1.837   4.563   0.546
22721TIP3    H168048   1.873   4.512   0.618
22721TIP3    H268049   1.888   4.644   0.546
22722TIP3   OH268050   1.127   4.507   0.219
22722TIP3    H168051   1.117   4.416   0.193
22722TIP3    H268052   1.091   4.512   0.308
22723TIP3   OH268053   1.061   4.496   0.483
22723TIP3    H168054   1.102   4.434   0.543
22723TIP3    H268055   1.102   4.580   0.504
22724TIP3   OH268056   0.759   4.262   0.733
22724TIP3    H168057   0.693   4.314   0.779
22724TIP3    H268058   0.785   4.316   0.658
22725TIP3   OH268059   1.754   3.624   0.739
22725TIP3    H168060   1.687   3.613   0.671
22725TIP3    H268061   1.763   3.719   0.748
22726TIP3   OH268062   1.491   3.761   0.818
22726TIP3    H168063   1.529   3.848   0.808
22726TIP3    H268064   1.472   3.753   0.911
22727TIP3   OH268065   1.598   3.502   0.936
22727TIP3    H168066   1.549   3.568   0.984
22727TIP3    H268067   1.645   3.551   0.869
22728TIP3   OH268068   1.095   3.543   0.802
22728TIP3    H168069   1.092   3.633   0.834
22728TIP3    H268070   1.188   3.521   0.801
22729TIP3   OH268071   0.793   4.432   0.522
22729TIP3    H168072   0.861   4.498   0.534
22729TIP3    H268073   0.828   4.373   0.455
22730TIP3   OH268074   0.731   3.729   0.662
22730TIP3    H168075   0.736   3.825   0.665
22730TIP3    H268076   0.686   3.710   0.580
22731TIP3   OH268077   1.002   3.417   1.544
22731TIP3    H168078   0.997   3.375   1.459
22731TIP3    H268079   1.022   3.346   1.605
22732TIP3   OH268080   1.138   4.742   0.072
22732TIP3    H168081   1.119   4.660   0.118
22732TIP3    H268082   1.218   4.774   0.113
22733TIP3   OH268083   1.697   4.815   0.086
22733TIP3    H168084   1.715   4.722   0.073
22733TIP3    H268085   1.771   4.860   0.046
22734TIP3   OH268086   0.912   4.238   0.366
22734TIP3    H168087   0.963   4.222   0.446
22734TIP3    H268088   0.977   4.240   0.296
22735TIP3   OH268089   1.092   4.199   0.573
22735TIP3    H168090   1.110   4.166   0.661
22735TIP3    H268091   1.136   4.136   0.515
22736TIP3   OH268092   1.208   4.005   0.419
22736TIP3    H168093   1.180   3.995   0.328
22736TIP3    H268094   1.303   4.004   0.415
22737TIP3   OH268095   1.925   4.328   0.051
22737TIP3    H168096   1.936   4.281  -0.031
22737TIP3    H268097   1.937   4.420   0.028
22738TIP3   OH268098   1.517   3.795   1.829
22738TIP3    H168099   1.549   3.817   1.742
22738TIP3    H268100   1.433   3.840   1.837
22739TIP3   OH268101   1.016   5.104   0.297
22739TIP3    H168102   1.111   5.098   0.304
22739TIP3    H268103   0.992   5.038   0.232
22740TIP3   OH268104   0.522   4.432   0.484
22740TIP3    H168105   0.614   4.443   0.510
22740TIP3    H268106   0.512   4.338   0.469
22741TIP3   OH268107   2.316   4.562   0.400
22741TIP3    H168108   2.394   4.533   0.447
22741TIP3    H268109   2.247   4.566   0.467
22742TIP3   OH268110   2.258   4.312   0.297
22742TIP3    H168111   2.250   4.324   0.202
22742TIP3    H268112   2.273   4.400   0.331
22743TIP3   OH268113   2.124   3.881   0.119
22743TIP3    H168114   2.059   3.907   0.054
22743TIP3    H268115   2.101   3.791   0.141
22744TIP3   OH268116   2.256   4.262   0.718
22744TIP3    H168117   2.317   4.189   0.723
22744TIP3    H268118   2.193   4.237   0.650
22745TIP3   OH268119   2.010   3.654   0.206
22745TIP3    H168120   2.088   3.603   0.229
22745TIP3    H268121   1.941   3.589   0.194
22746TIP3   OH268122   2.109   3.888   0.650
22746TIP3    H168123   2.089   3.803   0.611
22746TIP3    H268124   2.165   3.932   0.586
22747TIP3   OH268125   2.191   3.646   0.827
22747TIP3    H168126   2.280   3.616   0.847
22747TIP3    H268127   2.141   3.565   0.816
22748TIP3   OH268128   0.915   3.672   1.505
22748TIP3    H168129   0.940   3.583   1.530
22748TIP3    H268130   0.963   3.728   1.565
22749TIP3   OH268131   2.264   3.567   0.271
22749TIP3    H168132   2.288   3.478   0.243
22749TIP3    H268133   2.271   3.565   0.366
22750TIP3   OH268134   0.723   3.490   1.142
22750TIP3    H168135   0.637   3.449   1.153
22750TIP3    H268136   0.729   3.507   1.048
22751TIP3   OH268137   1.871   3.624   1.337
22751TIP3    H168138   1.805   3.644   1.404
22751TIP3    H268139   1.829   3.560   1.281
22752TIP3   OH268140   2.353   3.548   1.318
22752TIP3    H168141   2.349   3.636   1.355
22752TIP3    H268142   2.267   3.535   1.278
22753TIP3   OH268143   2.465   3.600   0.902
22753TIP3    H168144   2.512   3.541   0.961
22753TIP3    H268145   2.422   3.664   0.959
22754TIP3   OH268146   1.000   3.317   1.290
22754TIP3    H168147   0.910   3.288   1.304
22754TIP3    H268148   1.035   3.256   1.225
22755TIP3   OH268149   0.798   3.218   0.898
22755TIP3    H168150   0.836   3.269   0.827
22755TIP3    H268151   0.872   3.198   0.956
22756TIP3   OH268152   1.468   3.358   1.140
22756TIP3    H168153   1.514   3.395   1.065
22756TIP3    H268154   1.513   3.394   1.216
22757TIP3   OH268155   2.121   3.563   1.179
22757TIP3    H168156   2.074   3.643   1.154
22757TIP3    H268157   2.095   3.499   1.114
22758TIP3   OH268158   2.089   3.408   0.740
22758TIP3    H168159   2.027   3.379   0.673
22758TIP3    H268160   2.084   3.340   0.808
22759TIP3   OH268161   0.925   3.362   0.691
22759TIP3    H168162   0.987   3.306   0.644
22759TIP3    H268163   0.980   3.425   0.736
22760TIP3   OH268164   1.358   3.525   0.763
22760TIP3    H168165   1.401   3.441   0.778
22760TIP3    H268166   1.419   3.590   0.798
22761TIP3   OH268167   1.285   5.051   0.321
22761TIP3    H168168   1.333   5.012   0.249
22761TIP3    H268169   1.271   4.979   0.383
22762TIP3   OH268170   2.523   4.246   0.551
22762TIP3    H168171   2.571   4.196   0.617
22762TIP3    H268172   2.449   4.190   0.527
22763TIP3   OH268173   6.555   8.585   7.896
22763TIP3    H168174   6.583   8.604   7.986
22763TIP3    H268175   6.565   8.490   7.888
22764TIP3   OH268176   6.259   8.420   7.897
22764TIP3    H168177   6.238   8.489   7.960
22764TIP3    H268178   6.187   8.423   7.834
22765TIP3   OH268179   2.581   3.880   0.885
22765TIP3    H168180   2.634   3.814   0.929
22765TIP3    H268181   2.539   3.833   0.813
22766TIP3   OH268182   2.509   3.859   0.383
22766TIP3    H168183   2.554   3.786   0.343
22766TIP3    H268184   2.571   3.932   0.379
22767TIP3   OH268185   2.937   4.043   0.035
22767TIP3    H168186   2.860   4.041  -0.021
22767TIP3    H268187   2.991   4.114  -0.002
22768TIP3   OH268188   2.498   4.264   0.123
22768TIP3    H168189   2.556   4.290   0.195
22768TIP3    H268190   2.437   4.202   0.163
22769TIP3   OH268191   2.992   3.945   0.296
22769TIP3    H168192   2.976   4.012   0.229
22769TIP3    H268193   3.039   3.875   0.250
22770TIP3   OH268194   2.607   4.003   0.081
22770TIP3    H168195   2.626   4.056   0.158
22770TIP3    H268196   2.512   3.990   0.084
22771TIP3   OH268197   6.012   9.081   7.745
22771TIP3    H168198   6.010   8.999   7.795
22771TIP3    H268199   6.102   9.113   7.753
22772TIP3   OH268200   6.358   8.865   7.836
22772TIP3    H168201   6.282   8.886   7.782
22772TIP3    H268202   6.430   8.854   7.774
22773TIP3   OH268203   8.845   0.041   7.940
22773TIP3    H168204   8.881   0.033   8.029
22773TIP3    H268205   8.851  -0.047   7.904
22774TIP3   OH268206   2.465   3.781   0.644
22774TIP3    H168207   2.402   3.710   0.632
22774TIP3    H268208   2.495   3.802   0.556
22775TIP3   OH268209   2.811   3.446   0.579
22775TIP3    H168210   2.781   3.520   0.633
22775TIP3    H268211   2.899   3.428   0.612
22776TIP3   OH268212   2.585   3.565   0.399
22776TIP3    H168213   2.680   3.578   0.405
22776TIP3    H268214   2.561   3.526   0.483
22777TIP3   OH268215   2.709   3.561   0.111
22777TIP3    H168216   2.754   3.537   0.030
22777TIP3    H268217   2.744   3.648   0.132
22778TIP3   OH268218   8.255   0.864   7.835
22778TIP3    H168219   8.343   0.835   7.812
22778TIP3    H268220   8.197   0.806   7.785
22779TIP3   OH268221   1.567   5.420   0.344
22779TIP3    H168222   1.548   5.458   0.258
22779TIP3    H268223   1.480   5.400   0.381
   9.80000   9.23953   8.00167   0.00000   0.00000  -3.26667   0.00000  -3.26667  -4.61976
