Title t= 233.00000 step= 116500
29212
    1ASP      N    1   2.090   1.057   2.744
    1ASP    HT1    2   2.159   0.979   2.733
    1ASP    HT2    3   2.015   1.035   2.813
    1ASP    HT3    4   2.146   1.139   2.776
    1ASP     CA    5   2.025   1.096   2.617
    1ASP     HA    6   2.105   1.125   2.550
    1ASP     CB    7   1.941   0.979   2.556
    1ASP    HB1    8   1.891   1.000   2.459
    1ASP    HB2    9   1.872   0.941   2.635
    1ASP     CG   10   2.027   0.865   2.518
    1ASP    OD1   11   2.148   0.870   2.549
    1ASP    OD2   12   1.982   0.762   2.457
    1ASP      C   13   1.929   1.211   2.634
    1ASP      O   14   1.904   1.258   2.748
    2GLY      N   15   1.883   1.274   2.523
    2GLY     HN   16   1.916   1.258   2.431
    2GLY     CA   17   1.774   1.367   2.524
    2GLY    HA1   18   1.785   1.438   2.443
    2GLY    HA2   19   1.759   1.409   2.623
    2GLY      C   20   1.646   1.293   2.485
    2GLY      O   21   1.647   1.181   2.429
    3ASP      N   22   1.524   1.357   2.506
    3ASP     HN   23   1.514   1.440   2.560
    3ASP     CA   24   1.397   1.328   2.451
    3ASP     HA   25   1.411   1.269   2.361
    3ASP     CB   26   1.311   1.231   2.541
    3ASP    HB1   27   1.203   1.245   2.519
    3ASP    HB2   28   1.327   1.261   2.647
    3ASP     CG   29   1.357   1.086   2.534
    3ASP    OD1   30   1.359   1.019   2.640
    3ASP    OD2   31   1.382   1.031   2.425
    3ASP      C   32   1.326   1.456   2.423
    3ASP      O   33   1.375   1.558   2.472
    4GLY      N   34   1.222   1.461   2.342
    4GLY     HN   35   1.194   1.383   2.287
    4GLY     CA   36   1.147   1.579   2.308
    4GLY    HA1   37   1.111   1.557   2.209
    4GLY    HA2   38   1.215   1.662   2.319
    4GLY      C   39   1.027   1.600   2.392
    4GLY      O   40   0.980   1.507   2.454
    5PRO      N   41   0.969   1.720   2.389
    5PRO     CD   42   1.038   1.841   2.392
    5PRO    HD1   43   1.070   1.859   2.287
    5PRO    HD2   44   1.135   1.833   2.445
    5PRO     CA   45   0.830   1.741   2.435
    5PRO     HA   46   0.834   1.716   2.540
    5PRO     CB   47   0.808   1.891   2.417
    5PRO    HB1   48   0.731   1.930   2.488
    5PRO    HB2   49   0.770   1.919   2.316
    5PRO     CG   50   0.944   1.948   2.438
    5PRO    HG1   51   0.955   2.043   2.380
    5PRO    HG2   52   0.958   1.970   2.546
    5PRO      C   53   0.721   1.654   2.383
    5PRO      O   54   0.721   1.620   2.262
    6GLY      N   55   0.626   1.625   2.472
    6GLY     HN   56   0.647   1.639   2.569
    6GLY     CA   57   0.486   1.596   2.439
    6GLY    HA1   58   0.471   1.491   2.461
    6GLY    HA2   59   0.471   1.625   2.336
    6GLY      C   60   0.409   1.704   2.526
    6GLY      O   61   0.468   1.804   2.562
    7ASP      N   62   0.281   1.683   2.548
    7ASP     HN   63   0.238   1.596   2.523
    7ASP     CA   64   0.193   1.772   2.620
    7ASP     HA   65   0.212   1.861   2.562
    7ASP     CB   66   0.038   1.751   2.616
    7ASP    HB1   67  -0.022   1.806   2.691
    7ASP    HB2   68   0.016   1.643   2.628
    7ASP     CG   69   7.178   1.800   2.490
    7ASP    OD1   70   7.054   1.797   2.481
    7ASP    OD2   71   0.037   1.826   2.389
    7ASP      C   72   0.251   1.799   2.758
    7ASP      O   73   0.279   1.698   2.824
    8PRO      N   74   0.270   1.920   2.807
    8PRO     CD   75   0.215   2.041   2.748
    8PRO    HD1   76   0.104   2.043   2.749
    8PRO    HD2   77   0.256   2.063   2.647
    8PRO     CA   78   0.340   1.964   2.935
    8PRO     HA   79   0.445   1.972   2.910
    8PRO     CB   80   0.281   2.104   2.966
    8PRO    HB1   81   0.360   2.162   3.019
    8PRO    HB2   82   0.177   2.090   3.000
    8PRO     CG   83   0.265   2.158   2.827
    8PRO    HG1   84   0.190   2.239   2.812
    8PRO    HG2   85   0.365   2.189   2.790
    8PRO      C   86   0.331   1.872   3.052
    8PRO      O   87   0.221   1.843   3.095
    9GLY      N   88   0.444   1.823   3.102
    9GLY     HN   89   0.527   1.860   3.063
    9GLY     CA   90   0.463   1.737   3.216
    9GLY    HA1   91   0.543   1.672   3.182
    9GLY    HA2   92   0.368   1.694   3.243
    9GLY      C   93   0.511   1.810   3.339
    9GLY      O   94   0.484   1.930   3.352
   10ASP      N   95   0.583   1.744   3.420
   10ASP     HN   96   0.599   1.647   3.403
   10ASP     CA   97   0.650   1.787   3.542
   10ASP     HA   98   0.572   1.848   3.586
   10ASP     CB   99   0.699   1.672   3.627
   10ASP    HB1  100   0.756   1.709   3.714
   10ASP    HB2  101   0.763   1.601   3.571
   10ASP     CG  102   0.590   1.583   3.690
   10ASP    OD1  103   0.632   1.491   3.763
   10ASP    OD2  104   0.469   1.597   3.666
   10ASP      C  105   0.760   1.891   3.514
   10ASP      O  106   0.784   1.979   3.597
   11GLY      N  107   0.825   1.885   3.393
   11GLY     HN  108   0.804   1.808   3.333
   11GLY     CA  109   0.912   1.986   3.343
   11GLY    HA1  110   0.897   2.083   3.386
   11GLY    HA2  111   0.895   1.989   3.236
   11GLY      C  112   1.061   1.946   3.363
   11GLY    OT1  113   1.119   1.864   3.289
   11GLY    OT2  114   1.123   1.997   3.465
   12LIT    LIT  115   5.401   5.656   2.111
   13LIT    LIT  116   2.929   2.669   5.443
   14LIT    LIT  117   4.831   0.291   0.356
   15LIT    LIT  118   3.259   2.095   3.227
   16LIT    LIT  119   1.270   1.865   3.424
   17LIT    LIT  120   2.218   5.686   5.540
   18LIT    LIT  121   1.979   0.990   4.814
   19LIT    LIT  122   5.047   0.075   1.132
   20LIT    LIT  123   0.365   3.618   3.040
   21LIT    LIT  124   2.456   0.751   4.886
   22LIT    LIT  125   3.455   5.077   0.161
   23LIT    LIT  126   4.046   4.265   5.824
   24LIT    LIT  127   0.089   4.578   2.431
   25LIT    LIT  128   6.900   1.823   2.344
   26LIT    LIT  129   0.466   1.434   3.803
   27LIT    LIT  130   4.005   1.312   4.502
   28LIT    LIT  131   7.012   5.276   5.850
   29LIT    LIT  132   0.522   2.857   2.676
   30LIT    LIT  133   6.529   2.464   1.513
   31LIT    LIT  134   4.464   1.072   2.345
   32LIT    LIT  135   5.958   1.452   0.559
   33LIT    LIT  136   4.105   3.637   1.855
   34LIT    LIT  137   5.357   1.843   4.995
   35LIT    LIT  138   1.000   1.853   1.539
   36LIT    LIT  139   4.165   2.758   5.698
   37LIT    LIT  140   3.817   4.673   1.330
   38LIT    LIT  141   6.231   0.880   5.746
   39LIT    LIT  142   2.124   0.666   2.379
   40LIT    LIT  143   5.462   0.506   2.752
   41LIT    LIT  144   3.738   1.553   3.979
   42LIT    LIT  145   1.565   0.988   2.430
   43CLA    CLA  146   5.476   0.580   2.534
   44CLA    CLA  147   0.066   1.980   3.858
   45CLA    CLA  148   3.120   1.974   5.107
   46CLA    CLA  149   5.134   4.603   0.201
   47CLA    CLA  150   6.130   1.223   1.844
   48CLA    CLA  151   3.400   3.299   4.690
   49CLA    CLA  152   4.425   3.990   2.145
   50CLA    CLA  153   4.970   6.412   0.331
   51CLA    CLA  154   5.743   1.831   0.307
   52CLA    CLA  155   2.072   1.623   1.391
   53CLA    CLA  156   4.877   3.724   2.997
   54CLA    CLA  157   4.636   2.378   2.507
   55CLA    CLA  158   0.473   2.507   4.736
   56CLA    CLA  159   0.432   3.009   1.518
   57CLA    CLA  160   6.281   0.507   3.790
   58CLA    CLA  161   3.955   3.493   1.757
   59CLA    CLA  162   6.326   5.035   4.222
   60CLA    CLA  163   1.942   1.602   5.018
   61CLA    CLA  164   2.536   0.156   0.361
   62CLA    CLA  165   2.771   6.048   0.850
   63CLA    CLA  166   1.854   1.026   3.253
   64CLA    CLA  167   3.796   1.899   0.422
   65CLA    CLA  168   6.339   4.151   2.780
   66CLA    CLA  169   1.692   1.125   4.472
   67CLA    CLA  170   5.414   3.095   1.810
   68CLA    CLA  171   1.763   2.540   1.874
   69CLA    CLA  172   4.589   4.564   0.820
   70TIP3   OH2  173   1.176   5.899   5.729
   70TIP3    H1  174   1.111   5.943   5.674
   70TIP3    H2  175   1.251   5.886   5.672
   71TIP3   OH2  176   2.001   6.738   4.083
   71TIP3    H1  177   1.964   6.733   4.171
   71TIP3    H2  178   1.929   6.773   4.030
   72TIP3   OH2  179   5.384   5.880   0.038
   72TIP3    H1  180   5.345   5.870  -0.049
   72TIP3    H2  181   5.398   5.790   0.068
   73TIP3   OH2  182   4.197   3.291   1.469
   73TIP3    H1  183   4.260   3.363   1.471
   73TIP3    H2  184   4.220   3.237   1.545
   74TIP3   OH2  185   5.006   4.468   2.468
   74TIP3    H1  186   5.064   4.526   2.419
   74TIP3    H2  187   4.996   4.391   2.411
   75TIP3   OH2  188   4.487   4.330   1.635
   75TIP3    H1  189   4.531   4.412   1.609
   75TIP3    H2  190   4.451   4.296   1.553
   76TIP3   OH2  191   4.463   6.245   4.865
   76TIP3    H1  192   4.421   6.210   4.943
   76TIP3    H2  193   4.403   6.222   4.794
   77TIP3   OH2  194   3.543   2.431   2.157
   77TIP3    H1  195   3.593   2.378   2.219
   77TIP3    H2  196   3.527   2.513   2.204
   78TIP3   OH2  197   5.523   1.091   4.632
   78TIP3    H1  198   5.604   1.140   4.620
   78TIP3    H2  199   5.521   1.029   4.559
   79TIP3   OH2  200   1.445   4.771   5.692
   79TIP3    H1  201   1.424   4.680   5.709
   79TIP3    H2  202   1.364   4.819   5.712
   80TIP3   OH2  203   4.075   0.954   0.816
   80TIP3    H1  204   4.083   1.035   0.766
   80TIP3    H2  205   4.109   0.887   0.757
   81TIP3   OH2  206   6.463   1.787   4.442
   81TIP3    H1  207   6.556   1.780   4.463
   81TIP3    H2  208   6.450   1.729   4.367
   82TIP3   OH2  209   4.115   5.058   3.455
   82TIP3    H1  210   4.211   5.065   3.459
   82TIP3    H2  211   4.083   5.135   3.501
   83TIP3   OH2  212   6.458   3.354   1.743
   83TIP3    H1  213   6.427   3.435   1.783
   83TIP3    H2  214   6.379   3.309   1.715
   84TIP3   OH2  215   5.276   5.500   1.546
   84TIP3    H1  216   5.204   5.509   1.609
   84TIP3    H2  217   5.254   5.423   1.495
   85TIP3   OH2  218   4.749   1.799   3.255
   85TIP3    H1  219   4.730   1.756   3.171
   85TIP3    H2  220   4.777   1.727   3.312
   86TIP3   OH2  221   6.540   0.462   3.990
   86TIP3    H1  222   6.459   0.433   3.948
   86TIP3    H2  223   6.596   0.490   3.918
   87TIP3   OH2  224   3.229   0.861   2.522
   87TIP3    H1  225   3.141   0.826   2.506
   87TIP3    H2  226   3.214   0.944   2.566
   88TIP3   OH2  227   7.186   3.628   5.513
   88TIP3    H1  228   7.134   3.560   5.470
   88TIP3    H2  229   7.156   3.710   5.474
   89TIP3   OH2  230   0.946   4.697   3.183
   89TIP3    H1  231   0.945   4.787   3.149
   89TIP3    H2  232   0.911   4.704   3.271
   90TIP3   OH2  233   6.172   1.061   4.010
   90TIP3    H1  234   6.170   1.120   4.085
   90TIP3    H2  235   6.140   1.114   3.937
   91TIP3   OH2  236   0.362   2.606   3.995
   91TIP3    H1  237   0.361   2.514   4.023
   91TIP3    H2  238   0.409   2.652   4.064
   92TIP3   OH2  239   1.625   5.437   1.279
   92TIP3    H1  240   1.594   5.521   1.312
   92TIP3    H2  241   1.681   5.460   1.205
   93TIP3   OH2  242   0.579   4.243   4.037
   93TIP3    H1  243   0.537   4.201   4.112
   93TIP3    H2  244   0.543   4.198   3.961
   94TIP3   OH2  245   4.878   2.768   2.592
   94TIP3    H1  246   4.959   2.796   2.550
   94TIP3    H2  247   4.828   2.849   2.604
   95TIP3   OH2  248   1.499   5.355   5.819
   95TIP3    H1  249   1.405   5.333   5.819
   95TIP3    H2  250   1.536   5.303   5.889
   96TIP3   OH2  251   7.242   1.378   2.343
   96TIP3    H1  252   7.250   1.359   2.436
   96TIP3    H2  253   7.167   1.437   2.336
   97TIP3   OH2  254   6.078   0.482   5.612
   97TIP3    H1  255   6.104   0.531   5.535
   97TIP3    H2  256   6.004   0.428   5.583
   98TIP3   OH2  257   0.472   0.948   0.603
   98TIP3    H1  258   0.497   0.877   0.662
   98TIP3    H2  259   0.393   0.918   0.560
   99TIP3   OH2  260   1.000   3.817   1.043
   99TIP3    H1  261   0.941   3.892   1.052
   99TIP3    H2  262   0.959   3.747   1.094
  100TIP3   OH2  263   5.379   5.023   1.347
  100TIP3    H1  264   5.390   4.935   1.381
  100TIP3    H2  265   5.468   5.058   1.341
  101TIP3   OH2  266   2.272   3.577   4.066
  101TIP3    H1  267   2.188   3.578   4.112
  101TIP3    H2  268   2.325   3.641   4.113
  102TIP3   OH2  269   2.227   2.022   1.842
  102TIP3    H1  270   2.310   2.034   1.796
  102TIP3    H2  271   2.171   2.093   1.810
  103TIP3   OH2  272   5.589   5.704   2.083
  103TIP3    H1  273   5.635   5.671   2.005
  103TIP3    H2  274   5.642   5.779   2.111
  104TIP3   OH2  275   1.788   6.740   5.899
  104TIP3    H1  276   1.884   6.746   5.891
  104TIP3    H2  277   1.755   6.790   5.824
  105TIP3   OH2  278   5.604   4.914   1.590
  105TIP3    H1  279   5.699   4.899   1.593
  105TIP3    H2  280   5.571   4.840   1.538
  106TIP3   OH2  281   2.962   1.617   4.996
  106TIP3    H1  282   2.878   1.635   5.037
  106TIP3    H2  283   2.957   1.662   4.912
  107TIP3   OH2  284   4.873   0.836   1.683
  107TIP3    H1  285   4.798   0.834   1.742
  107TIP3    H2  286   4.871   0.924   1.645
  108TIP3   OH2  287   2.484   0.984   1.881
  108TIP3    H1  288   2.437   1.049   1.831
  108TIP3    H2  289   2.416   0.924   1.912
  109TIP3   OH2  290   0.364   6.577   1.437
  109TIP3    H1  291   0.386   6.662   1.477
  109TIP3    H2  292   0.296   6.598   1.373
  110TIP3   OH2  293   2.256   0.294   1.307
  110TIP3    H1  294   2.343   0.266   1.337
  110TIP3    H2  295   2.260   0.390   1.309
  111TIP3   OH2  296   1.472   3.197   3.169
  111TIP3    H1  297   1.387   3.174   3.130
  111TIP3    H2  298   1.521   3.115   3.170
  112TIP3   OH2  299   6.649   0.625   4.512
  112TIP3    H1  300   6.703   0.681   4.568
  112TIP3    H2  301   6.705   0.606   4.437
  113TIP3   OH2  302   0.162   0.380   2.419
  113TIP3    H1  303   0.215   0.347   2.346
  113TIP3    H2  304   0.096   0.436   2.377
  114TIP3   OH2  305   1.178   6.491   5.167
  114TIP3    H1  306   1.255   6.469   5.115
  114TIP3    H2  307   1.111   6.514   5.102
  115TIP3   OH2  308   3.750   0.666   5.064
  115TIP3    H1  309   3.788   0.615   4.993
  115TIP3    H2  310   3.655   0.660   5.051
  116TIP3   OH2  311   4.058   3.634   3.021
  116TIP3    H1  312   4.047   3.718   3.065
  116TIP3    H2  313   4.131   3.592   3.067
  117TIP3   OH2  314   2.930   5.644   1.410
  117TIP3    H1  315   2.917   5.736   1.431
  117TIP3    H2  316   2.938   5.642   1.315
  118TIP3   OH2  317   6.611   3.547   2.427
  118TIP3    H1  318   6.611   3.504   2.341
  118TIP3    H2  319   6.521   3.579   2.438
  119TIP3   OH2  320   5.542   3.690   5.430
  119TIP3    H1  321   5.628   3.715   5.396
  119TIP3    H2  322   5.498   3.773   5.447
  120TIP3   OH2  323   6.770   2.386   2.119
  120TIP3    H1  324   6.799   2.344   2.038
  120TIP3    H2  325   6.849   2.427   2.154
  121TIP3   OH2  326   1.944   0.336   1.658
  121TIP3    H1  327   1.999   0.412   1.640
  121TIP3    H2  328   1.890   0.361   1.733
  122TIP3   OH2  329   4.552   1.348   4.425
  122TIP3    H1  330   4.631   1.397   4.405
  122TIP3    H2  331   4.547   1.281   4.356
  123TIP3   OH2  332   1.591   6.357   4.486
  123TIP3    H1  333   1.534   6.313   4.423
  123TIP3    H2  334   1.532   6.415   4.534
  124TIP3   OH2  335   5.561   0.778   5.792
  124TIP3    H1  336   5.529   0.747   5.707
  124TIP3    H2  337   5.485   0.769   5.850
  125TIP3   OH2  338   5.814   1.457   2.524
  125TIP3    H1  339   5.735   1.488   2.481
  125TIP3    H2  340   5.838   1.527   2.585
  126TIP3   OH2  341   3.180   0.609   3.369
  126TIP3    H1  342   3.154   0.528   3.325
  126TIP3    H2  343   3.148   0.679   3.312
  127TIP3   OH2  344   4.747   6.604   5.792
  127TIP3    H1  345   4.683   6.540   5.823
  127TIP3    H2  346   4.795   6.559   5.722
  128TIP3   OH2  347   3.527   3.050   1.946
  128TIP3    H1  348   3.512   2.967   1.901
  128TIP3    H2  349   3.611   3.081   1.911
  129TIP3   OH2  350   1.516   2.188   3.594
  129TIP3    H1  351   1.503   2.124   3.664
  129TIP3    H2  352   1.475   2.149   3.517
  130TIP3   OH2  353   6.131   4.724   5.572
  130TIP3    H1  354   6.103   4.632   5.579
  130TIP3    H2  355   6.224   4.719   5.551
  131TIP3   OH2  356   4.618   2.659   0.318
  131TIP3    H1  357   4.559   2.626   0.386
  131TIP3    H2  358   4.564   2.663   0.240
  132TIP3   OH2  359   6.164   0.402   4.331
  132TIP3    H1  360   6.082   0.358   4.305
  132TIP3    H2  361   6.152   0.493   4.303
  133TIP3   OH2  362   5.887   1.050   2.524
  133TIP3    H1  363   5.899   1.133   2.569
  133TIP3    H2  364   5.958   0.994   2.556
  134TIP3   OH2  365   0.980   1.650   1.542
  134TIP3    H1  366   0.905   1.591   1.537
  134TIP3    H2  367   1.049   1.598   1.581
  135TIP3   OH2  368   4.705   5.139   2.158
  135TIP3    H1  369   4.672   5.072   2.218
  135TIP3    H2  370   4.781   5.175   2.202
  136TIP3   OH2  371   3.370   0.485   0.223
  136TIP3    H1  372   3.436   0.455   0.160
  136TIP3    H2  373   3.353   0.409   0.278
  137TIP3   OH2  374   2.615   1.580   0.326
  137TIP3    H1  375   2.525   1.601   0.302
  137TIP3    H2  376   2.657   1.665   0.341
  138TIP3   OH2  377   6.483   0.876   1.824
  138TIP3    H1  378   6.507   0.812   1.891
  138TIP3    H2  379   6.493   0.961   1.867
  139TIP3   OH2  380   7.194   2.424   4.285
  139TIP3    H1  381   7.136   2.449   4.357
  139TIP3    H2  382   7.223   2.336   4.307
  140TIP3   OH2  383   2.184   2.575   3.603
  140TIP3    H1  384   2.216   2.514   3.536
  140TIP3    H2  385   2.225   2.546   3.684
  141TIP3   OH2  386   0.743   1.106   2.216
  141TIP3    H1  387   0.679   1.110   2.287
  141TIP3    H2  388   0.820   1.066   2.256
  142TIP3   OH2  389   1.874   1.506   4.594
  142TIP3    H1  390   1.841   1.434   4.647
  142TIP3    H2  391   1.842   1.585   4.638
  143TIP3   OH2  392   0.164   5.346   2.077
  143TIP3    H1  393   0.172   5.436   2.109
  143TIP3    H2  394   0.211   5.293   2.142
  144TIP3   OH2  395   7.085   3.658   4.528
  144TIP3    H1  396   7.166   3.647   4.577
  144TIP3    H2  397   7.080   3.751   4.510
  145TIP3   OH2  398   1.475   2.814   0.023
  145TIP3    H1  399   1.406   2.839   0.085
  145TIP3    H2  400   1.493   2.722   0.042
  146TIP3   OH2  401   3.087   5.649   0.147
  146TIP3    H1  402   3.033   5.723   0.175
  146TIP3    H2  403   3.107   5.601   0.227
  147TIP3   OH2  404   3.579   0.921   3.332
  147TIP3    H1  405   3.674   0.923   3.319
  147TIP3    H2  406   3.568   0.916   3.427
  148TIP3   OH2  407   6.778   5.055   0.348
  148TIP3    H1  408   6.738   5.043   0.434
  148TIP3    H2  409   6.706   5.077   0.290
  149TIP3   OH2  410   5.049   5.924   2.819
  149TIP3    H1  411   4.999   5.907   2.898
  149TIP3    H2  412   4.983   5.932   2.750
  150TIP3   OH2  413   1.120   6.462   0.833
  150TIP3    H1  414   1.120   6.558   0.825
  150TIP3    H2  415   1.129   6.430   0.743
  151TIP3   OH2  416   1.590   5.379   2.887
  151TIP3    H1  417   1.594   5.306   2.826
  151TIP3    H2  418   1.615   5.341   2.972
  152TIP3   OH2  419   4.418   3.632   4.882
  152TIP3    H1  420   4.416   3.720   4.920
  152TIP3    H2  421   4.501   3.627   4.836
  153TIP3   OH2  422   1.334   1.922   4.170
  153TIP3    H1  423   1.424   1.894   4.188
  153TIP3    H2  424   1.281   1.844   4.186
  154TIP3   OH2  425   1.010   1.063   4.055
  154TIP3    H1  426   0.960   1.039   3.977
  154TIP3    H2  427   1.026   0.980   4.100
  155TIP3   OH2  428   1.404   2.843   0.355
  155TIP3    H1  429   1.420   2.750   0.366
  155TIP3    H2  430   1.464   2.886   0.416
  156TIP3   OH2  431   3.094   1.720   2.693
  156TIP3    H1  432   3.139   1.638   2.673
  156TIP3    H2  433   3.023   1.694   2.752
  157TIP3   OH2  434   6.719   5.862   2.426
  157TIP3    H1  435   6.713   5.770   2.452
  157TIP3    H2  436   6.809   5.887   2.446
  158TIP3   OH2  437   6.557   6.521   4.446
  158TIP3    H1  438   6.625   6.570   4.400
  158TIP3    H2  439   6.510   6.475   4.376
  159TIP3   OH2  440   4.748   1.279   2.289
  159TIP3    H1  441   4.837   1.268   2.255
  159TIP3    H2  442   4.736   1.373   2.296
  160TIP3   OH2  443   1.733   3.552   2.749
  160TIP3    H1  444   1.649   3.574   2.791
  160TIP3    H2  445   1.724   3.461   2.722
  161TIP3   OH2  446   3.433   3.806   1.845
  161TIP3    H1  447   3.529   3.802   1.846
  161TIP3    H2  448   3.406   3.714   1.845
  162TIP3   OH2  449   5.542   1.513   0.541
  162TIP3    H1  450   5.588   1.436   0.508
  162TIP3    H2  451   5.612   1.576   0.560
  163TIP3   OH2  452   3.440   1.129   3.016
  163TIP3    H1  453   3.412   1.071   3.086
  163TIP3    H2  454   3.536   1.127   3.020
  164TIP3   OH2  455   3.451   4.903   0.270
  164TIP3    H1  456   3.515   4.847   0.314
  164TIP3    H2  457   3.367   4.860   0.287
  165TIP3   OH2  458   5.025   2.240   4.193
  165TIP3    H1  459   5.072   2.324   4.192
  165TIP3    H2  460   5.091   2.176   4.219
  166TIP3   OH2  461   2.948   5.396   4.934
  166TIP3    H1  462   2.901   5.445   4.866
  166TIP3    H2  463   2.898   5.315   4.943
  167TIP3   OH2  464   6.073   1.205   4.234
  167TIP3    H1  465   6.010   1.274   4.253
  167TIP3    H2  466   6.092   1.164   4.319
  168TIP3   OH2  467   0.965   5.893   2.346
  168TIP3    H1  468   1.050   5.933   2.329
  168TIP3    H2  469   0.940   5.852   2.264
  169TIP3   OH2  470   7.081   4.519   2.187
  169TIP3    H1  471   7.016   4.537   2.119
  169TIP3    H2  472   7.047   4.442   2.233
  170TIP3   OH2  473   5.328   2.241   4.463
  170TIP3    H1  474   5.289   2.205   4.383
  170TIP3    H2  475   5.267   2.310   4.489
  171TIP3   OH2  476   0.630   2.841   1.325
  171TIP3    H1  477   0.724   2.838   1.341
  171TIP3    H2  478   0.595   2.889   1.400
  172TIP3   OH2  479   6.232   0.119   2.895
  172TIP3    H1  480   6.316   0.099   2.935
  172TIP3    H2  481   6.218   0.048   2.832
  173TIP3   OH2  482   0.369   1.999   3.689
  173TIP3    H1  483   0.291   2.014   3.743
  173TIP3    H2  484   0.350   1.917   3.642
  174TIP3   OH2  485   6.296   0.830   5.568
  174TIP3    H1  486   6.354   0.766   5.528
  174TIP3    H2  487   6.228   0.846   5.502
  175TIP3   OH2  488   3.743   6.113   1.538
  175TIP3    H1  489   3.739   6.203   1.507
  175TIP3    H2  490   3.652   6.085   1.544
  176TIP3   OH2  491   2.635   2.895   0.510
  176TIP3    H1  492   2.660   2.893   0.602
  176TIP3    H2  493   2.540   2.884   0.510
  177TIP3   OH2  494   4.300   5.185   4.822
  177TIP3    H1  495   4.370   5.137   4.778
  177TIP3    H2  496   4.343   5.227   4.896
  178TIP3   OH2  497   3.861   4.447   1.937
  178TIP3    H1  498   3.853   4.423   2.029
  178TIP3    H2  499   3.856   4.543   1.936
  179TIP3   OH2  500   4.526   4.469   0.106
  179TIP3    H1  501   4.560   4.387   0.141
  179TIP3    H2  502   4.604   4.517   0.077
  180TIP3   OH2  503   3.701   3.750   3.924
  180TIP3    H1  504   3.686   3.827   3.978
  180TIP3    H2  505   3.714   3.785   3.836
  181TIP3   OH2  506   5.468   1.301   2.209
  181TIP3    H1  507   5.551   1.313   2.163
  181TIP3    H2  508   5.448   1.208   2.198
  182TIP3   OH2  509   2.627   1.108   3.824
  182TIP3    H1  510   2.538   1.136   3.804
  182TIP3    H2  511   2.646   1.040   3.759
  183TIP3   OH2  512   2.140   4.873   4.079
  183TIP3    H1  513   2.123   4.965   4.094
  183TIP3    H2  514   2.190   4.870   3.997
  184TIP3   OH2  515   0.904   5.591   3.946
  184TIP3    H1  516   0.852   5.619   3.871
  184TIP3    H2  517   0.921   5.672   3.995
  185TIP3   OH2  518   4.901   5.506   5.106
  185TIP3    H1  519   4.931   5.465   5.025
  185TIP3    H2  520   4.980   5.546   5.144
  186TIP3   OH2  521   4.313   3.089   3.036
  186TIP3    H1  522   4.387   3.149   3.042
  186TIP3    H2  523   4.318   3.053   2.947
  187TIP3   OH2  524   4.061   5.467   4.972
  187TIP3    H1  525   4.142   5.472   5.022
  187TIP3    H2  526   4.089   5.469   4.880
  188TIP3   OH2  527   6.743   5.691   0.525
  188TIP3    H1  528   6.827   5.687   0.572
  188TIP3    H2  529   6.766   5.682   0.433
  189TIP3   OH2  530   6.845   3.298   4.792
  189TIP3    H1  531   6.782   3.349   4.843
  189TIP3    H2  532   6.822   3.207   4.810
  190TIP3   OH2  533   4.811   4.101   0.923
  190TIP3    H1  534   4.838   4.047   0.849
  190TIP3    H2  535   4.718   4.117   0.909
  191TIP3   OH2  536   4.557   1.471   3.102
  191TIP3    H1  537   4.541   1.565   3.103
  191TIP3    H2  538   4.647   1.461   3.132
  192TIP3   OH2  539   4.289   5.031   0.886
  192TIP3    H1  540   4.320   5.061   0.801
  192TIP3    H2  541   4.250   4.945   0.868
  193TIP3   OH2  542   4.328   0.801   4.208
  193TIP3    H1  543   4.247   0.767   4.169
  193TIP3    H2  544   4.398   0.759   4.158
  194TIP3   OH2  545   1.426   3.159   2.036
  194TIP3    H1  546   1.493   3.226   2.023
  194TIP3    H2  547   1.344   3.203   2.012
  195TIP3   OH2  548   6.515   0.041   3.524
  195TIP3    H1  549   6.527  -0.044   3.567
  195TIP3    H2  550   6.427   0.069   3.549
  196TIP3   OH2  551   1.373   1.536   5.385
  196TIP3    H1  552   1.364   1.535   5.289
  196TIP3    H2  553   1.351   1.447   5.412
  197TIP3   OH2  554   3.833   1.749   1.783
  197TIP3    H1  555   3.804   1.736   1.873
  197TIP3    H2  556   3.826   1.662   1.743
  198TIP3   OH2  557   1.855   5.791   0.191
  198TIP3    H1  558   1.793   5.851   0.149
  198TIP3    H2  559   1.921   5.774   0.124
  199TIP3   OH2  560   5.321   1.838   3.340
  199TIP3    H1  561   5.402   1.791   3.317
  199TIP3    H2  562   5.345   1.890   3.416
  200TIP3   OH2  563   2.776   3.009   2.197
  200TIP3    H1  564   2.792   2.935   2.256
  200TIP3    H2  565   2.821   3.082   2.239
  201TIP3   OH2  566   2.044   3.609   1.595
  201TIP3    H1  567   1.988   3.676   1.633
  201TIP3    H2  568   2.104   3.584   1.666
  202TIP3   OH2  569   0.676   4.070   2.293
  202TIP3    H1  570   0.683   4.165   2.282
  202TIP3    H2  571   0.587   4.056   2.325
  203TIP3   OH2  572   3.888   0.346   0.167
  203TIP3    H1  573   3.984   0.348   0.161
  203TIP3    H2  574   3.860   0.425   0.120
  204TIP3   OH2  575   1.108   2.163   2.040
  204TIP3    H1  576   1.118   2.164   1.945
  204TIP3    H2  577   1.059   2.083   2.058
  205TIP3   OH2  578   5.614   3.303   4.189
  205TIP3    H1  579   5.672   3.376   4.210
  205TIP3    H2  580   5.563   3.334   4.113
  206TIP3   OH2  581   2.091   2.546   0.805
  206TIP3    H1  582   2.008   2.552   0.853
  206TIP3    H2  583   2.130   2.463   0.834
  207TIP3   OH2  584   6.595   2.692   4.244
  207TIP3    H1  585   6.541   2.685   4.165
  207TIP3    H2  586   6.604   2.601   4.274
  208TIP3   OH2  587   5.950   5.744   5.553
  208TIP3    H1  588   5.920   5.773   5.639
  208TIP3    H2  589   5.977   5.653   5.567
  209TIP3   OH2  590   5.517   6.442   2.012
  209TIP3    H1  591   5.546   6.533   2.006
  209TIP3    H2  592   5.495   6.418   1.922
  210TIP3   OH2  593   6.896   4.647   4.349
  210TIP3    H1  594   6.847   4.565   4.355
  210TIP3    H2  595   6.851   4.696   4.280
  211TIP3   OH2  596   5.295   0.489   1.348
  211TIP3    H1  597   5.366   0.449   1.399
  211TIP3    H2  598   5.277   0.571   1.394
  212TIP3   OH2  599   2.435   4.728   0.468
  212TIP3    H1  600   2.440   4.636   0.494
  212TIP3    H2  601   2.350   4.737   0.426
  213TIP3   OH2  602   1.289   3.951   4.587
  213TIP3    H1  603   1.381   3.954   4.613
  213TIP3    H2  604   1.244   3.905   4.658
  214TIP3   OH2  605   6.840   2.524   3.691
  214TIP3    H1  606   6.934   2.505   3.694
  214TIP3    H2  607   6.804   2.459   3.631
  215TIP3   OH2  608   4.783   1.267   5.547
  215TIP3    H1  609   4.799   1.270   5.453
  215TIP3    H2  610   4.860   1.222   5.583
  216TIP3   OH2  611   0.077   2.552   3.514
  216TIP3    H1  612   0.108   2.472   3.555
  216TIP3    H2  613   0.109   2.547   3.424
  217TIP3   OH2  614   3.038   1.808   5.358
  217TIP3    H1  615   3.083   1.837   5.279
  217TIP3    H2  616   3.089   1.846   5.430
  218TIP3   OH2  617   6.916   1.811   5.050
  218TIP3    H1  618   6.994   1.759   5.031
  218TIP3    H2  619   6.843   1.759   5.016
  219TIP3   OH2  620   4.186   2.268   0.370
  219TIP3    H1  621   4.092   2.284   0.375
  219TIP3    H2  622   4.213   2.258   0.461
  220TIP3   OH2  623   4.592   6.735   2.479
  220TIP3    H1  624   4.681   6.770   2.469
  220TIP3    H2  625   4.543   6.772   2.405
  221TIP3   OH2  626   6.789   3.006   3.291
  221TIP3    H1  627   6.883   3.002   3.310
  221TIP3    H2  628   6.762   2.914   3.285
  222TIP3   OH2  629   6.582   6.224   2.233
  222TIP3    H1  630   6.616   6.192   2.317
  222TIP3    H2  631   6.601   6.153   2.172
  223TIP3   OH2  632   1.671   2.418   3.553
  223TIP3    H1  633   1.607   2.480   3.589
  223TIP3    H2  634   1.623   2.336   3.544
  224TIP3   OH2  635   1.972   6.187   4.774
  224TIP3    H1  636   2.001   6.141   4.853
  224TIP3    H2  637   1.916   6.123   4.729
  225TIP3   OH2  638   4.785   5.455   5.373
  225TIP3    H1  639   4.821   5.462   5.284
  225TIP3    H2  640   4.860   5.469   5.430
  226TIP3   OH2  641   6.166   2.993   0.125
  226TIP3    H1  642   6.232   3.044   0.173
  226TIP3    H2  643   6.115   3.059   0.078
  227TIP3   OH2  644   6.885   6.565   0.040
  227TIP3    H1  645   6.896   6.584  -0.053
  227TIP3    H2  646   6.804   6.610   0.064
  228TIP3   OH2  647   2.984   5.821   5.645
  228TIP3    H1  648   2.986   5.899   5.590
  228TIP3    H2  649   3.075   5.789   5.644
  229TIP3   OH2  650   2.660   6.505   3.199
  229TIP3    H1  651   2.737   6.448   3.194
  229TIP3    H2  652   2.696   6.591   3.224
  230TIP3   OH2  653   4.731   6.706   1.016
  230TIP3    H1  654   4.801   6.728   0.955
  230TIP3    H2  655   4.771   6.718   1.103
  231TIP3   OH2  656   5.126   0.889   2.214
  231TIP3    H1  657   5.075   0.882   2.295
  231TIP3    H2  658   5.201   0.832   2.227
  232TIP3   OH2  659   3.526   6.103   2.279
  232TIP3    H1  660   3.610   6.060   2.264
  232TIP3    H2  661   3.535   6.144   2.365
  233TIP3   OH2  662   1.461   3.490   4.247
  233TIP3    H1  663   1.527   3.529   4.190
  233TIP3    H2  664   1.453   3.400   4.217
  234TIP3   OH2  665   5.077   1.676   2.150
  234TIP3    H1  666   5.152   1.620   2.131
  234TIP3    H2  667   5.025   1.626   2.213
  235TIP3   OH2  668   5.143   4.167   4.206
  235TIP3    H1  669   5.169   4.229   4.137
  235TIP3    H2  670   5.099   4.096   4.158
  236TIP3   OH2  671   1.849   4.910   3.912
  236TIP3    H1  672   1.762   4.917   3.952
  236TIP3    H2  673   1.834   4.859   3.832
  237TIP3   OH2  674   6.309   0.626   0.450
  237TIP3    H1  675   6.321   0.541   0.407
  237TIP3    H2  676   6.368   0.685   0.403
  238TIP3   OH2  677   4.562   5.645   5.178
  238TIP3    H1  678   4.541   5.716   5.239
  238TIP3    H2  679   4.657   5.648   5.171
  239TIP3   OH2  680   5.825   6.444   1.671
  239TIP3    H1  681   5.757   6.488   1.722
  239TIP3    H2  682   5.777   6.399   1.602
  240TIP3   OH2  683   6.001   6.113   1.170
  240TIP3    H1  684   6.050   6.157   1.100
  240TIP3    H2  685   6.052   6.130   1.249
  241TIP3   OH2  686   3.074   4.878   1.585
  241TIP3    H1  687   3.018   4.818   1.535
  241TIP3    H2  688   3.090   4.951   1.526
  242TIP3   OH2  689   5.515   2.185   3.423
  242TIP3    H1  690   5.452   2.231   3.368
  242TIP3    H2  691   5.583   2.156   3.363
  243TIP3   OH2  692   0.431   0.570   0.228
  243TIP3    H1  693   0.412   0.478   0.209
  243TIP3    H2  694   0.394   0.618   0.154
  244TIP3   OH2  695   1.552   0.348   2.775
  244TIP3    H1  696   1.490   0.306   2.836
  244TIP3    H2  697   1.512   0.337   2.689
  245TIP3   OH2  698   0.997   4.593   3.503
  245TIP3    H1  699   0.937   4.534   3.548
  245TIP3    H2  700   0.945   4.671   3.486
  246TIP3   OH2  701   5.649   3.019   5.873
  246TIP3    H1  702   5.649   3.075   5.795
  246TIP3    H2  703   5.567   3.040   5.917
  247TIP3   OH2  704   5.876   3.454   2.296
  247TIP3    H1  705   5.839   3.366   2.287
  247TIP3    H2  706   5.826   3.508   2.235
  248TIP3   OH2  707   1.354   4.505   3.799
  248TIP3    H1  708   1.340   4.415   3.769
  248TIP3    H2  709   1.439   4.502   3.843
  249TIP3   OH2  710   6.561   6.113   3.600
  249TIP3    H1  711   6.654   6.135   3.597
  249TIP3    H2  712   6.551   6.057   3.677
  250TIP3   OH2  713   3.544   2.896   3.690
  250TIP3    H1  714   3.634   2.883   3.723
  250TIP3    H2  715   3.537   2.836   3.616
  251TIP3   OH2  716   1.448   3.413   0.909
  251TIP3    H1  717   1.411   3.502   0.906
  251TIP3    H2  718   1.435   3.379   0.821
  252TIP3   OH2  719   3.154   3.403   0.216
  252TIP3    H1  720   3.210   3.477   0.192
  252TIP3    H2  721   3.210   3.348   0.272
  253TIP3   OH2  722   4.058   4.618   1.714
  253TIP3    H1  723   4.098   4.647   1.796
  253TIP3    H2  724   4.101   4.535   1.694
  254TIP3   OH2  725   2.896   1.561   3.518
  254TIP3    H1  726   2.842   1.512   3.581
  254TIP3    H2  727   2.833   1.615   3.470
  255TIP3   OH2  728   3.305   3.923   1.236
  255TIP3    H1  729   3.218   3.894   1.265
  255TIP3    H2  730   3.366   3.879   1.296
  256TIP3   OH2  731   0.436   0.290   4.630
  256TIP3    H1  732   0.525   0.322   4.616
  256TIP3    H2  733   0.428   0.283   4.725
  257TIP3   OH2  734   4.461   4.749   0.619
  257TIP3    H1  735   4.464   4.715   0.708
  257TIP3    H2  736   4.543   4.798   0.610
  258TIP3   OH2  737   3.566   3.999   4.014
  258TIP3    H1  738   3.476   3.969   4.000
  258TIP3    H2  739   3.559   4.063   4.085
  259TIP3   OH2  740   3.628   4.001   2.992
  259TIP3    H1  741   3.590   4.046   3.068
  259TIP3    H2  742   3.718   3.982   3.019
  260TIP3   OH2  743   2.710   5.632   0.642
  260TIP3    H1  744   2.626   5.601   0.675
  260TIP3    H2  745   2.760   5.552   0.624
  261TIP3   OH2  746   0.961   1.876   2.786
  261TIP3    H1  747   1.023   1.945   2.763
  261TIP3    H2  748   1.001   1.833   2.861
  262TIP3   OH2  749   0.224   1.371   0.154
  262TIP3    H1  750   0.157   1.391   0.219
  262TIP3    H2  751   0.233   1.276   0.157
  263TIP3   OH2  752   5.819   0.856   5.640
  263TIP3    H1  753   5.736   0.842   5.684
  263TIP3    H2  754   5.814   0.803   5.561
  264TIP3   OH2  755   1.185   4.172   0.946
  264TIP3    H1  756   1.213   4.205   1.031
  264TIP3    H2  757   1.106   4.222   0.926
  265TIP3   OH2  758   5.997   3.796   1.021
  265TIP3    H1  759   6.059   3.778   0.951
  265TIP3    H2  760   5.992   3.892   1.025
  266TIP3   OH2  761   6.247   0.352   1.158
  266TIP3    H1  762   6.280   0.380   1.243
  266TIP3    H2  763   6.301   0.275   1.136
  267TIP3   OH2  764   1.739   2.643   0.199
  267TIP3    H1  765   1.736   2.645   0.294
  267TIP3    H2  766   1.649   2.624   0.172
  268TIP3   OH2  767   5.883   6.013   0.938
  268TIP3    H1  768   5.905   5.976   1.024
  268TIP3    H2  769   5.946   6.084   0.925
  269TIP3   OH2  770   2.247   5.984   5.258
  269TIP3    H1  771   2.203   6.043   5.197
  269TIP3    H2  772   2.241   5.898   5.217
  270TIP3   OH2  773   3.565   1.955   3.537
  270TIP3    H1  774   3.581   2.022   3.604
  270TIP3    H2  775   3.646   1.954   3.485
  271TIP3   OH2  776   6.076   0.778   3.074
  271TIP3    H1  777   6.083   0.682   3.068
  271TIP3    H2  778   6.065   0.807   2.984
  272TIP3   OH2  779   0.406   4.927   1.704
  272TIP3    H1  780   0.326   4.879   1.726
  272TIP3    H2  781   0.375   5.009   1.664
  273TIP3   OH2  782   2.011   1.717   2.935
  273TIP3    H1  783   1.917   1.717   2.953
  273TIP3    H2  784   2.050   1.764   3.010
  274TIP3   OH2  785   0.526   4.213   0.091
  274TIP3    H1  786   0.505   4.263   0.169
  274TIP3    H2  787   0.491   4.126   0.108
  275TIP3   OH2  788   5.326   5.750   0.396
  275TIP3    H1  789   5.232   5.762   0.403
  275TIP3    H2  790   5.336   5.664   0.355
  276TIP3   OH2  791   2.163   1.610   5.263
  276TIP3    H1  792   2.088   1.601   5.205
  276TIP3    H2  793   2.228   1.549   5.227
  277TIP3   OH2  794   6.173   0.640   5.298
  277TIP3    H1  795   6.125   0.717   5.329
  277TIP3    H2  796   6.182   0.654   5.204
  278TIP3   OH2  797   0.602   2.008   0.736
  278TIP3    H1  798   0.582   2.102   0.736
  278TIP3    H2  799   0.698   2.004   0.733
  279TIP3   OH2  800   6.758   2.195   2.477
  279TIP3    H1  801   6.681   2.165   2.524
  279TIP3    H2  802   6.766   2.288   2.500
  280TIP3   OH2  803   6.312   0.192   4.086
  280TIP3    H1  804   6.241   0.135   4.114
  280TIP3    H2  805   6.324   0.253   4.158
  281TIP3   OH2  806   2.286   0.092   3.146
  281TIP3    H1  807   2.297   0.016   3.088
  281TIP3    H2  808   2.191   0.106   3.149
  282TIP3   OH2  809   4.577   5.096   4.759
  282TIP3    H1  810   4.642   5.063   4.821
  282TIP3    H2  811   4.622   5.167   4.712
  283TIP3   OH2  812   1.064   0.951   1.579
  283TIP3    H1  813   0.981   0.914   1.611
  283TIP3    H2  814   1.101   0.996   1.655
  284TIP3   OH2  815   1.049   4.603   5.609
  284TIP3    H1  816   1.043   4.543   5.535
  284TIP3    H2  817   0.958   4.623   5.632
  285TIP3   OH2  818   2.368   1.544   4.242
  285TIP3    H1  819   2.376   1.492   4.322
  285TIP3    H2  820   2.275   1.543   4.222
  286TIP3   OH2  821   2.846   6.807   2.636
  286TIP3    H1  822   2.939   6.811   2.658
  286TIP3    H2  823   2.813   6.731   2.684
  287TIP3   OH2  824   3.929   6.644   4.278
  287TIP3    H1  825   3.954   6.660   4.187
  287TIP3    H2  826   3.977   6.711   4.328
  288TIP3   OH2  827   1.866   0.008   5.691
  288TIP3    H1  828   1.913   0.018   5.608
  288TIP3    H2  829   1.928   0.038   5.757
  289TIP3   OH2  830   2.840   3.321   4.991
  289TIP3    H1  831   2.782   3.389   5.026
  289TIP3    H2  832   2.928   3.350   5.012
  290TIP3   OH2  833   3.754   5.759   3.946
  290TIP3    H1  834   3.833   5.761   3.999
  290TIP3    H2  835   3.758   5.675   3.900
  291TIP3   OH2  836   0.521   5.776   5.007
  291TIP3    H1  837   0.471   5.694   5.000
  291TIP3    H2  838   0.494   5.814   5.091
  292TIP3   OH2  839   1.315   2.762   5.871
  292TIP3    H1  840   1.273   2.848   5.867
  292TIP3    H2  841   1.327   2.738   5.779
  293TIP3   OH2  842   5.818   1.659   2.704
  293TIP3    H1  843   5.799   1.680   2.796
  293TIP3    H2  844   5.771   1.724   2.653
  294TIP3   OH2  845   0.174   0.782   4.501
  294TIP3    H1  846   0.231   0.761   4.575
  294TIP3    H2  847   0.234   0.793   4.427
  295TIP3   OH2  848   1.407   0.859   1.368
  295TIP3    H1  849   1.444   0.894   1.287
  295TIP3    H2  850   1.452   0.907   1.438
  296TIP3   OH2  851   3.568   1.394   5.821
  296TIP3    H1  852   3.501   1.351   5.874
  296TIP3    H2  853   3.519   1.454   5.765
  297TIP3   OH2  854   3.993   2.133   3.009
  297TIP3    H1  855   4.069   2.191   3.006
  297TIP3    H2  856   3.930   2.174   2.950
  298TIP3   OH2  857   5.970   1.109   5.126
  298TIP3    H1  858   5.928   1.064   5.199
  298TIP3    H2  859   6.044   1.053   5.103
  299TIP3   OH2  860   3.979   4.044   2.731
  299TIP3    H1  861   3.887   4.071   2.724
  299TIP3    H2  862   4.015   4.060   2.644
  300TIP3   OH2  863   5.911   4.403   0.284
  300TIP3    H1  864   5.821   4.410   0.315
  300TIP3    H2  865   5.921   4.311   0.259
  301TIP3   OH2  866   1.253   3.022   0.205
  301TIP3    H1  867   1.288   2.956   0.264
  301TIP3    H2  868   1.178   2.980   0.163
  302TIP3   OH2  869   3.716   4.855   4.839
  302TIP3    H1  870   3.627   4.875   4.865
  302TIP3    H2  871   3.711   4.768   4.799
  303TIP3   OH2  872   0.266   5.169   4.651
  303TIP3    H1  873   0.341   5.224   4.671
  303TIP3    H2  874   0.304   5.089   4.615
  304TIP3   OH2  875   0.432   3.250   5.520
  304TIP3    H1  876   0.422   3.259   5.615
  304TIP3    H2  877   0.511   3.196   5.510
  305TIP3   OH2  878   0.207   4.793   5.450
  305TIP3    H1  879   0.148   4.778   5.524
  305TIP3    H2  880   0.207   4.710   5.403
  306TIP3   OH2  881   3.216   3.499   3.320
  306TIP3    H1  882   3.274   3.456   3.382
  306TIP3    H2  883   3.169   3.565   3.372
  307TIP3   OH2  884   5.011   3.781   0.497
  307TIP3    H1  885   5.003   3.844   0.569
  307TIP3    H2  886   4.931   3.793   0.446
  308TIP3   OH2  887   1.300   6.188   1.169
  308TIP3    H1  888   1.211   6.223   1.179
  308TIP3    H2  889   1.314   6.187   1.074
  309TIP3   OH2  890   0.537   0.344   1.591
  309TIP3    H1  891   0.616   0.310   1.632
  309TIP3    H2  892   0.513   0.420   1.644
  310TIP3   OH2  893   2.439   2.146   5.285
  310TIP3    H1  894   2.383   2.215   5.251
  310TIP3    H2  895   2.401   2.124   5.370
  311TIP3   OH2  896   5.625   6.194   1.694
  311TIP3    H1  897   5.561   6.152   1.637
  311TIP3    H2  898   5.702   6.138   1.689
  312TIP3   OH2  899   0.841   4.349   3.535
  312TIP3    H1  900   0.746   4.340   3.545
  312TIP3    H2  901   0.855   4.355   3.441
  313TIP3   OH2  902   1.425   0.913   1.719
  313TIP3    H1  903   1.381   0.995   1.698
  313TIP3    H2  904   1.518   0.930   1.701
  314TIP3   OH2  905   1.892   3.375   1.724
  314TIP3    H1  906   1.797   3.367   1.737
  314TIP3    H2  907   1.918   3.446   1.783
  315TIP3   OH2  908   5.412   3.617   3.240
  315TIP3    H1  909   5.364   3.641   3.319
  315TIP3    H2  910   5.344   3.612   3.172
  316TIP3   OH2  911   6.615   5.712   1.814
  316TIP3    H1  912   6.597   5.621   1.791
  316TIP3    H2  913   6.573   5.763   1.744
  317TIP3   OH2  914   1.838   4.134   3.912
  317TIP3    H1  915   1.768   4.195   3.934
  317TIP3    H2  916   1.891   4.129   3.991
  318TIP3   OH2  917   0.242   5.525   4.624
  318TIP3    H1  918   0.237   5.464   4.698
  318TIP3    H2  919   0.213   5.473   4.548
  319TIP3   OH2  920   3.136   1.857   1.436
  319TIP3    H1  921   3.095   1.864   1.349
  319TIP3    H2  922   3.216   1.806   1.420
  320TIP3   OH2  923   6.079   1.884   1.738
  320TIP3    H1  924   6.067   1.962   1.684
  320TIP3    H2  925   6.011   1.823   1.710
  321TIP3   OH2  926   0.304   6.739   5.551
  321TIP3    H1  927   0.268   6.651   5.537
  321TIP3    H2  928   0.374   6.726   5.616
  322TIP3   OH2  929   2.695   4.669   3.959
  322TIP3    H1  930   2.746   4.741   3.997
  322TIP3    H2  931   2.626   4.712   3.909
  323TIP3   OH2  932   2.121   3.058   1.019
  323TIP3    H1  933   2.202   3.036   1.064
  323TIP3    H2  934   2.100   3.146   1.048
  324TIP3   OH2  935   0.211   3.933   3.107
  324TIP3    H1  936   0.148   3.927   3.035
  324TIP3    H2  937   0.285   3.981   3.071
  325TIP3   OH2  938   2.218   6.286   2.624
  325TIP3    H1  939   2.217   6.270   2.719
  325TIP3    H2  940   2.308   6.311   2.605
  326TIP3   OH2  941   6.897   3.379   0.378
  326TIP3    H1  942   6.826   3.423   0.332
  326TIP3    H2  943   6.944   3.449   0.423
  327TIP3   OH2  944   1.141   1.442   0.837
  327TIP3    H1  945   1.117   1.377   0.903
  327TIP3    H2  946   1.120   1.526   0.877
  328TIP3   OH2  947   3.354   2.949   3.056
  328TIP3    H1  948   3.422   2.992   3.004
  328TIP3    H2  949   3.396   2.927   3.138
  329TIP3   OH2  950   1.854   6.417   3.082
  329TIP3    H1  951   1.874   6.500   3.123
  329TIP3    H2  952   1.772   6.389   3.121
  330TIP3   OH2  953   3.793   0.600   0.940
  330TIP3    H1  954   3.862   0.542   0.972
  330TIP3    H2  955   3.716   0.544   0.933
  331TIP3   OH2  956   2.631   1.366   1.773
  331TIP3    H1  957   2.713   1.320   1.755
  331TIP3    H2  958   2.649   1.457   1.751
  332TIP3   OH2  959   5.362   1.684   2.987
  332TIP3    H1  960   5.354   1.647   2.899
  332TIP3    H2  961   5.339   1.776   2.977
  333TIP3   OH2  962   1.809  -0.024   2.139
  333TIP3    H1  963   1.750   0.025   2.081
  333TIP3    H2  964   1.885   0.033   2.150
  334TIP3   OH2  965   7.125   6.227   2.114
  334TIP3    H1  966   7.203   6.270   2.149
  334TIP3    H2  967   7.069   6.299   2.083
  335TIP3   OH2  968   5.666   4.231   0.071
  335TIP3    H1  969   5.634   4.240   0.161
  335TIP3    H2  970   5.614   4.160   0.034
  336TIP3   OH2  971   2.874   4.818   4.108
  336TIP3    H1  972   2.950   4.761   4.113
  336TIP3    H2  973   2.893   4.890   4.167
  337TIP3   OH2  974   7.178   1.343   2.000
  337TIP3    H1  975   7.162   1.432   2.034
  337TIP3    H2  976   7.092   1.303   1.997
  338TIP3   OH2  977   1.400   0.352   2.536
  338TIP3    H1  978   1.405   0.274   2.481
  338TIP3    H2  979   1.342   0.412   2.488
  339TIP3   OH2  980   3.706   6.290   2.022
  339TIP3    H1  981   3.755   6.295   1.940
  339TIP3    H2  982   3.671   6.201   2.024
  340TIP3   OH2  983   0.143   1.895   1.747
  340TIP3    H1  984   0.231   1.931   1.763
  340TIP3    H2  985   0.157   1.824   1.684
  341TIP3   OH2  986   6.319   5.449   1.336
  341TIP3    H1  987   6.370   5.514   1.384
  341TIP3    H2  988   6.358   5.447   1.249
  342TIP3   OH2  989   4.853   3.963   2.092
  342TIP3    H1  990   4.857   3.878   2.134
  342TIP3    H2  991   4.826   4.023   2.162
  343TIP3   OH2  992   0.299   0.091   2.459
  343TIP3    H1  993   0.289   0.180   2.427
  343TIP3    H2  994   0.353   0.099   2.538
  344TIP3   OH2  995   1.099   6.127   2.284
  344TIP3    H1  996   1.164   6.192   2.257
  344TIP3    H2  997   1.020   6.178   2.300
  345TIP3   OH2  998   1.105   2.042   0.117
  345TIP3    H1  999   1.170   1.982   0.155
  345TIP3    H2 1000   1.132   2.051   0.025
  346TIP3   OH2 1001   6.945   1.893   4.305
  346TIP3    H1 1002   7.031   1.904   4.263
  346TIP3    H2 1003   6.954   1.813   4.357
  347TIP3   OH2 1004   1.200   4.205   1.527
  347TIP3    H1 1005   1.128   4.205   1.464
  347TIP3    H2 1006   1.261   4.140   1.493
  348TIP3   OH2 1007   4.570   6.314   0.604
  348TIP3    H1 1008   4.611   6.240   0.559
  348TIP3    H2 1009   4.631   6.387   0.592
  349TIP3   OH2 1010   5.134   4.522   2.692
  349TIP3    H1 1011   5.214   4.561   2.657
  349TIP3    H2 1012   5.088   4.489   2.614
  350TIP3   OH2 1013   5.089   5.997   1.070
  350TIP3    H1 1014   5.094   6.085   1.034
  350TIP3    H2 1015   5.056   5.943   0.999
  351TIP3   OH2 1016   6.757   4.536   0.531
  351TIP3    H1 1017   6.770   4.523   0.437
  351TIP3    H2 1018   6.768   4.630   0.544
  352TIP3   OH2 1019   4.988   4.869   4.158
  352TIP3    H1 1020   5.077   4.877   4.191
  352TIP3    H2 1021   4.960   4.781   4.184
  353TIP3   OH2 1022   6.869   4.933   1.710
  353TIP3    H1 1023   6.829   4.999   1.652
  353TIP3    H2 1024   6.961   4.932   1.685
  354TIP3   OH2 1025   6.983   5.031   5.167
  354TIP3    H1 1026   6.947   5.029   5.079
  354TIP3    H2 1027   7.077   5.015   5.156
  355TIP3   OH2 1028   7.070   2.136   3.072
  355TIP3    H1 1029   6.979   2.109   3.080
  355TIP3    H2 1030   7.108   2.076   3.008
  356TIP3   OH2 1031   3.458   1.776   0.367
  356TIP3    H1 1032   3.528   1.727   0.323
  356TIP3    H2 1033   3.497   1.805   0.449
  357TIP3   OH2 1034   0.564   3.085   3.708
  357TIP3    H1 1035   0.490   3.033   3.740
  357TIP3    H2 1036   0.570   3.062   3.615
  358TIP3   OH2 1037   0.716   2.316   4.739
  358TIP3    H1 1038   0.738   2.316   4.832
  358TIP3    H2 1039   0.667   2.398   4.726
  359TIP3   OH2 1040   5.016   2.675   5.552
  359TIP3    H1 1041   5.013   2.675   5.648
  359TIP3    H2 1042   4.943   2.619   5.526
  360TIP3   OH2 1043   0.892   6.096   4.341
  360TIP3    H1 1044   0.825   6.060   4.399
  360TIP3    H2 1045   0.964   6.032   4.345
  361TIP3   OH2 1046   4.321   4.099   2.775
  361TIP3    H1 1047   4.315   4.172   2.713
  361TIP3    H2 1048   4.407   4.061   2.759
  362TIP3   OH2 1049   4.425   2.061   3.840
  362TIP3    H1 1050   4.365   2.135   3.841
  362TIP3    H2 1051   4.373   1.988   3.874
  363TIP3   OH2 1052   3.664   4.812   3.209
  363TIP3    H1 1053   3.725   4.839   3.278
  363TIP3    H2 1054   3.581   4.797   3.255
  364TIP3   OH2 1055   1.809   0.207   2.553
  364TIP3    H1 1056   1.773   0.204   2.465
  364TIP3    H2 1057   1.845   0.119   2.567
  365TIP3   OH2 1058   3.953   2.342   1.702
  365TIP3    H1 1059   3.903   2.382   1.773
  365TIP3    H2 1060   3.889   2.291   1.653
  366TIP3   OH2 1061   4.114   2.557   4.373
  366TIP3    H1 1062   4.075   2.639   4.404
  366TIP3    H2 1063   4.053   2.489   4.402
  367TIP3   OH2 1064   2.379   6.451   4.035
  367TIP3    H1 1065   2.353   6.539   4.009
  367TIP3    H2 1066   2.453   6.430   3.979
  368TIP3   OH2 1067   0.301   0.909   1.042
  368TIP3    H1 1068   0.304   0.869   1.129
  368TIP3    H2 1069   0.222   0.963   1.044
  369TIP3   OH2 1070   3.014   0.984   1.682
  369TIP3    H1 1071   2.979   0.984   1.593
  369TIP3    H2 1072   2.941   1.015   1.736
  370TIP3   OH2 1073   7.178   2.562   0.311
  370TIP3    H1 1074   7.090   2.579   0.346
  370TIP3    H2 1075   7.162   2.517   0.228
  371TIP3   OH2 1076   7.169   4.071   2.994
  371TIP3    H1 1077   7.084   4.087   2.954
  371TIP3    H2 1078   7.198   4.157   3.024
  372TIP3   OH2 1079   4.681   5.413   5.758
  372TIP3    H1 1080   4.593   5.443   5.736
  372TIP3    H2 1081   4.678   5.318   5.746
  373TIP3   OH2 1082   2.146   2.909   4.123
  373TIP3    H1 1083   2.065   2.890   4.074
  373TIP3    H2 1084   2.216   2.877   4.066
  374TIP3   OH2 1085   1.346   6.130   4.754
  374TIP3    H1 1086   1.307   6.043   4.760
  374TIP3    H2 1087   1.430   6.116   4.711
  375TIP3   OH2 1088   0.768   1.074   1.244
  375TIP3    H1 1089   0.740   1.160   1.277
  375TIP3    H2 1090   0.859   1.066   1.272
  376TIP3   OH2 1091   2.598   3.948   0.858
  376TIP3    H1 1092   2.540   3.899   0.916
  376TIP3    H2 1093   2.686   3.924   0.885
  377TIP3   OH2 1094   3.139   4.321   1.700
  377TIP3    H1 1095   3.078   4.363   1.761
  377TIP3    H2 1096   3.225   4.334   1.739
  378TIP3   OH2 1097   0.153   3.376   4.976
  378TIP3    H1 1098   0.157   3.397   5.070
  378TIP3    H2 1099   0.096   3.300   4.971
  379TIP3   OH2 1100   6.150   4.174   5.744
  379TIP3    H1 1101   6.181   4.214   5.825
  379TIP3    H2 1102   6.121   4.249   5.691
  380TIP3   OH2 1103   0.665   2.660   3.050
  380TIP3    H1 1104   0.749   2.697   3.079
  380TIP3    H2 1105   0.601   2.728   3.071
  381TIP3   OH2 1106   3.922   6.384   4.556
  381TIP3    H1 1107   3.949   6.369   4.465
  381TIP3    H2 1108   3.875   6.468   4.553
  382TIP3   OH2 1109   2.231   3.035   4.876
  382TIP3    H1 1110   2.196   3.002   4.794
  382TIP3    H2 1111   2.159   3.025   4.939
  383TIP3   OH2 1112   5.817   0.417   5.547
  383TIP3    H1 1113   5.722   0.415   5.560
  383TIP3    H2 1114   5.839   0.328   5.520
  384TIP3   OH2 1115   5.615   1.740   3.696
  384TIP3    H1 1116   5.558   1.793   3.640
  384TIP3    H2 1117   5.656   1.803   3.755
  385TIP3   OH2 1118   4.058   0.980   3.712
  385TIP3    H1 1119   4.140   1.015   3.677
  385TIP3    H2 1120   3.991   1.010   3.651
  386TIP3   OH2 1121   6.567   3.969   3.051
  386TIP3    H1 1122   6.502   4.024   3.095
  386TIP3    H2 1123   6.569   4.002   2.961
  387TIP3   OH2 1124   0.111   4.537   1.989
  387TIP3    H1 1125   0.020   4.565   1.994
  387TIP3    H2 1126   0.105   4.442   1.976
  388TIP3   OH2 1127   4.531   5.685   1.604
  388TIP3    H1 1128   4.544   5.637   1.685
  388TIP3    H2 1129   4.596   5.754   1.606
  389TIP3   OH2 1130   0.201   6.621   3.038
  389TIP3    H1 1131   0.146   6.664   2.972
  389TIP3    H2 1132   0.258   6.563   2.988
  390TIP3   OH2 1133   7.091   4.221   3.312
  390TIP3    H1 1134   7.045   4.291   3.358
  390TIP3    H2 1135   7.136   4.265   3.240
  391TIP3   OH2 1136   2.467   2.010   0.331
  391TIP3    H1 1137   2.445   1.939   0.270
  391TIP3    H2 1138   2.524   2.068   0.280
  392TIP3   OH2 1139   2.332   5.726   3.293
  392TIP3    H1 1140   2.352   5.810   3.251
  392TIP3    H2 1141   2.238   5.713   3.278
  393TIP3   OH2 1142   3.454   4.171   3.589
  393TIP3    H1 1143   3.476   4.079   3.604
  393TIP3    H2 1144   3.434   4.205   3.676
  394TIP3   OH2 1145   5.313   2.257   0.231
  394TIP3    H1 1146   5.297   2.347   0.202
  394TIP3    H2 1147   5.331   2.209   0.150
  395TIP3   OH2 1148   6.313   1.314   1.273
  395TIP3    H1 1149   6.268   1.286   1.352
  395TIP3    H2 1150   6.303   1.409   1.270
  396TIP3   OH2 1151   7.201   0.706   0.014
  396TIP3    H1 1152   7.163   0.635   0.065
  396TIP3    H2 1153   7.192   0.679  -0.077
  397TIP3   OH2 1154   1.336   1.341   4.018
  397TIP3    H1 1155   1.355   1.255   4.055
  397TIP3    H2 1156   1.244   1.335   3.990
  398TIP3   OH2 1157   2.464   2.261   5.728
  398TIP3    H1 1158   2.518   2.333   5.696
  398TIP3    H2 1159   2.486   2.253   5.821
  399TIP3   OH2 1160   5.152   5.516   2.382
  399TIP3    H1 1161   5.215   5.451   2.413
  399TIP3    H2 1162   5.118   5.478   2.301
  400TIP3   OH2 1163   3.739   2.475   2.790
  400TIP3    H1 1164   3.788   2.553   2.817
  400TIP3    H2 1165   3.737   2.419   2.868
  401TIP3   OH2 1166   3.655   1.333   3.230
  401TIP3    H1 1167   3.686   1.256   3.277
  401TIP3    H2 1168   3.675   1.315   3.138
  402TIP3   OH2 1169   0.946   4.627   2.032
  402TIP3    H1 1170   0.907   4.552   1.988
  402TIP3    H2 1171   0.887   4.700   2.013
  403TIP3   OH2 1172   6.886   1.399   0.616
  403TIP3    H1 1173   6.816   1.337   0.635
  403TIP3    H2 1174   6.936   1.405   0.698
  404TIP3   OH2 1175   0.194   1.959   3.348
  404TIP3    H1 1176   0.288   1.948   3.364
  404TIP3    H2 1177   0.178   1.913   3.266
  405TIP3   OH2 1178   5.903   3.301   1.020
  405TIP3    H1 1179   5.842   3.368   0.988
  405TIP3    H2 1180   5.872   3.220   0.982
  406TIP3   OH2 1181   0.587   2.978   5.189
  406TIP3    H1 1182   0.527   2.975   5.115
  406TIP3    H2 1183   0.639   3.057   5.174
  407TIP3   OH2 1184   2.704   5.315   4.013
  407TIP3    H1 1185   2.770   5.380   4.036
  407TIP3    H2 1186   2.632   5.366   3.976
  408TIP3   OH2 1187   3.586   4.346   2.664
  408TIP3    H1 1188   3.635   4.375   2.741
  408TIP3    H2 1189   3.616   4.256   2.650
  409TIP3   OH2 1190   4.635   0.301   0.326
  409TIP3    H1 1191   4.581   0.290   0.404
  409TIP3    H2 1192   4.573   0.326   0.258
  410TIP3   OH2 1193   5.223   0.128   5.114
  410TIP3    H1 1194   5.216   0.199   5.177
  410TIP3    H2 1195   5.313   0.096   5.124
  411TIP3   OH2 1196   5.623   3.328   5.674
  411TIP3    H1 1197   5.716   3.349   5.665
  411TIP3    H2 1198   5.600   3.288   5.591
  412TIP3   OH2 1199   6.832   4.104   4.444
  412TIP3    H1 1200   6.781   4.135   4.519
  412TIP3    H2 1201   6.768   4.061   4.387
  413TIP3   OH2 1202   1.179   3.978   2.354
  413TIP3    H1 1203   1.207   4.026   2.276
  413TIP3    H2 1204   1.241   3.905   2.360
  414TIP3   OH2 1205   3.984   2.056   0.233
  414TIP3    H1 1206   3.960   2.145   0.256
  414TIP3    H2 1207   3.941   2.002   0.300
  415TIP3   OH2 1208   5.723   1.818   1.427
  415TIP3    H1 1209   5.802   1.812   1.480
  415TIP3    H2 1210   5.674   1.739   1.447
  416TIP3   OH2 1211   6.022   1.948   1.449
  416TIP3    H1 1212   6.079   1.875   1.474
  416TIP3    H2 1213   6.030   1.953   1.353
  417TIP3   OH2 1214   2.124   3.611   0.516
  417TIP3    H1 1215   2.078   3.689   0.486
  417TIP3    H2 1216   2.117   3.615   0.612
  418TIP3   OH2 1217   3.535   1.863   4.039
  418TIP3    H1 1218   3.515   1.913   4.118
  418TIP3    H2 1219   3.452   1.857   3.992
  419TIP3   OH2 1220   6.739   5.897   1.025
  419TIP3    H1 1221   6.694   5.854   0.952
  419TIP3    H2 1222   6.674   5.955   1.063
  420TIP3   OH2 1223   6.262   1.269   3.261
  420TIP3    H1 1224   6.330   1.225   3.312
  420TIP3    H2 1225   6.250   1.354   3.303
  421TIP3   OH2 1226   4.356   1.539   4.439
  421TIP3    H1 1227   4.401   1.464   4.477
  421TIP3    H2 1228   4.364   1.528   4.344
  422TIP3   OH2 1229   0.045   5.868   0.844
  422TIP3    H1 1230  -0.033   5.884   0.792
  422TIP3    H2 1231   0.084   5.790   0.805
  423TIP3   OH2 1232   6.943   1.144   2.641
  423TIP3    H1 1233   6.960   1.087   2.565
  423TIP3    H2 1234   6.889   1.091   2.699
  424TIP3   OH2 1235   5.784   5.459   0.046
  424TIP3    H1 1236   5.699   5.443   0.004
  424TIP3    H2 1237   5.820   5.534   0.000
  425TIP3   OH2 1238   0.675   1.672   3.975
  425TIP3    H1 1239   0.766   1.686   4.000
  425TIP3    H2 1240   0.651   1.751   3.927
  426TIP3   OH2 1241   5.191   5.789   3.990
  426TIP3    H1 1242   5.123   5.856   3.979
  426TIP3    H2 1243   5.185   5.763   4.081
  427TIP3   OH2 1244   6.701   4.199   2.881
  427TIP3    H1 1245   6.669   4.251   2.954
  427TIP3    H2 1246   6.630   4.203   2.817
  428TIP3   OH2 1247   1.953   6.629   2.608
  428TIP3    H1 1248   1.905   6.599   2.531
  428TIP3    H2 1249   1.972   6.548   2.656
  429TIP3   OH2 1250   3.651   6.243   2.550
  429TIP3    H1 1251   3.705   6.293   2.488
  429TIP3    H2 1252   3.700   6.245   2.632
  430TIP3   OH2 1253   6.762   4.221   0.910
  430TIP3    H1 1254   6.743   4.264   0.993
  430TIP3    H2 1255   6.776   4.292   0.848
  431TIP3   OH2 1256   0.820   3.267   1.084
  431TIP3    H1 1257   0.819   3.207   1.009
  431TIP3    H2 1258   0.826   3.209   1.161
  432TIP3   OH2 1259   0.552   0.449   2.286
  432TIP3    H1 1260   0.589   0.447   2.198
  432TIP3    H2 1261   0.463   0.415   2.276
  433TIP3   OH2 1262   5.096   1.328   0.008
  433TIP3    H1 1263   5.121   1.237   0.025
  433TIP3    H2 1264   5.130   1.377   0.083
  434TIP3   OH2 1265   5.785   2.100   0.546
  434TIP3    H1 1266   5.741   2.073   0.465
  434TIP3    H2 1267   5.846   2.169   0.518
  435TIP3   OH2 1268   0.561   4.201   5.005
  435TIP3    H1 1269   0.517   4.275   4.964
  435TIP3    H2 1270   0.643   4.238   5.039
  436TIP3   OH2 1271   4.790   4.124   4.836
  436TIP3    H1 1272   4.735   4.199   4.817
  436TIP3    H2 1273   4.771   4.104   4.928
  437TIP3   OH2 1274   1.131   2.076   5.309
  437TIP3    H1 1275   1.129   2.166   5.276
  437TIP3    H2 1276   1.178   2.082   5.391
  438TIP3   OH2 1277   2.862   0.701   0.740
  438TIP3    H1 1278   2.808   0.671   0.814
  438TIP3    H2 1279   2.834   0.646   0.667
  439TIP3   OH2 1280   6.265   6.344   5.245
  439TIP3    H1 1281   6.251   6.251   5.266
  439TIP3    H2 1282   6.302   6.381   5.325
  440TIP3   OH2 1283   5.636   5.759   4.182
  440TIP3    H1 1284   5.722   5.725   4.204
  440TIP3    H2 1285   5.587   5.683   4.151
  441TIP3   OH2 1286   7.070   3.877   5.439
  441TIP3    H1 1287   6.991   3.874   5.493
  441TIP3    H2 1288   7.040   3.847   5.353
  442TIP3   OH2 1289   6.524   6.135   5.853
  442TIP3    H1 1290   6.508   6.177   5.938
  442TIP3    H2 1291   6.475   6.188   5.791
  443TIP3   OH2 1292   4.883   4.212   4.365
  443TIP3    H1 1293   4.805   4.183   4.319
  443TIP3    H2 1294   4.942   4.137   4.364
  444TIP3   OH2 1295   3.260   5.185   3.071
  444TIP3    H1 1296   3.335   5.144   3.114
  444TIP3    H2 1297   3.288   5.196   2.980
  445TIP3   OH2 1298   0.451   1.097   1.615
  445TIP3    H1 1299   0.361   1.070   1.635
  445TIP3    H2 1300   0.460   1.082   1.521
  446TIP3   OH2 1301   6.341   6.573   4.274
  446TIP3    H1 1302   6.337   6.629   4.352
  446TIP3    H2 1303   6.249   6.549   4.258
  447TIP3   OH2 1304   4.763   1.638   3.815
  447TIP3    H1 1305   4.817   1.682   3.881
  447TIP3    H2 1306   4.818   1.566   3.783
  448TIP3   OH2 1307   0.421   5.658   3.246
  448TIP3    H1 1308   0.476   5.735   3.260
  448TIP3    H2 1309   0.436   5.604   3.324
  449TIP3   OH2 1310   1.784   0.671   5.732
  449TIP3    H1 1311   1.837   0.642   5.807
  449TIP3    H2 1312   1.726   0.596   5.714
  450TIP3   OH2 1313   6.668   3.639   4.318
  450TIP3    H1 1314   6.693   3.550   4.341
  450TIP3    H2 1315   6.751   3.682   4.296
  451TIP3   OH2 1316   2.691   3.912   3.780
  451TIP3    H1 1317   2.665   4.001   3.759
  451TIP3    H2 1318   2.634   3.886   3.853
  452TIP3   OH2 1319   0.224   5.865   5.478
  452TIP3    H1 1320   0.158   5.923   5.441
  452TIP3    H2 1321   0.176   5.811   5.541
  453TIP3   OH2 1322   1.056   2.308   5.158
  453TIP3    H1 1323   1.113   2.359   5.101
  453TIP3    H2 1324   1.041   2.364   5.235
  454TIP3   OH2 1325   3.740   5.079   4.655
  454TIP3    H1 1326   3.778   5.018   4.591
  454TIP3    H2 1327   3.747   5.033   4.739
  455TIP3   OH2 1328   2.887   0.053   0.589
  455TIP3    H1 1329   2.805   0.016   0.556
  455TIP3    H2 1330   2.885   0.145   0.560
  456TIP3   OH2 1331   7.052   0.870   2.102
  456TIP3    H1 1332   7.039   0.776   2.098
  456TIP3    H2 1333   7.051   0.891   2.196
  457TIP3   OH2 1334   2.414   5.300   0.457
  457TIP3    H1 1335   2.355   5.319   0.384
  457TIP3    H2 1336   2.474   5.375   0.460
  458TIP3   OH2 1337   4.528   3.446   1.379
  458TIP3    H1 1338   4.537   3.481   1.291
  458TIP3    H2 1339   4.451   3.490   1.415
  459TIP3   OH2 1340   5.858   0.993   4.390
  459TIP3    H1 1341   5.912   0.932   4.339
  459TIP3    H2 1342   5.904   1.004   4.473
  460TIP3   OH2 1343   2.212   3.222   5.465
  460TIP3    H1 1344   2.230   3.152   5.403
  460TIP3    H2 1345   2.227   3.303   5.416
  461TIP3   OH2 1346   0.529   4.964   0.552
  461TIP3    H1 1347   0.551   4.988   0.642
  461TIP3    H2 1348   0.613   4.948   0.510
  462TIP3   OH2 1349   4.137   5.816   4.980
  462TIP3    H1 1350   4.148   5.737   5.034
  462TIP3    H2 1351   4.157   5.888   5.040
  463TIP3   OH2 1352   0.005   0.449   2.162
  463TIP3    H1 1353   0.059   0.519   2.126
  463TIP3    H2 1354  -0.001   0.385   2.092
  464TIP3   OH2 1355   4.117  -0.044   3.498
  464TIP3    H1 1356   4.202  -0.025   3.538
  464TIP3    H2 1357   4.089   0.040   3.460
  465TIP3   OH2 1358   6.024   6.594   3.912
  465TIP3    H1 1359   6.000   6.502   3.910
  465TIP3    H2 1360   5.947   6.638   3.948
  466TIP3   OH2 1361   1.882   6.456   4.515
  466TIP3    H1 1362   1.817   6.436   4.448
  466TIP3    H2 1363   1.856   6.402   4.590
  467TIP3   OH2 1364   5.673   2.473   0.600
  467TIP3    H1 1365   5.666   2.417   0.522
  467TIP3    H2 1366   5.590   2.461   0.645
  468TIP3   OH2 1367   7.021   6.334   4.020
  468TIP3    H1 1368   7.086   6.390   4.063
  468TIP3    H2 1369   7.050   6.245   4.039
  469TIP3   OH2 1370   4.595   2.250   3.658
  469TIP3    H1 1371   4.572   2.182   3.722
  469TIP3    H2 1372   4.650   2.311   3.708
  470TIP3   OH2 1373   1.710   4.883   3.615
  470TIP3    H1 1374   1.638   4.870   3.554
  470TIP3    H2 1375   1.677   4.947   3.678
  471TIP3   OH2 1376   5.256   1.509   2.050
  471TIP3    H1 1377   5.351   1.511   2.041
  471TIP3    H2 1378   5.238   1.429   2.099
  472TIP3   OH2 1379   6.546   3.737   5.541
  472TIP3    H1 1380   6.534   3.772   5.453
  472TIP3    H2 1381   6.463   3.697   5.563
  473TIP3   OH2 1382   5.674   2.465   1.306
  473TIP3    H1 1383   5.683   2.377   1.268
  473TIP3    H2 1384   5.580   2.473   1.324
  474TIP3   OH2 1385   3.914   0.093   0.895
  474TIP3    H1 1386   3.820   0.079   0.909
  474TIP3    H2 1387   3.923   0.099   0.800
  475TIP3   OH2 1388   3.857   2.447   1.161
  475TIP3    H1 1389   3.797   2.492   1.101
  475TIP3    H2 1390   3.925   2.411   1.104
  476TIP3   OH2 1391   6.432   0.338   4.313
  476TIP3    H1 1392   6.337   0.341   4.324
  476TIP3    H2 1393   6.458   0.429   4.301
  477TIP3   OH2 1394   6.022   4.792   2.674
  477TIP3    H1 1395   5.980   4.730   2.734
  477TIP3    H2 1396   5.949   4.843   2.638
  478TIP3   OH2 1397   2.667   6.194   3.384
  478TIP3    H1 1398   2.738   6.258   3.387
  478TIP3    H2 1399   2.634   6.200   3.294
  479TIP3   OH2 1400   2.582   4.892   5.217
  479TIP3    H1 1401   2.596   4.855   5.304
  479TIP3    H2 1402   2.620   4.980   5.222
  480TIP3   OH2 1403   6.349   0.787   5.866
  480TIP3    H1 1404   6.413   0.774   5.936
  480TIP3    H2 1405   6.357   0.709   5.811
  481TIP3   OH2 1406   4.627   0.701   3.121
  481TIP3    H1 1407   4.659   0.614   3.098
  481TIP3    H2 1408   4.662   0.759   3.054
  482TIP3   OH2 1409   6.307   2.984   2.563
  482TIP3    H1 1410   6.292   2.984   2.657
  482TIP3    H2 1411   6.306   2.891   2.539
  483TIP3   OH2 1412   6.622   4.324   2.315
  483TIP3    H1 1413   6.580   4.309   2.400
  483TIP3    H2 1414   6.642   4.418   2.315
  484TIP3   OH2 1415   5.914   3.294   4.820
  484TIP3    H1 1416   5.949   3.376   4.785
  484TIP3    H2 1417   5.820   3.309   4.824
  485TIP3   OH2 1418   4.075   0.868   5.107
  485TIP3    H1 1419   4.007   0.807   5.136
  485TIP3    H2 1420   4.029   0.951   5.093
  486TIP3   OH2 1421   6.146   5.090   4.942
  486TIP3    H1 1422   6.171   5.084   5.034
  486TIP3    H2 1423   6.053   5.113   4.945
  487TIP3   OH2 1424   3.892   5.994   3.725
  487TIP3    H1 1425   3.870   6.060   3.660
  487TIP3    H2 1426   3.818   5.933   3.723
  488TIP3   OH2 1427   3.432   1.523   3.791
  488TIP3    H1 1428   3.347   1.486   3.817
  488TIP3    H2 1429   3.424   1.537   3.697
  489TIP3   OH2 1430   4.027   2.374   4.748
  489TIP3    H1 1431   4.074   2.335   4.821
  489TIP3    H2 1432   4.017   2.467   4.772
  490TIP3   OH2 1433   2.468   6.816   1.190
  490TIP3    H1 1434   2.461   6.724   1.217
  490TIP3    H2 1435   2.380   6.851   1.200
  491TIP3   OH2 1436   3.204   6.285   1.453
  491TIP3    H1 1437   3.200   6.372   1.493
  491TIP3    H2 1438   3.124   6.279   1.401
  492TIP3   OH2 1439   2.217   5.296   5.738
  492TIP3    H1 1440   2.298   5.298   5.789
  492TIP3    H2 1441   2.225   5.217   5.684
  493TIP3   OH2 1442   1.769   1.498   5.258
  493TIP3    H1 1443   1.810   1.534   5.179
  493TIP3    H2 1444   1.695   1.447   5.225
  494TIP3   OH2 1445   3.722   2.443   1.421
  494TIP3    H1 1446   3.717   2.354   1.455
  494TIP3    H2 1447   3.782   2.437   1.347
  495TIP3   OH2 1448   2.187   1.828   0.906
  495TIP3    H1 1449   2.116   1.765   0.899
  495TIP3    H2 1450   2.181   1.861   0.996
  496TIP3   OH2 1451   5.599   5.770   2.738
  496TIP3    H1 1452   5.550   5.709   2.794
  496TIP3    H2 1453   5.559   5.760   2.651
  497TIP3   OH2 1454   0.019   5.739   2.850
  497TIP3    H1 1455  -0.011   5.683   2.921
  497TIP3    H2 1456   0.053   5.817   2.894
  498TIP3   OH2 1457   1.473   5.475   4.039
  498TIP3    H1 1458   1.555   5.448   3.997
  498TIP3    H2 1459   1.416   5.399   4.031
  499TIP3   OH2 1460   0.383   3.909   0.717
  499TIP3    H1 1461   0.473   3.902   0.749
  499TIP3    H2 1462   0.345   3.822   0.733
  500TIP3   OH2 1463   2.011   2.192   5.134
  500TIP3    H1 1464   2.007   2.194   5.038
  500TIP3    H2 1465   1.990   2.102   5.157
  501TIP3   OH2 1466   3.643   0.958   4.010
  501TIP3    H1 1467   3.681   0.935   3.925
  501TIP3    H2 1468   3.676   0.891   4.070
  502TIP3   OH2 1469   1.459   2.492   1.984
  502TIP3    H1 1470   1.553   2.501   1.967
  502TIP3    H2 1471   1.421   2.473   1.898
  503TIP3   OH2 1472   1.660   2.818   1.861
  503TIP3    H1 1473   1.571   2.814   1.897
  503TIP3    H2 1474   1.690   2.727   1.863
  504TIP3   OH2 1475   5.189   2.981   3.079
  504TIP3    H1 1476   5.194   3.066   3.035
  504TIP3    H2 1477   5.180   3.003   3.172
  505TIP3   OH2 1478   3.368   1.801   2.186
  505TIP3    H1 1479   3.276   1.802   2.214
  505TIP3    H2 1480   3.379   1.716   2.144
  506TIP3   OH2 1481   6.245   1.573   1.192
  506TIP3    H1 1482   6.164   1.579   1.244
  506TIP3    H2 1483   6.216   1.544   1.106
  507TIP3   OH2 1484   1.277   2.897   1.578
  507TIP3    H1 1485   1.368   2.921   1.594
  507TIP3    H2 1486   1.227   2.967   1.621
  508TIP3   OH2 1487   2.105   1.477   4.171
  508TIP3    H1 1488   2.083   1.509   4.084
  508TIP3    H2 1489   2.073   1.387   4.173
  509TIP3   OH2 1490   5.102   0.315   0.757
  509TIP3    H1 1491   5.149   0.236   0.729
  509TIP3    H2 1492   5.168   0.384   0.754
  510TIP3   OH2 1493   5.103   6.099   0.369
  510TIP3    H1 1494   5.058   6.183   0.372
  510TIP3    H2 1495   5.044   6.042   0.320
  511TIP3   OH2 1496   3.990   5.443   3.319
  511TIP3    H1 1497   3.993   5.377   3.250
  511TIP3    H2 1498   3.950   5.399   3.393
  512TIP3   OH2 1499   3.480   3.691   4.092
  512TIP3    H1 1500   3.544   3.701   4.022
  512TIP3    H2 1501   3.433   3.774   4.094
  513TIP3   OH2 1502   1.609   3.606   4.703
  513TIP3    H1 1503   1.696   3.568   4.716
  513TIP3    H2 1504   1.549   3.543   4.743
  514TIP3   OH2 1505   3.344   2.272   4.528
  514TIP3    H1 1506   3.252   2.249   4.515
  514TIP3    H2 1507   3.390   2.188   4.528
  515TIP3   OH2 1508   6.239   4.721   2.486
  515TIP3    H1 1509   6.264   4.630   2.506
  515TIP3    H2 1510   6.166   4.739   2.545
  516TIP3   OH2 1511   6.314   0.373   2.388
  516TIP3    H1 1512   6.360   0.442   2.435
  516TIP3    H2 1513   6.349   0.292   2.424
  517TIP3   OH2 1514   0.648   3.425   0.366
  517TIP3    H1 1515   0.657   3.482   0.443
  517TIP3    H2 1516   0.737   3.409   0.337
  518TIP3   OH2 1517   0.161   6.369   2.193
  518TIP3    H1 1518   0.208   6.438   2.238
  518TIP3    H2 1519   0.202   6.365   2.106
  519TIP3   OH2 1520   5.951   1.195   3.864
  519TIP3    H1 1521   5.902   1.129   3.815
  519TIP3    H2 1522   5.976   1.260   3.798
  520TIP3   OH2 1523   1.129   1.025   2.774
  520TIP3    H1 1524   1.081   1.026   2.691
  520TIP3    H2 1525   1.219   1.004   2.750
  521TIP3   OH2 1526   0.230   5.339   1.414
  521TIP3    H1 1527   0.277   5.386   1.345
  521TIP3    H2 1528   0.211   5.406   1.480
  522TIP3   OH2 1529   6.106   2.627   2.804
  522TIP3    H1 1530   6.113   2.533   2.819
  522TIP3    H2 1531   6.012   2.642   2.793
  523TIP3   OH2 1532   5.571   2.046   5.296
  523TIP3    H1 1533   5.601   1.999   5.373
  523TIP3    H2 1534   5.484   2.079   5.320
  524TIP3   OH2 1535   3.432   6.131   0.345
  524TIP3    H1 1536   3.354   6.089   0.382
  524TIP3    H2 1537   3.505   6.094   0.395
  525TIP3   OH2 1538   1.569   4.201   0.928
  525TIP3    H1 1539   1.501   4.142   0.961
  525TIP3    H2 1540   1.617   4.149   0.864
  526TIP3   OH2 1541   4.526   5.779   0.092
  526TIP3    H1 1542   4.516   5.729   0.010
  526TIP3    H2 1543   4.607   5.829   0.080
  527TIP3   OH2 1544   2.590   4.393   2.175
  527TIP3    H1 1545   2.631   4.421   2.257
  527TIP3    H2 1546   2.497   4.411   2.188
  528TIP3   OH2 1547   7.018   2.542   0.087
  528TIP3    H1 1548   7.036   2.581   0.001
  528TIP3    H2 1549   6.923   2.531   0.088
  529TIP3   OH2 1550   2.848   5.100   3.369
  529TIP3    H1 1551   2.899   5.093   3.450
  529TIP3    H2 1552   2.877   5.027   3.315
  530TIP3   OH2 1553   2.419   3.223   0.167
  530TIP3    H1 1554   2.411   3.235   0.072
  530TIP3    H2 1555   2.513   3.230   0.184
  531TIP3   OH2 1556   5.368   6.058   5.064
  531TIP3    H1 1557   5.290   6.108   5.040
  531TIP3    H2 1558   5.334   5.982   5.111
  532TIP3   OH2 1559   6.005   3.963   5.856
  532TIP3    H1 1560   5.951   3.957   5.778
  532TIP3    H2 1561   6.078   4.021   5.831
  533TIP3   OH2 1562   4.141   2.268   4.092
  533TIP3    H1 1563   4.198   2.337   4.059
  533TIP3    H2 1564   4.112   2.221   4.014
  534TIP3   OH2 1565   3.663   4.930   4.039
  534TIP3    H1 1566   3.633   5.021   4.040
  534TIP3    H2 1567   3.758   4.936   4.047
  535TIP3   OH2 1568   2.423   3.267   4.910
  535TIP3    H1 1569   2.348   3.207   4.906
  535TIP3    H2 1570   2.467   3.255   4.825
  536TIP3   OH2 1571   5.076   6.797   0.689
  536TIP3    H1 1572   5.168   6.804   0.663
  536TIP3    H2 1573   5.052   6.707   0.669
  537TIP3   OH2 1574   6.222   4.246   0.182
  537TIP3    H1 1575   6.280   4.260   0.107
  537TIP3    H2 1576   6.269   4.282   0.257
  538TIP3   OH2 1577   6.661   5.343   4.018
  538TIP3    H1 1578   6.694   5.363   3.930
  538TIP3    H2 1579   6.574   5.382   4.021
  539TIP3   OH2 1580   2.870   3.095   2.926
  539TIP3    H1 1581   2.876   3.033   2.999
  539TIP3    H2 1582   2.849   3.040   2.850
  540TIP3   OH2 1583   2.361   6.062   3.249
  540TIP3    H1 1584   2.439   6.066   3.194
  540TIP3    H2 1585   2.290   6.044   3.187
  541TIP3   OH2 1586   4.647   2.648   5.780
  541TIP3    H1 1587   4.652   2.731   5.732
  541TIP3    H2 1588   4.641   2.581   5.712
  542TIP3   OH2 1589   5.304   5.385   0.912
  542TIP3    H1 1590   5.362   5.440   0.966
  542TIP3    H2 1591   5.328   5.406   0.822
  543TIP3   OH2 1592   4.290   6.660   5.094
  543TIP3    H1 1593   4.339   6.589   5.135
  543TIP3    H2 1594   4.333   6.674   5.010
  544TIP3   OH2 1595   1.364   3.854   5.306
  544TIP3    H1 1596   1.458   3.855   5.322
  544TIP3    H2 1597   1.328   3.799   5.376
  545TIP3   OH2 1598   2.558   2.770   2.933
  545TIP3    H1 1599   2.556   2.831   2.860
  545TIP3    H2 1600   2.644   2.782   2.973
  546TIP3   OH2 1601   5.264   6.726   3.301
  546TIP3    H1 1602   5.219   6.643   3.317
  546TIP3    H2 1603   5.357   6.704   3.312
  547TIP3   OH2 1604   5.738   2.455   5.552
  547TIP3    H1 1605   5.803   2.452   5.482
  547TIP3    H2 1606   5.657   2.428   5.510
  548TIP3   OH2 1607   1.556   1.374   0.818
  548TIP3    H1 1608   1.525   1.352   0.730
  548TIP3    H2 1609   1.496   1.443   0.848
  549TIP3   OH2 1610   4.684   6.656   3.841
  549TIP3    H1 1611   4.757   6.715   3.859
  549TIP3    H2 1612   4.647   6.687   3.759
  550TIP3   OH2 1613   0.146   2.144   1.491
  550TIP3    H1 1614   0.073   2.137   1.553
  550TIP3    H2 1615   0.212   2.196   1.537
  551TIP3   OH2 1616   0.856   4.357   2.654
  551TIP3    H1 1617   0.931   4.380   2.710
  551TIP3    H2 1618   0.781   4.398   2.696
  552TIP3   OH2 1619   2.897   1.336   3.155
  552TIP3    H1 1620   2.949   1.327   3.075
  552TIP3    H2 1621   2.842   1.412   3.140
  553TIP3   OH2 1622   0.654   5.554   1.196
  553TIP3    H1 1623   0.703   5.551   1.114
  553TIP3    H2 1624   0.646   5.648   1.216
  554TIP3   OH2 1625   4.971   1.011   5.344
  554TIP3    H1 1626   4.997   1.068   5.271
  554TIP3    H2 1627   4.999   1.059   5.423
  555TIP3   OH2 1628   5.379   0.613   3.235
  555TIP3    H1 1629   5.358   0.641   3.324
  555TIP3    H2 1630   5.472   0.591   3.237
  556TIP3   OH2 1631   1.881   2.846   4.053
  556TIP3    H1 1632   1.825   2.850   4.130
  556TIP3    H2 1633   1.821   2.828   3.981
  557TIP3   OH2 1634   3.702   5.110   3.604
  557TIP3    H1 1635   3.676   5.167   3.676
  557TIP3    H2 1636   3.646   5.136   3.531
  558TIP3   OH2 1637   3.925   5.699   2.842
  558TIP3    H1 1638   3.842   5.673   2.802
  558TIP3    H2 1639   3.991   5.647   2.795
  559TIP3   OH2 1640   6.574   0.386   0.212
  559TIP3    H1 1641   6.594   0.430   0.294
  559TIP3    H2 1642   6.483   0.410   0.192
  560TIP3   OH2 1643   6.375   5.467   0.079
  560TIP3    H1 1644   6.421   5.504   0.154
  560TIP3    H2 1645   6.329   5.542   0.040
  561TIP3   OH2 1646   2.370   4.247   3.327
  561TIP3    H1 1647   2.276   4.261   3.338
  561TIP3    H2 1648   2.410   4.287   3.405
  562TIP3   OH2 1649   6.763   0.859   0.059
  562TIP3    H1 1650   6.796   0.948   0.048
  562TIP3    H2 1651   6.670   0.866   0.036
  563TIP3   OH2 1652   0.944   5.071   2.700
  563TIP3    H1 1653   0.930   5.038   2.789
  563TIP3    H2 1654   1.027   5.118   2.705
  564TIP3   OH2 1655   1.168   5.269   4.424
  564TIP3    H1 1656   1.216   5.343   4.389
  564TIP3    H2 1657   1.149   5.214   4.348
  565TIP3   OH2 1658   3.362   1.023   3.757
  565TIP3    H1 1659   3.277   0.997   3.794
  565TIP3    H2 1660   3.403   0.941   3.731
  566TIP3   OH2 1661   3.479   5.724   2.481
  566TIP3    H1 1662   3.428   5.647   2.455
  566TIP3    H2 1663   3.463   5.788   2.412
  567TIP3   OH2 1664   1.667   2.749   4.632
  567TIP3    H1 1665   1.630   2.760   4.719
  567TIP3    H2 1666   1.703   2.660   4.631
  568TIP3   OH2 1667   4.591   3.002   1.607
  568TIP3    H1 1668   4.568   2.920   1.563
  568TIP3    H2 1669   4.629   3.056   1.539
  569TIP3   OH2 1670   5.890   6.735   4.359
  569TIP3    H1 1671   5.922   6.822   4.337
  569TIP3    H2 1672   5.904   6.683   4.279
  570TIP3   OH2 1673   7.010   0.992   2.414
  570TIP3    H1 1674   7.082   1.045   2.379
  570TIP3    H2 1675   6.941   1.000   2.349
  571TIP3   OH2 1676   3.487   3.223   1.594
  571TIP3    H1 1677   3.577   3.233   1.624
  571TIP3    H2 1678   3.476   3.291   1.527
  572TIP3   OH2 1679   2.651   4.433   3.365
  572TIP3    H1 1680   2.579   4.496   3.365
  572TIP3    H2 1681   2.657   4.404   3.456
  573TIP3   OH2 1682   1.177   1.154   4.693
  573TIP3    H1 1683   1.236   1.112   4.756
  573TIP3    H2 1684   1.109   1.088   4.678
  574TIP3   OH2 1685   0.130   3.666   5.156
  574TIP3    H1 1686   0.158   3.587   5.203
  574TIP3    H2 1687   0.195   3.677   5.087
  575TIP3   OH2 1688   4.474   3.086   3.800
  575TIP3    H1 1689   4.479   3.155   3.866
  575TIP3    H2 1690   4.508   3.127   3.720
  576TIP3   OH2 1691   2.979   4.667   5.665
  576TIP3    H1 1692   3.050   4.719   5.628
  576TIP3    H2 1693   2.940   4.723   5.732
  577TIP3   OH2 1694   6.061   2.998   2.939
  577TIP3    H1 1695   6.019   2.995   2.853
  577TIP3    H2 1696   6.145   3.042   2.924
  578TIP3   OH2 1697   5.356   0.727   4.928
  578TIP3    H1 1698   5.339   0.649   4.875
  578TIP3    H2 1699   5.283   0.786   4.909
  579TIP3   OH2 1700   3.352   3.681   2.175
  579TIP3    H1 1701   3.318   3.658   2.089
  579TIP3    H2 1702   3.331   3.774   2.185
  580TIP3   OH2 1703   7.013   5.753   3.585
  580TIP3    H1 1704   6.946   5.812   3.551
  580TIP3    H2 1705   6.979   5.665   3.565
  581TIP3   OH2 1706   0.527   5.524   4.666
  581TIP3    H1 1707   0.443   5.555   4.632
  581TIP3    H2 1708   0.503   5.465   4.738
  582TIP3   OH2 1709   3.762   4.588   2.788
  582TIP3    H1 1710   3.775   4.598   2.882
  582TIP3    H2 1711   3.810   4.662   2.750
  583TIP3   OH2 1712   6.987   5.346   5.250
  583TIP3    H1 1713   6.994   5.307   5.163
  583TIP3    H2 1714   6.893   5.360   5.263
  584TIP3   OH2 1715   2.169   5.145   2.468
  584TIP3    H1 1716   2.171   5.049   2.468
  584TIP3    H2 1717   2.200   5.169   2.555
  585TIP3   OH2 1718   5.414   1.809   4.255
  585TIP3    H1 1719   5.492   1.755   4.243
  585TIP3    H2 1720   5.447   1.889   4.296
  586TIP3   OH2 1721   1.346   2.890   5.114
  586TIP3    H1 1722   1.366   2.803   5.081
  586TIP3    H2 1723   1.315   2.939   5.037
  587TIP3   OH2 1724   2.599   4.169   2.772
  587TIP3    H1 1725   2.647   4.150   2.852
  587TIP3    H2 1726   2.588   4.264   2.772
  588TIP3   OH2 1727   5.088   3.606   1.453
  588TIP3    H1 1728   5.147   3.680   1.466
  588TIP3    H2 1729   5.006   3.634   1.493
  589TIP3   OH2 1730   0.704   3.674   3.472
  589TIP3    H1 1731   0.654   3.720   3.539
  589TIP3    H2 1732   0.731   3.742   3.410
  590TIP3   OH2 1733   3.776   0.478   1.254
  590TIP3    H1 1734   3.844   0.500   1.190
  590TIP3    H2 1735   3.699   0.456   1.202
  591TIP3   OH2 1736   4.246   4.694   3.613
  591TIP3    H1 1737   4.173   4.755   3.626
  591TIP3    H2 1738   4.309   4.718   3.681
  592TIP3   OH2 1739   6.269   5.934   1.605
  592TIP3    H1 1740   6.292   5.862   1.664
  592TIP3    H2 1741   6.312   6.011   1.643
  593TIP3   OH2 1742   4.893   1.822   1.482
  593TIP3    H1 1743   4.860   1.859   1.400
  593TIP3    H2 1744   4.828   1.849   1.547
  594TIP3   OH2 1745   6.914   0.054   2.058
  594TIP3    H1 1746   6.935  -0.010   1.990
  594TIP3    H2 1747   6.900   0.136   2.010
  595TIP3   OH2 1748   6.061   1.709   5.116
  595TIP3    H1 1749   6.121   1.741   5.183
  595TIP3    H2 1750   5.975   1.708   5.160
  596TIP3   OH2 1751   3.160   3.339   3.093
  596TIP3    H1 1752   3.126   3.392   3.021
  596TIP3    H2 1753   3.151   3.395   3.170
  597TIP3   OH2 1754   2.765   4.526   2.013
  597TIP3    H1 1755   2.693   4.480   2.056
  597TIP3    H2 1756   2.725   4.603   1.973
  598TIP3   OH2 1757   7.096   6.522   1.494
  598TIP3    H1 1758   7.119   6.614   1.509
  598TIP3    H2 1759   7.017   6.509   1.546
  599TIP3   OH2 1760   0.133   4.142   2.376
  599TIP3    H1 1761   0.094   4.055   2.389
  599TIP3    H2 1762   0.176   4.162   2.459
  600TIP3   OH2 1763   4.575   5.669   4.429
  600TIP3    H1 1764   4.582   5.761   4.457
  600TIP3    H2 1765   4.561   5.674   4.335
  601TIP3   OH2 1766   0.574   0.986   5.358
  601TIP3    H1 1767   0.597   1.051   5.424
  601TIP3    H2 1768   0.649   0.926   5.356
  602TIP3   OH2 1769   2.367   5.128   3.285
  602TIP3    H1 1770   2.294   5.168   3.238
  602TIP3    H2 1771   2.380   5.184   3.361
  603TIP3   OH2 1772   5.008   6.368   5.530
  603TIP3    H1 1773   4.952   6.296   5.560
  603TIP3    H2 1774   4.955   6.415   5.467
  604TIP3   OH2 1775   5.752   5.498   1.459
  604TIP3    H1 1776   5.685   5.448   1.504
  604TIP3    H2 1777   5.796   5.548   1.528
  605TIP3   OH2 1778   6.365   3.823   3.666
  605TIP3    H1 1779   6.404   3.818   3.579
  605TIP3    H2 1780   6.273   3.843   3.651
  606TIP3   OH2 1781   5.207   0.256   5.854
  606TIP3    H1 1782   5.252   0.190   5.907
  606TIP3    H2 1783   5.171   0.206   5.781
  607TIP3   OH2 1784   0.338   1.951   1.095
  607TIP3    H1 1785   0.284   2.029   1.107
  607TIP3    H2 1786   0.278   1.887   1.056
  608TIP3   OH2 1787   3.832   2.430   1.985
  608TIP3    H1 1788   3.794   2.465   2.066
  608TIP3    H2 1789   3.763   2.438   1.920
  609TIP3   OH2 1790   4.218   4.685   5.224
  609TIP3    H1 1791   4.127   4.696   5.249
  609TIP3    H2 1792   4.248   4.774   5.203
  610TIP3   OH2 1793   4.158   1.348   2.011
  610TIP3    H1 1794   4.163   1.256   1.986
  610TIP3    H2 1795   4.250   1.376   2.013
  611TIP3   OH2 1796   5.441   1.975   0.607
  611TIP3    H1 1797   5.468   2.052   0.656
  611TIP3    H2 1798   5.522   1.941   0.569
  612TIP3   OH2 1799   0.195   2.692   3.811
  612TIP3    H1 1800   0.234   2.669   3.895
  612TIP3    H2 1801   0.226   2.625   3.751
  613TIP3   OH2 1802   4.726   5.956   1.706
  613TIP3    H1 1803   4.643   5.989   1.739
  613TIP3    H2 1804   4.776   5.932   1.785
  614TIP3   OH2 1805   4.413   2.506   4.996
  614TIP3    H1 1806   4.376   2.422   4.972
  614TIP3    H2 1807   4.373   2.568   4.935
  615TIP3   OH2 1808   4.138   3.244   1.842
  615TIP3    H1 1809   4.076   3.316   1.831
  615TIP3    H2 1810   4.195   3.250   1.765
  616TIP3   OH2 1811   2.368   4.735   3.694
  616TIP3    H1 1812   2.403   4.756   3.780
  616TIP3    H2 1813   2.363   4.819   3.648
  617TIP3   OH2 1814   2.953   5.369   1.226
  617TIP3    H1 1815   2.911   5.451   1.201
  617TIP3    H2 1816   2.884   5.303   1.215
  618TIP3   OH2 1817   1.128   1.680   0.047
  618TIP3    H1 1818   1.094   1.658   0.134
  618TIP3    H2 1819   1.067   1.744   0.012
  619TIP3   OH2 1820   2.080   3.848   1.845
  619TIP3    H1 1821   2.072   3.893   1.761
  619TIP3    H2 1822   2.173   3.852   1.866
  620TIP3   OH2 1823   4.595   4.344   4.843
  620TIP3    H1 1824   4.608   4.289   4.766
  620TIP3    H2 1825   4.547   4.421   4.810
  621TIP3   OH2 1826   2.604   3.146   1.269
  621TIP3    H1 1827   2.619   3.231   1.228
  621TIP3    H2 1828   2.525   3.157   1.321
  622TIP3   OH2 1829   4.701   5.809   4.835
  622TIP3    H1 1830   4.778   5.821   4.891
  622TIP3    H2 1831   4.627   5.838   4.890
  623TIP3   OH2 1832   4.934   0.269   3.463
  623TIP3    H1 1833   4.866   0.206   3.439
  623TIP3    H2 1834   4.991   0.222   3.523
  624TIP3   OH2 1835   2.277   5.908   2.525
  624TIP3    H1 1836   2.247   5.848   2.457
  624TIP3    H2 1837   2.345   5.960   2.482
  625TIP3   OH2 1838   1.288   5.889   4.955
  625TIP3    H1 1839   1.377   5.904   4.986
  625TIP3    H2 1840   1.282   5.794   4.944
  626TIP3   OH2 1841   1.183   5.581   1.906
  626TIP3    H1 1842   1.134   5.524   1.846
  626TIP3    H2 1843   1.176   5.538   1.991
  627TIP3   OH2 1844   1.487   3.206   3.670
  627TIP3    H1 1845   1.409   3.183   3.721
  627TIP3    H2 1846   1.540   3.126   3.670
  628TIP3   OH2 1847   5.991   4.645   1.307
  628TIP3    H1 1848   5.896   4.635   1.313
  628TIP3    H2 1849   6.017   4.581   1.240
  629TIP3   OH2 1850   2.523   3.353   1.782
  629TIP3    H1 1851   2.550   3.264   1.760
  629TIP3    H2 1852   2.532   3.357   1.878
  630TIP3   OH2 1853   5.460   1.655   1.244
  630TIP3    H1 1854   5.499   1.649   1.332
  630TIP3    H2 1855   5.371   1.620   1.255
  631TIP3   OH2 1856   6.368   5.103   2.458
  631TIP3    H1 1857   6.325   5.018   2.456
  631TIP3    H2 1858   6.421   5.101   2.538
  632TIP3   OH2 1859   4.441   1.783   1.620
  632TIP3    H1 1860   4.405   1.842   1.553
  632TIP3    H2 1861   4.402   1.698   1.601
  633TIP3   OH2 1862   4.396   4.908   4.712
  633TIP3    H1 1863   4.481   4.915   4.755
  633TIP3    H2 1864   4.411   4.935   4.622
  634TIP3   OH2 1865   5.114   6.518   0.862
  634TIP3    H1 1866   5.093   6.529   0.955
  634TIP3    H2 1867   5.193   6.571   0.849
  635TIP3   OH2 1868   2.254   2.271   4.215
  635TIP3    H1 1869   2.160   2.259   4.224
  635TIP3    H2 1870   2.273   2.241   4.126
  636TIP3   OH2 1871   3.900   1.111   5.199
  636TIP3    H1 1872   3.925   1.173   5.267
  636TIP3    H2 1873   3.813   1.080   5.225
  637TIP3   OH2 1874   5.834   6.226   4.274
  637TIP3    H1 1875   5.752   6.266   4.301
  637TIP3    H2 1876   5.890   6.232   4.351
  638TIP3   OH2 1877   3.465   4.779   4.519
  638TIP3    H1 1878   3.499   4.860   4.481
  638TIP3    H2 1879   3.376   4.772   4.485
  639TIP3   OH2 1880   5.311   5.566   5.718
  639TIP3    H1 1881   5.253   5.594   5.789
  639TIP3    H2 1882   5.313   5.470   5.725
  640TIP3   OH2 1883   3.746   1.134   3.021
  640TIP3    H1 1884   3.747   1.076   2.945
  640TIP3    H2 1885   3.815   1.198   3.004
  641TIP3   OH2 1886   2.966   4.377   5.714
  641TIP3    H1 1887   2.883   4.356   5.671
  641TIP3    H2 1888   2.993   4.459   5.674
  642TIP3   OH2 1889   6.902   3.397   3.329
  642TIP3    H1 1890   6.830   3.446   3.369
  642TIP3    H2 1891   6.905   3.315   3.377
  643TIP3   OH2 1892   0.934   4.904   5.478
  643TIP3    H1 1893   0.915   4.850   5.555
  643TIP3    H2 1894   1.029   4.919   5.483
  644TIP3   OH2 1895   2.318   5.456   1.531
  644TIP3    H1 1896   2.328   5.387   1.596
  644TIP3    H2 1897   2.263   5.522   1.572
  645TIP3   OH2 1898   1.425   5.167   4.472
  645TIP3    H1 1899   1.422   5.082   4.516
  645TIP3    H2 1900   1.334   5.190   4.457
  646TIP3   OH2 1901   0.317   4.927   4.478
  646TIP3    H1 1902   0.280   4.841   4.458
  646TIP3    H2 1903   0.410   4.917   4.460
  647TIP3   OH2 1904   4.042   5.644   0.334
  647TIP3    H1 1905   4.119   5.612   0.382
  647TIP3    H2 1906   4.071   5.649   0.243
  648TIP3   OH2 1907   3.609   3.372   0.311
  648TIP3    H1 1908   3.588   3.399   0.222
  648TIP3    H2 1909   3.696   3.408   0.327
  649TIP3   OH2 1910   3.760   3.340   5.361
  649TIP3    H1 1911   3.665   3.353   5.370
  649TIP3    H2 1912   3.796   3.429   5.358
  650TIP3   OH2 1913   2.772   2.255   0.704
  650TIP3    H1 1914   2.802   2.271   0.793
  650TIP3    H2 1915   2.807   2.168   0.682
  651TIP3   OH2 1916   5.286   6.340   2.595
  651TIP3    H1 1917   5.362   6.342   2.537
  651TIP3    H2 1918   5.248   6.427   2.587
  652TIP3   OH2 1919   5.248   3.832   4.912
  652TIP3    H1 1920   5.234   3.752   4.861
  652TIP3    H2 1921   5.170   3.838   4.968
  653TIP3   OH2 1922   0.475   4.422   0.353
  653TIP3    H1 1923   0.478   4.505   0.400
  653TIP3    H2 1924   0.383   4.397   0.354
  654TIP3   OH2 1925   0.510   5.899   3.397
  654TIP3    H1 1926   0.429   5.950   3.390
  654TIP3    H2 1927   0.527   5.895   3.491
  655TIP3   OH2 1928   4.205   0.169   0.550
  655TIP3    H1 1929   4.172   0.134   0.634
  655TIP3    H2 1930   4.200   0.094   0.491
  656TIP3   OH2 1931   7.181   1.813   1.978
  656TIP3    H1 1932   7.264   1.810   1.930
  656TIP3    H2 1933   7.114   1.808   1.910
  657TIP3   OH2 1934   4.122   4.236   1.052
  657TIP3    H1 1935   4.185   4.282   0.997
  657TIP3    H2 1936   4.093   4.162   0.999
  658TIP3   OH2 1937   3.869   5.575   4.290
  658TIP3    H1 1938   3.957   5.537   4.299
  658TIP3    H2 1939   3.867   5.646   4.355
  659TIP3   OH2 1940   0.147   0.089   4.152
  659TIP3    H1 1941   0.152   0.081   4.057
  659TIP3    H2 1942   0.164   0.001   4.185
  660TIP3   OH2 1943   1.948   4.958   3.550
  660TIP3    H1 1944   1.854   4.944   3.544
  660TIP3    H2 1945   1.979   4.893   3.614
  661TIP3   OH2 1946   3.608   4.696   0.869
  661TIP3    H1 1947   3.655   4.760   0.815
  661TIP3    H2 1948   3.578   4.746   0.945
  662TIP3   OH2 1949   2.516   6.753   2.606
  662TIP3    H1 1950   2.570   6.674   2.614
  662TIP3    H2 1951   2.476   6.746   2.519
  663TIP3   OH2 1952   1.335   5.846   1.483
  663TIP3    H1 1953   1.400   5.915   1.496
  663TIP3    H2 1954   1.384   5.774   1.444
  664TIP3   OH2 1955   2.797   4.430   1.167
  664TIP3    H1 1956   2.756   4.416   1.253
  664TIP3    H2 1957   2.726   4.417   1.105
  665TIP3   OH2 1958   4.041   1.391   4.321
  665TIP3    H1 1959   4.009   1.341   4.246
  665TIP3    H2 1960   4.117   1.439   4.288
  666TIP3   OH2 1961   6.626   3.584   2.694
  666TIP3    H1 1962   6.572   3.511   2.726
  666TIP3    H2 1963   6.623   3.577   2.599
  667TIP3   OH2 1964   5.759   5.160   2.505
  667TIP3    H1 1965   5.667   5.164   2.530
  667TIP3    H2 1966   5.797   5.242   2.538
  668TIP3   OH2 1967   0.551   5.419   0.955
  668TIP3    H1 1968   0.546   5.429   1.050
  668TIP3    H2 1969   0.641   5.442   0.933
  669TIP3   OH2 1970   4.690   5.189   0.383
  669TIP3    H1 1971   4.676   5.113   0.327
  669TIP3    H2 1972   4.765   5.166   0.437
  670TIP3   OH2 1973   2.562   4.951   3.362
  670TIP3    H1 1974   2.592   4.890   3.295
  670TIP3    H2 1975   2.491   5.000   3.319
  671TIP3   OH2 1976   7.167   6.200   5.312
  671TIP3    H1 1977   7.241   6.205   5.251
  671TIP3    H2 1978   7.147   6.107   5.318
  672TIP3   OH2 1979   2.234   3.808   3.214
  672TIP3    H1 1980   2.201   3.794   3.303
  672TIP3    H2 1981   2.246   3.719   3.179
  673TIP3   OH2 1982   5.008   0.204   1.836
  673TIP3    H1 1983   4.973   0.284   1.797
  673TIP3    H2 1984   4.958   0.134   1.796
  674TIP3   OH2 1985   3.774   4.624   5.076
  674TIP3    H1 1986   3.862   4.607   5.043
  674TIP3    H2 1987   3.727   4.542   5.064
  675TIP3   OH2 1988   1.236   1.465   3.483
  675TIP3    H1 1989   1.293   1.417   3.543
  675TIP3    H2 1990   1.215   1.402   3.414
  676TIP3   OH2 1991   1.212   5.707   3.825
  676TIP3    H1 1992   1.227   5.646   3.898
  676TIP3    H2 1993   1.118   5.721   3.824
  677TIP3   OH2 1994   1.260   5.762   4.316
  677TIP3    H1 1995   1.260   5.738   4.408
  677TIP3    H2 1996   1.226   5.685   4.271
  678TIP3   OH2 1997   7.076   4.481   5.340
  678TIP3    H1 1998   7.068   4.533   5.260
  678TIP3    H2 1999   7.152   4.424   5.324
  679TIP3   OH2 2000   5.755   2.569   0.068
  679TIP3    H1 2001   5.823   2.557   0.002
  679TIP3    H2 2002   5.681   2.517   0.036
  680TIP3   OH2 2003   1.932   5.431   5.444
  680TIP3    H1 2004   1.928   5.353   5.389
  680TIP3    H2 2005   1.909   5.399   5.531
  681TIP3   OH2 2006   2.054   1.933   2.096
  681TIP3    H1 2007   2.015   1.859   2.050
  681TIP3    H2 2008   1.998   2.008   2.075
  682TIP3   OH2 2009   4.572   3.158   2.956
  682TIP3    H1 2010   4.656   3.146   3.000
  682TIP3    H2 2011   4.561   3.080   2.902
  683TIP3   OH2 2012   6.463   2.548   2.680
  683TIP3    H1 2013   6.454   2.612   2.609
  683TIP3    H2 2014   6.441   2.598   2.759
  684TIP3   OH2 2015   6.738   2.276   1.190
  684TIP3    H1 2016   6.783   2.194   1.211
  684TIP3    H2 2017   6.805   2.343   1.199
  685TIP3   OH2 2018   4.101   6.662   4.791
  685TIP3    H1 2019   4.115   6.626   4.878
  685TIP3    H2 2020   4.183   6.708   4.771
  686TIP3   OH2 2021   6.309   2.683   0.769
  686TIP3    H1 2022   6.335   2.695   0.861
  686TIP3    H2 2023   6.337   2.594   0.747
  687TIP3   OH2 2024   3.064   4.301   5.114
  687TIP3    H1 2025   3.061   4.391   5.080
  687TIP3    H2 2026   3.002   4.253   5.061
  688TIP3   OH2 2027   1.903   0.620   3.814
  688TIP3    H1 2028   1.974   0.656   3.866
  688TIP3    H2 2029   1.913   0.525   3.822
  689TIP3   OH2 2030   0.886   4.695   0.321
  689TIP3    H1 2031   0.956   4.684   0.385
  689TIP3    H2 2032   0.891   4.617   0.266
  690TIP3   OH2 2033   3.653   1.960   4.988
  690TIP3    H1 2034   3.572   1.939   4.942
  690TIP3    H2 2035   3.624   1.990   5.074
  691TIP3   OH2 2036   4.475   0.005   0.107
  691TIP3    H1 2037   4.558   0.034   0.146
  691TIP3    H2 2038   4.430   0.086   0.085
  692TIP3   OH2 2039   3.515   0.392   4.122
  692TIP3    H1 2040   3.603   0.422   4.141
  692TIP3    H2 2041   3.463   0.472   4.116
  693TIP3   OH2 2042   4.382   4.218   3.823
  693TIP3    H1 2043   4.317   4.172   3.875
  693TIP3    H2 2044   4.373   4.180   3.735
  694TIP3   OH2 2045   2.755   1.589   3.098
  694TIP3    H1 2046   2.747   1.684   3.086
  694TIP3    H2 2047   2.669   1.555   3.075
  695TIP3   OH2 2048   0.783   0.150   3.187
  695TIP3    H1 2049   0.776   0.208   3.111
  695TIP3    H2 2050   0.702   0.164   3.235
  696TIP3   OH2 2051   5.087   6.014   5.604
  696TIP3    H1 2052   5.168   6.062   5.623
  696TIP3    H2 2053   5.098   5.983   5.514
  697TIP3   OH2 2054   3.886   2.705   2.885
  697TIP3    H1 2055   3.933   2.784   2.857
  697TIP3    H2 2056   3.876   2.715   2.980
  698TIP3   OH2 2057   1.826   6.137   0.191
  698TIP3    H1 2058   1.765   6.082   0.142
  698TIP3    H2 2059   1.778   6.165   0.269
  699TIP3   OH2 2060   5.486   6.597   2.294
  699TIP3    H1 2061   5.529   6.641   2.221
  699TIP3    H2 2062   5.536   6.517   2.306
  700TIP3   OH2 2063   5.555   1.562   3.941
  700TIP3    H1 2064   5.571   1.472   3.911
  700TIP3    H2 2065   5.602   1.617   3.879
  701TIP3   OH2 2066   4.042   6.554   5.048
  701TIP3    H1 2067   4.122   6.589   5.087
  701TIP3    H2 2068   3.980   6.551   5.121
  702TIP3   OH2 2069   0.646   5.127   4.832
  702TIP3    H1 2070   0.618   5.218   4.829
  702TIP3    H2 2071   0.740   5.129   4.811
  703TIP3   OH2 2072   3.707   5.600   5.393
  703TIP3    H1 2073   3.612   5.586   5.392
  703TIP3    H2 2074   3.741   5.540   5.327
  704TIP3   OH2 2075   4.028   6.497   2.622
  704TIP3    H1 2076   4.040   6.505   2.716
  704TIP3    H2 2077   4.112   6.523   2.584
  705TIP3   OH2 2078   1.987   6.077   2.357
  705TIP3    H1 2079   1.904   6.040   2.388
  705TIP3    H2 2080   2.053   6.012   2.381
  706TIP3   OH2 2081   4.038   0.419   0.501
  706TIP3    H1 2082   4.083   0.334   0.498
  706TIP3    H2 2083   4.107   0.482   0.480
  707TIP3   OH2 2084   6.147   3.491   4.737
  707TIP3    H1 2085   6.119   3.581   4.721
  707TIP3    H2 2086   6.123   3.444   4.657
  708TIP3   OH2 2087   0.789   2.861   5.338
  708TIP3    H1 2088   0.855   2.861   5.269
  708TIP3    H2 2089   0.706   2.864   5.292
  709TIP3   OH2 2090   3.476   6.192   5.731
  709TIP3    H1 2091   3.457   6.116   5.676
  709TIP3    H2 2092   3.393   6.214   5.773
  710TIP3   OH2 2093   3.245   4.329   0.568
  710TIP3    H1 2094   3.221   4.336   0.475
  710TIP3    H2 2095   3.323   4.274   0.568
  711TIP3   OH2 2096   1.423   3.856   5.616
  711TIP3    H1 2097   1.449   3.764   5.618
  711TIP3    H2 2098   1.405   3.878   5.708
  712TIP3   OH2 2099   0.995   1.076   2.558
  712TIP3    H1 2100   0.977   1.034   2.474
  712TIP3    H2 2101   0.964   1.166   2.547
  713TIP3   OH2 2102   4.966   6.681   5.208
  713TIP3    H1 2103   5.056   6.669   5.179
  713TIP3    H2 2104   4.958   6.775   5.224
  714TIP3   OH2 2105   6.598   5.104   3.716
  714TIP3    H1 2106   6.615   5.192   3.749
  714TIP3    H2 2107   6.508   5.107   3.683
  715TIP3   OH2 2108   2.562   2.419   4.958
  715TIP3    H1 2109   2.639   2.466   4.925
  715TIP3    H2 2110   2.489   2.456   4.908
  716TIP3   OH2 2111   1.102   1.537   3.076
  716TIP3    H1 2112   1.119   1.489   3.157
  716TIP3    H2 2113   1.132   1.479   3.006
  717TIP3   OH2 2114   5.723   0.193   1.118
  717TIP3    H1 2115   5.704   0.215   1.027
  717TIP3    H2 2116   5.814   0.164   1.118
  718TIP3   OH2 2117   4.744   0.798   2.486
  718TIP3    H1 2118   4.698   0.719   2.457
  718TIP3    H2 2119   4.788   0.772   2.567
  719TIP3   OH2 2120   6.271   3.191   5.151
  719TIP3    H1 2121   6.191   3.178   5.203
  719TIP3    H2 2122   6.341   3.155   5.206
  720TIP3   OH2 2123   1.858   4.050   1.599
  720TIP3    H1 2124   1.860   3.978   1.663
  720TIP3    H2 2125   1.940   4.042   1.551
  721TIP3   OH2 2126   0.418   3.291   0.398
  721TIP3    H1 2127   0.426   3.232   0.323
  721TIP3    H2 2128   0.500   3.341   0.399
  722TIP3   OH2 2129   4.118   4.372   4.136
  722TIP3    H1 2130   4.159   4.300   4.182
  722TIP3    H2 2131   4.083   4.428   4.205
  723TIP3   OH2 2132   3.439   0.262   1.248
  723TIP3    H1 2133   3.514   0.209   1.276
  723TIP3    H2 2134   3.375   0.198   1.218
  724TIP3   OH2 2135   6.485   5.393   2.664
  724TIP3    H1 2136   6.459   5.476   2.624
  724TIP3    H2 2137   6.496   5.413   2.757
  725TIP3   OH2 2138   3.290   1.404   5.467
  725TIP3    H1 2139   3.226   1.464   5.427
  725TIP3    H2 2140   3.237   1.334   5.505
  726TIP3   OH2 2141   4.141   3.124   4.510
  726TIP3    H1 2142   4.208   3.089   4.451
  726TIP3    H2 2143   4.181   3.120   4.597
  727TIP3   OH2 2144   4.186   3.787   0.116
  727TIP3    H1 2145   4.155   3.845   0.185
  727TIP3    H2 2146   4.116   3.788   0.051
  728TIP3   OH2 2147   5.847   6.196   5.553
  728TIP3    H1 2148   5.826   6.271   5.498
  728TIP3    H2 2149   5.800   6.123   5.514
  729TIP3   OH2 2150   1.887   5.561   2.245
  729TIP3    H1 2151   1.944   5.595   2.176
  729TIP3    H2 2152   1.851   5.481   2.209
  730TIP3   OH2 2153   4.635   5.832   4.207
  730TIP3    H1 2154   4.688   5.833   4.128
  730TIP3    H2 2155   4.581   5.910   4.201
  731TIP3   OH2 2156   0.676   0.543   5.587
  731TIP3    H1 2157   0.739   0.482   5.624
  731TIP3    H2 2158   0.648   0.596   5.662
  732TIP3   OH2 2159   5.659   5.936   3.976
  732TIP3    H1 2160   5.574   5.963   3.941
  732TIP3    H2 2161   5.639   5.905   4.064
  733TIP3   OH2 2162   6.281   0.377   5.055
  733TIP3    H1 2163   6.225   0.454   5.047
  733TIP3    H2 2164   6.362   0.402   5.011
  734TIP3   OH2 2165   0.173  -0.005  -0.005
  734TIP3    H1 2166   0.153  -0.041   0.082
  734TIP3    H2 2167   0.181   0.089   0.009
  735TIP3   OH2 2168   4.076   3.707   3.789
  735TIP3    H1 2169   4.140   3.773   3.763
  735TIP3    H2 2170   4.025   3.690   3.709
  736TIP3   OH2 2171   5.720   3.585   1.565
  736TIP3    H1 2172   5.667   3.663   1.580
  736TIP3    H2 2173   5.662   3.512   1.588
  737TIP3   OH2 2174   0.149   2.895   4.546
  737TIP3    H1 2175   0.102   2.816   4.574
  737TIP3    H2 2176   0.167   2.880   4.453
  738TIP3   OH2 2177   0.623   0.148   0.883
  738TIP3    H1 2178   0.716   0.163   0.901
  738TIP3    H2 2179   0.598   0.220   0.826
  739TIP3   OH2 2180   2.821   1.986   0.763
  739TIP3    H1 2181   2.739   1.937   0.767
  739TIP3    H2 2182   2.873   1.952   0.836
  740TIP3   OH2 2183   3.510   1.568   1.513
  740TIP3    H1 2184   3.465   1.552   1.596
  740TIP3    H2 2185   3.560   1.648   1.528
  741TIP3   OH2 2186   4.537   3.087   1.190
  741TIP3    H1 2187   4.598   3.119   1.257
  741TIP3    H2 2188   4.591   3.033   1.133
  742TIP3   OH2 2189   6.430   3.252   3.670
  742TIP3    H1 2190   6.495   3.253   3.740
  742TIP3    H2 2191   6.475   3.212   3.595
  743TIP3   OH2 2192   6.676   3.056   5.688
  743TIP3    H1 2193   6.592   3.010   5.689
  743TIP3    H2 2194   6.696   3.072   5.781
  744TIP3   OH2 2195   5.479   6.041   2.034
  744TIP3    H1 2196   5.394   6.056   2.074
  744TIP3    H2 2197   5.460   5.994   1.953
  745TIP3   OH2 2198   4.953   2.633   5.825
  745TIP3    H1 2199   4.860   2.650   5.813
  745TIP3    H2 2200   4.963   2.619   5.919
  746TIP3   OH2 2201   5.229   5.988   2.126
  746TIP3    H1 2202   5.237   6.009   2.219
  746TIP3    H2 2203   5.187   5.902   2.124
  747TIP3   OH2 2204   0.801   2.566   0.111
  747TIP3    H1 2205   0.821   2.503   0.180
  747TIP3    H2 2206   0.886   2.585   0.071
  748TIP3   OH2 2207   4.276   2.666   1.769
  748TIP3    H1 2208   4.237   2.619   1.842
  748TIP3    H2 2209   4.251   2.757   1.783
  749TIP3   OH2 2210   4.522   1.294   4.701
  749TIP3    H1 2211   4.592   1.357   4.718
  749TIP3    H2 2212   4.519   1.286   4.606
  750TIP3   OH2 2213   2.745   5.658   2.802
  750TIP3    H1 2214   2.722   5.733   2.856
  750TIP3    H2 2215   2.837   5.641   2.822
  751TIP3   OH2 2216   5.963   0.067   1.173
  751TIP3    H1 2217   5.942   0.108   1.257
  751TIP3    H2 2218   6.026  -0.001   1.195
  752TIP3   OH2 2219   1.646   2.773   2.926
  752TIP3    H1 2220   1.717   2.837   2.919
  752TIP3    H2 2221   1.647   2.744   3.017
  753TIP3   OH2 2222   1.871   3.966   5.256
  753TIP3    H1 2223   1.924   4.019   5.316
  753TIP3    H2 2224   1.846   4.026   5.186
  754TIP3   OH2 2225   0.731   4.862   4.684
  754TIP3    H1 2226   0.688   4.821   4.760
  754TIP3    H2 2227   0.708   4.954   4.690
  755TIP3   OH2 2228   6.753   0.788   1.572
  755TIP3    H1 2229   6.757   0.824   1.660
  755TIP3    H2 2230   6.667   0.747   1.567
  756TIP3   OH2 2231   3.853   4.645   2.372
  756TIP3    H1 2232   3.764   4.617   2.349
  756TIP3    H2 2233   3.844   4.737   2.396
  757TIP3   OH2 2234   5.561   3.458   4.469
  757TIP3    H1 2235   5.623   3.392   4.500
  757TIP3    H2 2236   5.531   3.503   4.548
  758TIP3   OH2 2237   5.068   0.561   5.053
  758TIP3    H1 2238   5.090   0.650   5.081
  758TIP3    H2 2239   5.043   0.516   5.133
  759TIP3   OH2 2240   3.258   3.139   4.270
  759TIP3    H1 2241   3.177   3.095   4.295
  759TIP3    H2 2242   3.327   3.092   4.316
  760TIP3   OH2 2243   6.512   2.017   2.240
  760TIP3    H1 2244   6.520   2.109   2.264
  760TIP3    H2 2245   6.527   1.969   2.322
  761TIP3   OH2 2246   5.229   6.647   4.131
  761TIP3    H1 2247   5.161   6.678   4.191
  761TIP3    H2 2248   5.183   6.633   4.048
  762TIP3   OH2 2249   4.811   3.552   4.934
  762TIP3    H1 2250   4.796   3.646   4.939
  762TIP3    H2 2251   4.896   3.539   4.977
  763TIP3   OH2 2252   3.596   4.408   4.329
  763TIP3    H1 2253   3.509   4.446   4.324
  763TIP3    H2 2254   3.651   4.477   4.367
  764TIP3   OH2 2255   6.830   5.026   2.089
  764TIP3    H1 2256   6.865   4.936   2.090
  764TIP3    H2 2257   6.904   5.080   2.115
  765TIP3   OH2 2258   5.392   0.051   0.948
  765TIP3    H1 2259   5.408   0.027   0.857
  765TIP3    H2 2260   5.447  -0.010   0.999
  766TIP3   OH2 2261   2.595   5.384   0.171
  766TIP3    H1 2262   2.651   5.387   0.093
  766TIP3    H2 2263   2.627   5.310   0.221
  767TIP3   OH2 2264   6.009   1.769   3.754
  767TIP3    H1 2265   5.983   1.830   3.823
  767TIP3    H2 2266   6.012   1.684   3.798
  768TIP3   OH2 2267   1.246   3.528   5.349
  768TIP3    H1 2268   1.194   3.566   5.278
  768TIP3    H2 2269   1.181   3.482   5.404
  769TIP3   OH2 2270   2.617   6.417   0.186
  769TIP3    H1 2271   2.630   6.505   0.153
  769TIP3    H2 2272   2.584   6.367   0.111
  770TIP3   OH2 2273   2.271   1.016   4.010
  770TIP3    H1 2274   2.324   1.046   3.936
  770TIP3    H2 2275   2.195   0.974   3.970
  771TIP3   OH2 2276   4.422   6.279   4.205
  771TIP3    H1 2277   4.375   6.340   4.262
  771TIP3    H2 2278   4.493   6.331   4.168
  772TIP3   OH2 2279   5.891   0.735   5.161
  772TIP3    H1 2280   5.903   0.802   5.229
  772TIP3    H2 2281   5.796   0.723   5.156
  773TIP3   OH2 2282   2.727   1.106   4.886
  773TIP3    H1 2283   2.779   1.034   4.923
  773TIP3    H2 2284   2.647   1.106   4.938
  774TIP3   OH2 2285   6.463   1.251   1.620
  774TIP3    H1 2286   6.492   1.165   1.590
  774TIP3    H2 2287   6.370   1.255   1.596
  775TIP3   OH2 2288   2.425   0.080   5.799
  775TIP3    H1 2289   2.400  -0.010   5.778
  775TIP3    H2 2290   2.344   0.131   5.788
  776TIP3   OH2 2291   0.718   1.192   1.671
  776TIP3    H1 2292   0.771   1.125   1.714
  776TIP3    H2 2293   0.646   1.144   1.630
  777TIP3   OH2 2294   6.004   5.318   5.357
  777TIP3    H1 2295   6.094   5.290   5.376
  777TIP3    H2 2296   5.950   5.244   5.382
  778TIP3   OH2 2297   4.036   4.312   4.620
  778TIP3    H1 2298   4.002   4.236   4.668
  778TIP3    H2 2299   3.992   4.309   4.535
  779TIP3   OH2 2300   6.912   5.374   0.596
  779TIP3    H1 2301   6.922   5.337   0.683
  779TIP3    H2 2302   6.953   5.460   0.601
  780TIP3   OH2 2303   1.777   3.541   2.348
  780TIP3    H1 2304   1.737   3.603   2.287
  780TIP3    H2 2305   1.866   3.574   2.362
  781TIP3   OH2 2306   4.089   3.372   5.622
  781TIP3    H1 2307   4.161   3.366   5.685
  781TIP3    H2 2308   4.024   3.308   5.653
  782TIP3   OH2 2309   3.788   3.215   3.269
  782TIP3    H1 2310   3.808   3.301   3.232
  782TIP3    H2 2311   3.805   3.224   3.363
  783TIP3   OH2 2312   7.141   0.215   0.449
  783TIP3    H1 2313   7.075   0.280   0.422
  783TIP3    H2 2314   7.211   0.267   0.488
  784TIP3   OH2 2315   0.456   6.832   2.856
  784TIP3    H1 2316   0.415   6.748   2.834
  784TIP3    H2 2317   0.471   6.827   2.951
  785TIP3   OH2 2318   7.013   2.484   2.178
  785TIP3    H1 2319   7.067   2.554   2.142
  785TIP3    H2 2320   7.076   2.424   2.219
  786TIP3   OH2 2321   1.222   2.104   5.685
  786TIP3    H1 2322   1.273   2.047   5.627
  786TIP3    H2 2323   1.251   2.081   5.773
  787TIP3   OH2 2324   4.179   2.367   2.912
  787TIP3    H1 2325   4.245   2.361   2.982
  787TIP3    H2 2326   4.125   2.443   2.937
  788TIP3   OH2 2327   6.731   1.767   0.773
  788TIP3    H1 2328   6.743   1.857   0.745
  788TIP3    H2 2329   6.636   1.756   0.779
  789TIP3   OH2 2330   4.663   4.940   1.755
  789TIP3    H1 2331   4.661   4.944   1.659
  789TIP3    H2 2332   4.570   4.942   1.781
  790TIP3   OH2 2333   1.322   6.086   2.998
  790TIP3    H1 2334   1.262   6.115   3.067
  790TIP3    H2 2335   1.335   6.164   2.943
  791TIP3   OH2 2336   1.830   4.813   3.270
  791TIP3    H1 2337   1.852   4.906   3.279
  791TIP3    H2 2338   1.904   4.767   3.310
  792TIP3   OH2 2339   4.839   1.938   2.848
  792TIP3    H1 2340   4.840   2.030   2.872
  792TIP3    H2 2341   4.764   1.928   2.789
  793TIP3   OH2 2342   3.786   6.541   0.013
  793TIP3    H1 2343   3.704   6.506  -0.020
  793TIP3    H2 2344   3.766   6.632   0.034
  794TIP3   OH2 2345   5.709   0.900   0.899
  794TIP3    H1 2346   5.773   0.932   0.836
  794TIP3    H2 2347   5.759   0.882   0.978
  795TIP3   OH2 2348   1.670   1.705   1.098
  795TIP3    H1 2349   1.682   1.646   1.172
  795TIP3    H2 2350   1.756   1.708   1.056
  796TIP3   OH2 2351   0.231   3.029   3.377
  796TIP3    H1 2352   0.267   3.047   3.464
  796TIP3    H2 2353   0.137   3.044   3.387
  797TIP3   OH2 2354   4.649   4.273   3.366
  797TIP3    H1 2355   4.706   4.315   3.431
  797TIP3    H2 2356   4.595   4.344   3.332
  798TIP3   OH2 2357   4.325   6.013   5.844
  798TIP3    H1 2358   4.411   5.996   5.881
  798TIP3    H2 2359   4.279   6.063   5.911
  799TIP3   OH2 2360   6.361   3.684   1.580
  799TIP3    H1 2361   6.337   3.760   1.527
  799TIP3    H2 2362   6.334   3.609   1.527
  800TIP3   OH2 2363   4.144   6.720   0.793
  800TIP3    H1 2364   4.210   6.785   0.815
  800TIP3    H2 2365   4.194   6.643   0.765
  801TIP3   OH2 2366   1.659   5.546   5.452
  801TIP3    H1 2367   1.748   5.515   5.436
  801TIP3    H2 2368   1.638   5.600   5.376
  802TIP3   OH2 2369   2.558   0.693   5.827
  802TIP3    H1 2370   2.604   0.777   5.820
  802TIP3    H2 2371   2.579   0.648   5.745
  803TIP3   OH2 2372   1.661   6.498   4.770
  803TIP3    H1 2373   1.634   6.535   4.686
  803TIP3    H2 2374   1.742   6.544   4.792
  804TIP3   OH2 2375   6.658   4.905   3.864
  804TIP3    H1 2376   6.638   4.967   3.935
  804TIP3    H2 2377   6.668   4.961   3.786
  805TIP3   OH2 2378   4.694   4.743   3.019
  805TIP3    H1 2379   4.653   4.813   2.969
  805TIP3    H2 2380   4.633   4.669   3.011
  806TIP3   OH2 2381   1.292   5.814   0.727
  806TIP3    H1 2382   1.330   5.751   0.789
  806TIP3    H2 2383   1.250   5.759   0.661
  807TIP3   OH2 2384   5.970   6.677   1.941
  807TIP3    H1 2385   5.907   6.667   2.013
  807TIP3    H2 2386   6.017   6.593   1.938
  808TIP3   OH2 2387   2.926   1.964   4.397
  808TIP3    H1 2388   2.898   1.882   4.355
  808TIP3    H2 2389   2.943   1.939   4.488
  809TIP3   OH2 2390   3.391   6.552   3.565
  809TIP3    H1 2391   3.350   6.638   3.552
  809TIP3    H2 2392   3.325   6.490   3.536
  810TIP3   OH2 2393   7.028   5.342   3.884
  810TIP3    H1 2394   7.090   5.414   3.897
  810TIP3    H2 2395   7.008   5.344   3.790
  811TIP3   OH2 2396   2.757   5.161   2.761
  811TIP3    H1 2397   2.835   5.190   2.808
  811TIP3    H2 2398   2.689   5.223   2.786
  812TIP3   OH2 2399   4.659   2.086   2.378
  812TIP3    H1 2400   4.572   2.047   2.390
  812TIP3    H2 2401   4.646   2.179   2.392
  813TIP3   OH2 2402   0.188   0.338   0.524
  813TIP3    H1 2403   0.193   0.401   0.596
  813TIP3    H2 2404   0.210   0.388   0.446
  814TIP3   OH2 2405   2.499   2.057   0.610
  814TIP3    H1 2406   2.473   2.058   0.518
  814TIP3    H2 2407   2.551   2.137   0.621
  815TIP3   OH2 2408   1.076   1.611   5.254
  815TIP3    H1 2409   1.025   1.655   5.187
  815TIP3    H2 2410   1.011   1.561   5.304
  816TIP3   OH2 2411   0.951   5.012   4.465
  816TIP3    H1 2412   0.902   4.949   4.413
  816TIP3    H2 2413   1.040   5.008   4.431
  817TIP3   OH2 2414   3.993   1.333   2.988
  817TIP3    H1 2415   3.997   1.349   3.082
  817TIP3    H2 2416   4.083   1.348   2.958
  818TIP3   OH2 2417   0.615   2.316   0.048
  818TIP3    H1 2418   0.710   2.312   0.058
  818TIP3    H2 2419   0.602   2.362  -0.035
  819TIP3   OH2 2420   5.486   5.462   5.029
  819TIP3    H1 2421   5.512   5.553   5.041
  819TIP3    H2 2422   5.482   5.426   5.118
  820TIP3   OH2 2423   3.255   2.494   2.571
  820TIP3    H1 2424   3.240   2.571   2.626
  820TIP3    H2 2425   3.349   2.495   2.554
  821TIP3   OH2 2426   0.071   3.879   2.861
  821TIP3    H1 2427   0.018   3.946   2.904
  821TIP3    H2 2428   0.031   3.869   2.775
  822TIP3   OH2 2429   1.249   5.614   1.614
  822TIP3    H1 2430   1.250   5.610   1.709
  822TIP3    H2 2431   1.246   5.708   1.594
  823TIP3   OH2 2432   3.463   6.520   4.327
  823TIP3    H1 2433   3.526   6.509   4.255
  823TIP3    H2 2434   3.505   6.583   4.386
  824TIP3   OH2 2435   4.230   3.089   2.358
  824TIP3    H1 2436   4.155   3.107   2.301
  824TIP3    H2 2437   4.305   3.089   2.299
  825TIP3   OH2 2438   2.507   0.222   1.425
  825TIP3    H1 2439   2.587   0.175   1.402
  825TIP3    H2 2440   2.537   0.305   1.461
  826TIP3   OH2 2441   5.151   3.036   3.350
  826TIP3    H1 2442   5.131   3.130   3.356
  826TIP3    H2 2443   5.136   3.003   3.439
  827TIP3   OH2 2444   0.124   6.269   3.899
  827TIP3    H1 2445   0.164   6.309   3.976
  827TIP3    H2 2446   0.062   6.335   3.868
  828TIP3   OH2 2447   2.354   1.010   2.459
  828TIP3    H1 2448   2.282   0.973   2.510
  828TIP3    H2 2449   2.425   0.946   2.466
  829TIP3   OH2 2450   2.018   3.618   4.213
  829TIP3    H1 2451   1.982   3.706   4.205
  829TIP3    H2 2452   1.992   3.589   4.300
  830TIP3   OH2 2453   1.173   5.675   0.492
  830TIP3    H1 2454   1.078   5.665   0.490
  830TIP3    H2 2455   1.204   5.634   0.411
  831TIP3   OH2 2456   3.026   2.938   5.170
  831TIP3    H1 2457   3.117   2.911   5.179
  831TIP3    H2 2458   3.014   2.953   5.077
  832TIP3   OH2 2459   4.251   3.498   0.515
  832TIP3    H1 2460   4.294   3.520   0.597
  832TIP3    H2 2461   4.168   3.460   0.541
  833TIP3   OH2 2462   2.392   0.799   1.420
  833TIP3    H1 2463   2.465   0.741   1.400
  833TIP3    H2 2464   2.418   0.884   1.384
  834TIP3   OH2 2465   7.136   4.220   2.641
  834TIP3    H1 2466   7.170   4.151   2.584
  834TIP3    H2 2467   7.077   4.174   2.701
  835TIP3   OH2 2468   4.025   2.207   3.847
  835TIP3    H1 2469   3.958   2.171   3.789
  835TIP3    H2 2470   4.099   2.227   3.789
  836TIP3   OH2 2471   6.984   4.694   5.144
  836TIP3    H1 2472   6.919   4.629   5.120
  836TIP3    H2 2473   6.943   4.743   5.215
  837TIP3   OH2 2474   0.420   5.210   5.477
  837TIP3    H1 2475   0.464   5.289   5.507
  837TIP3    H2 2476   0.471   5.138   5.515
  838TIP3   OH2 2477   5.756   2.678   4.258
  838TIP3    H1 2478   5.804   2.638   4.330
  838TIP3    H2 2479   5.813   2.750   4.229
  839TIP3   OH2 2480   1.943   3.387   0.078
  839TIP3    H1 2481   1.934   3.293   0.061
  839TIP3    H2 2482   2.013   3.415   0.019
  840TIP3   OH2 2483   0.818   1.301   2.847
  840TIP3    H1 2484   0.788   1.392   2.839
  840TIP3    H2 2485   0.813   1.266   2.758
  841TIP3   OH2 2486   2.950   2.907   1.305
  841TIP3    H1 2487   3.016   2.883   1.371
  841TIP3    H2 2488   2.879   2.947   1.355
  842TIP3   OH2 2489   4.365   0.578   0.116
  842TIP3    H1 2490   4.294   0.603   0.057
  842TIP3    H2 2491   4.434   0.546   0.059
  843TIP3   OH2 2492   7.217   2.000   0.518
  843TIP3    H1 2493   7.202   2.094   0.522
  843TIP3    H2 2494   7.130   1.962   0.507
  844TIP3   OH2 2495   3.222   3.209   3.626
  844TIP3    H1 2496   3.229   3.287   3.682
  844TIP3    H2 2497   3.313   3.186   3.606
  845TIP3   OH2 2498   2.591   6.134   3.094
  845TIP3    H1 2499   2.652   6.194   3.050
  845TIP3    H2 2500   2.587   6.057   3.038
  846TIP3   OH2 2501   4.256   0.922   5.859
  846TIP3    H1 2502   4.328   0.933   5.920
  846TIP3    H2 2503   4.182   0.893   5.913
  847TIP3   OH2 2504   3.486   4.188   0.570
  847TIP3    H1 2505   3.563   4.204   0.515
  847TIP3    H2 2506   3.515   4.213   0.658
  848TIP3   OH2 2507   2.446   6.708   2.877
  848TIP3    H1 2508   2.446   6.739   2.787
  848TIP3    H2 2509   2.503   6.770   2.923
  849TIP3   OH2 2510   1.313   4.869   5.454
  849TIP3    H1 2511   1.306   4.781   5.417
  849TIP3    H2 2512   1.408   4.882   5.466
  850TIP3   OH2 2513   5.932   2.901   2.394
  850TIP3    H1 2514   5.931   2.806   2.384
  850TIP3    H2 2515   5.849   2.930   2.356
  851TIP3   OH2 2516   3.733   0.148   4.223
  851TIP3    H1 2517   3.806   0.085   4.221
  851TIP3    H2 2518   3.709   0.160   4.131
  852TIP3   OH2 2519   4.509   1.825   1.170
  852TIP3    H1 2520   4.481   1.877   1.245
  852TIP3    H2 2521   4.441   1.759   1.160
  853TIP3   OH2 2522   3.342   1.014   5.223
  853TIP3    H1 2523   3.409   1.028   5.156
  853TIP3    H2 2524   3.357   0.925   5.253
  854TIP3   OH2 2525   0.290   0.868   2.419
  854TIP3    H1 2526   0.222   0.833   2.477
  854TIP3    H2 2527   0.359   0.802   2.420
  855TIP3   OH2 2528   0.778   4.362   5.007
  855TIP3    H1 2529   0.815   4.370   4.919
  855TIP3    H2 2530   0.820   4.431   5.057
  856TIP3   OH2 2531   6.631   3.803   4.035
  856TIP3    H1 2532   6.626   3.798   3.939
  856TIP3    H2 2533   6.578   3.729   4.065
  857TIP3   OH2 2534   6.211   3.810   0.123
  857TIP3    H1 2535   6.241   3.726   0.157
  857TIP3    H2 2536   6.222   3.871   0.197
  858TIP3   OH2 2537   5.679   4.588   2.644
  858TIP3    H1 2538   5.718   4.567   2.559
  858TIP3    H2 2539   5.621   4.513   2.663
  859TIP3   OH2 2540   3.529   3.076  -0.002
  859TIP3    H1 2541   3.580   3.052  -0.079
  859TIP3    H2 2542   3.554   3.167   0.015
  860TIP3   OH2 2543   1.446   3.619   3.507
  860TIP3    H1 2544   1.435   3.562   3.430
  860TIP3    H2 2545   1.356   3.636   3.536
  861TIP3   OH2 2546   2.756   5.529   1.579
  861TIP3    H1 2547   2.814   5.557   1.508
  861TIP3    H2 2548   2.798   5.564   1.658
  862TIP3   OH2 2549   3.127   0.531   0.947
  862TIP3    H1 2550   3.194   0.556   1.010
  862TIP3    H2 2551   3.148   0.582   0.868
  863TIP3   OH2 2552   7.160   6.251   3.180
  863TIP3    H1 2553   7.094   6.218   3.241
  863TIP3    H2 2554   7.227   6.291   3.236
  864TIP3   OH2 2555   5.913   5.191   0.543
  864TIP3    H1 2556   5.931   5.275   0.499
  864TIP3    H2 2557   5.931   5.209   0.635
  865TIP3   OH2 2558   2.197   2.312   4.540
  865TIP3    H1 2559   2.188   2.341   4.449
  865TIP3    H2 2560   2.133   2.240   4.548
  866TIP3   OH2 2561   2.143   5.225   2.201
  866TIP3    H1 2562   2.191   5.307   2.212
  866TIP3    H2 2563   2.166   5.172   2.277
  867TIP3   OH2 2564   2.679   6.070   1.451
  867TIP3    H1 2565   2.628   5.989   1.448
  867TIP3    H2 2566   2.616   6.139   1.429
  868TIP3   OH2 2567   1.864   1.607   3.198
  868TIP3    H1 2568   1.825   1.666   3.133
  868TIP3    H2 2569   1.832   1.520   3.174
  869TIP3   OH2 2570   1.684   0.437   1.430
  869TIP3    H1 2571   1.764   0.395   1.398
  869TIP3    H2 2572   1.700   0.531   1.419
  870TIP3   OH2 2573   5.445   2.866   2.990
  870TIP3    H1 2574   5.394   2.928   3.042
  870TIP3    H2 2575   5.428   2.890   2.899
  871TIP3   OH2 2576   0.828   0.910   1.720
  871TIP3    H1 2577   0.741   0.870   1.714
  871TIP3    H2 2578   0.834   0.939   1.811
  872TIP3   OH2 2579   1.390   1.840   2.477
  872TIP3    H1 2580   1.442   1.861   2.400
  872TIP3    H2 2581   1.384   1.745   2.476
  873TIP3   OH2 2582   2.281   1.858   1.530
  873TIP3    H1 2583   2.225   1.825   1.460
  873TIP3    H2 2584   2.302   1.781   1.583
  874TIP3   OH2 2585   4.518   6.718   0.100
  874TIP3    H1 2586   4.571   6.790   0.066
  874TIP3    H2 2587   4.482   6.752   0.182
  875TIP3   OH2 2588   6.663   4.569   4.023
  875TIP3    H1 2589   6.659   4.617   4.106
  875TIP3    H2 2590   6.707   4.487   4.044
  876TIP3   OH2 2591   2.142   2.241   2.598
  876TIP3    H1 2592   2.120   2.333   2.588
  876TIP3    H2 2593   2.162   2.210   2.509
  877TIP3   OH2 2594   3.667   5.004   1.618
  877TIP3    H1 2595   3.725   5.055   1.675
  877TIP3    H2 2596   3.687   4.913   1.640
  878TIP3   OH2 2597   6.384   5.938   4.553
  878TIP3    H1 2598   6.468   5.973   4.522
  878TIP3    H2 2599   6.373   5.856   4.506
  879TIP3   OH2 2600   3.915   3.266   4.427
  879TIP3    H1 2601   3.844   3.242   4.486
  879TIP3    H2 2602   3.993   3.227   4.465
  880TIP3   OH2 2603   0.996   1.637   3.337
  880TIP3    H1 2604   0.984   1.633   3.431
  880TIP3    H2 2605   1.033   1.724   3.321
  881TIP3   OH2 2606   3.540   1.434   4.543
  881TIP3    H1 2607   3.602   1.467   4.479
  881TIP3    H2 2608   3.493   1.512   4.573
  882TIP3   OH2 2609   1.542   3.405   0.380
  882TIP3    H1 2610   1.496   3.473   0.330
  882TIP3    H2 2611   1.625   3.394   0.335
  883TIP3   OH2 2612   3.219   5.606   3.915
  883TIP3    H1 2613   3.295   5.571   3.962
  883TIP3    H2 2614   3.250   5.690   3.880
  884TIP3   OH2 2615   1.630   0.144   0.648
  884TIP3    H1 2616   1.697   0.210   0.628
  884TIP3    H2 2617   1.680   0.065   0.669
  885TIP3   OH2 2618   3.495   1.216   2.706
  885TIP3    H1 2619   3.502   1.204   2.800
  885TIP3    H2 2620   3.465   1.306   2.695
  886TIP3   OH2 2621   4.605   1.979   3.086
  886TIP3    H1 2622   4.686   1.991   3.036
  886TIP3    H2 2623   4.585   2.065   3.121
  887TIP3   OH2 2624   6.049   6.229   4.737
  887TIP3    H1 2625   6.038   6.190   4.651
  887TIP3    H2 2626   6.144   6.240   4.746
  888TIP3   OH2 2627   2.416   3.446   0.564
  888TIP3    H1 2628   2.504   3.407   0.563
  888TIP3    H2 2629   2.358   3.372   0.582
  889TIP3   OH2 2630   0.883   4.057   0.761
  889TIP3    H1 2631   0.868   4.152   0.766
  889TIP3    H2 2632   0.924   4.044   0.676
  890TIP3   OH2 2633   6.581   3.077   0.776
  890TIP3    H1 2634   6.601   3.151   0.719
  890TIP3    H2 2635   6.663   3.027   0.780
  891TIP3   OH2 2636   2.203   1.012   1.700
  891TIP3    H1 2637   2.176   1.103   1.704
  891TIP3    H2 2638   2.213   0.994   1.606
  892TIP3   OH2 2639   5.075   0.459   4.669
  892TIP3    H1 2640   5.054   0.384   4.614
  892TIP3    H2 2641   5.025   0.446   4.749
  893TIP3   OH2 2642   6.705   0.143   0.157
  893TIP3    H1 2643   6.674   0.067   0.206
  893TIP3    H2 2644   6.641   0.212   0.176
  894TIP3   OH2 2645   0.755   3.190   5.275
  894TIP3    H1 2646   0.701   3.243   5.216
  894TIP3    H2 2647   0.810   3.254   5.320
  895TIP3   OH2 2648   6.884   2.205   1.591
  895TIP3    H1 2649   6.942   2.192   1.516
  895TIP3    H2 2650   6.871   2.118   1.627
  896TIP3   OH2 2651   0.255   4.868   4.057
  896TIP3    H1 2652   0.171   4.855   4.102
  896TIP3    H2 2653   0.235   4.930   3.987
  897TIP3   OH2 2654   1.995   0.176   2.130
  897TIP3    H1 2655   2.071   0.142   2.177
  897TIP3    H2 2656   2.033   0.228   2.059
  898TIP3   OH2 2657   1.117   0.104   2.597
  898TIP3    H1 2658   1.036   0.053   2.596
  898TIP3    H2 2659   1.186   0.040   2.616
  899TIP3   OH2 2660   3.353   3.257   0.375
  899TIP3    H1 2661   3.448   3.251   0.389
  899TIP3    H2 2662   3.338   3.207   0.295
  900TIP3   OH2 2663   5.728   4.963   2.916
  900TIP3    H1 2664   5.815   4.926   2.929
  900TIP3    H2 2665   5.743   5.057   2.904
  901TIP3   OH2 2666   2.797   2.197   4.340
  901TIP3    H1 2667   2.837   2.111   4.356
  901TIP3    H2 2668   2.708   2.177   4.313
  902TIP3   OH2 2669   2.754   2.321   1.980
  902TIP3    H1 2670   2.741   2.330   1.885
  902TIP3    H2 2671   2.833   2.268   1.988
  903TIP3   OH2 2672   4.684   4.578   1.216
  903TIP3    H1 2673   4.730   4.629   1.149
  903TIP3    H2 2674   4.592   4.593   1.198
  904TIP3   OH2 2675   2.757   1.205   5.750
  904TIP3    H1 2676   2.713   1.214   5.835
  904TIP3    H2 2677   2.816   1.130   5.762
  905TIP3   OH2 2678   4.283   0.057   4.652
  905TIP3    H1 2679   4.238   0.027   4.731
  905TIP3    H2 2680   4.376   0.041   4.670
  906TIP3   OH2 2681   4.247   4.450   4.579
  906TIP3    H1 2682   4.169   4.395   4.587
  906TIP3    H2 2683   4.227   4.508   4.505
  907TIP3   OH2 2684   1.404   4.922   4.572
  907TIP3    H1 2685   1.362   4.884   4.649
  907TIP3    H2 2686   1.495   4.895   4.579
  908TIP3   OH2 2687   4.468   5.262   5.027
  908TIP3    H1 2688   4.556   5.235   5.002
  908TIP3    H2 2689   4.477   5.294   5.117
  909TIP3   OH2 2690   6.826   3.464   1.113
  909TIP3    H1 2691   6.828   3.526   1.040
  909TIP3    H2 2692   6.835   3.517   1.191
  910TIP3   OH2 2693   5.983   0.683   2.387
  910TIP3    H1 2694   6.027   0.766   2.370
  910TIP3    H2 2695   5.898   0.707   2.423
  911TIP3   OH2 2696   7.087   5.673   5.663
  911TIP3    H1 2697   7.029   5.717   5.725
  911TIP3    H2 2698   7.029   5.615   5.613
  912TIP3   OH2 2699   5.085   6.193   3.203
  912TIP3    H1 2700   5.022   6.238   3.147
  912TIP3    H2 2701   5.036   6.171   3.282
  913TIP3   OH2 2702   3.287   6.678   0.892
  913TIP3    H1 2703   3.378   6.651   0.878
  913TIP3    H2 2704   3.235   6.600   0.871
  914TIP3   OH2 2705   3.602   5.723   4.201
  914TIP3    H1 2706   3.666   5.766   4.145
  914TIP3    H2 2707   3.635   5.736   4.290
  915TIP3   OH2 2708   4.051   3.968   5.411
  915TIP3    H1 2709   4.146   3.959   5.409
  915TIP3    H2 2710   4.021   3.923   5.331
  916TIP3   OH2 2711   0.280   6.771   2.549
  916TIP3    H1 2712   0.259   6.860   2.577
  916TIP3    H2 2713   0.310   6.727   2.629
  917TIP3   OH2 2714   1.781   1.783   4.687
  917TIP3    H1 2715   1.738   1.846   4.745
  917TIP3    H2 2716   1.714   1.758   4.624
  918TIP3   OH2 2717   4.594   2.605   1.424
  918TIP3    H1 2718   4.580   2.511   1.410
  918TIP3    H2 2719   4.681   2.610   1.463
  919TIP3   OH2 2720   4.987   5.993   3.955
  919TIP3    H1 2721   4.986   6.076   3.907
  919TIP3    H2 2722   4.995   6.018   4.047
  920TIP3   OH2 2723   1.472   1.731   2.929
  920TIP3    H1 2724   1.384   1.711   2.897
  920TIP3    H2 2725   1.464   1.815   2.973
  921TIP3   OH2 2726   7.188   6.588   2.032
  921TIP3    H1 2727   7.247   6.529   1.986
  921TIP3    H2 2728   7.111   6.534   2.051
  922TIP3   OH2 2729   0.311   2.638   1.248
  922TIP3    H1 2730   0.266   2.672   1.325
  922TIP3    H2 2731   0.325   2.714   1.192
  923TIP3   OH2 2732   1.695   3.259   2.284
  923TIP3    H1 2733   1.748   3.197   2.333
  923TIP3    H2 2734   1.751   3.336   2.274
  924TIP3   OH2 2735   5.860   0.054   0.636
  924TIP3    H1 2736   5.954   0.042   0.622
  924TIP3    H2 2737   5.819  -0.015   0.583
  925TIP3   OH2 2738   1.843   1.097   4.752
  925TIP3    H1 2739   1.805   1.173   4.796
  925TIP3    H2 2740   1.815   1.105   4.661
  926TIP3   OH2 2741   1.419   5.973   5.860
  926TIP3    H1 2742   1.338   5.999   5.903
  926TIP3    H2 2743   1.403   5.987   5.767
  927TIP3   OH2 2744   1.064   6.071   3.458
  927TIP3    H1 2745   0.977   6.030   3.462
  927TIP3    H2 2746   1.112   6.029   3.529
  928TIP3   OH2 2747   0.280   1.284   0.601
  928TIP3    H1 2748   0.213   1.352   0.599
  928TIP3    H2 2749   0.248   1.216   0.541
  929TIP3   OH2 2750   3.933   5.004   1.362
  929TIP3    H1 2751   3.959   4.953   1.438
  929TIP3    H2 2752   3.924   5.093   1.395
  930TIP3   OH2 2753   1.858   5.831   4.777
  930TIP3    H1 2754   1.792   5.803   4.713
  930TIP3    H2 2755   1.871   5.753   4.832
  931TIP3   OH2 2756   3.873   1.817   3.187
  931TIP3    H1 2757   3.943   1.783   3.132
  931TIP3    H2 2758   3.849   1.745   3.245
  932TIP3   OH2 2759   2.874   0.169   4.197
  932TIP3    H1 2760   2.851   0.262   4.204
  932TIP3    H2 2761   2.939   0.156   4.266
  933TIP3   OH2 2762   3.819   5.474   0.339
  933TIP3    H1 2763   3.897   5.527   0.354
  933TIP3    H2 2764   3.840   5.419   0.263
  934TIP3   OH2 2765   0.526   0.819   3.419
  934TIP3    H1 2766   0.512   0.804   3.325
  934TIP3    H2 2767   0.616   0.789   3.434
  935TIP3   OH2 2768   4.465   3.313   5.452
  935TIP3    H1 2769   4.456   3.396   5.406
  935TIP3    H2 2770   4.553   3.282   5.429
  936TIP3   OH2 2771   5.115   5.021   1.996
  936TIP3    H1 2772   5.132   4.943   1.944
  936TIP3    H2 2773   5.020   5.032   1.992
  937TIP3   OH2 2774   6.939   2.593   2.601
  937TIP3    H1 2775   6.875   2.542   2.551
  937TIP3    H2 2776   6.933   2.558   2.690
  938TIP3   OH2 2777   0.365   1.028   3.786
  938TIP3    H1 2778   0.385   1.041   3.694
  938TIP3    H2 2779   0.360   1.116   3.823
  939TIP3   OH2 2780   6.237   1.190   2.475
  939TIP3    H1 2781   6.277   1.162   2.557
  939TIP3    H2 2782   6.190   1.113   2.444
  940TIP3   OH2 2783   6.997   5.184   1.853
  940TIP3    H1 2784   7.014   5.278   1.854
  940TIP3    H2 2785   6.909   5.175   1.815
  941TIP3   OH2 2786   2.252   0.748   4.272
  941TIP3    H1 2787   2.160   0.720   4.278
  941TIP3    H2 2788   2.249   0.841   4.293
  942TIP3   OH2 2789   2.486   2.711   5.178
  942TIP3    H1 2790   2.472   2.767   5.101
  942TIP3    H2 2791   2.453   2.764   5.251
  943TIP3   OH2 2792   4.163   5.344   0.429
  943TIP3    H1 2793   4.253   5.337   0.395
  943TIP3    H2 2794   4.108   5.340   0.350
  944TIP3   OH2 2795   4.969   1.127   2.926
  944TIP3    H1 2796   4.896   1.099   2.870
  944TIP3    H2 2797   5.047   1.110   2.874
  945TIP3   OH2 2798   0.585   2.492   1.520
  945TIP3    H1 2799   0.608   2.533   1.436
  945TIP3    H2 2800   0.668   2.466   1.558
  946TIP3   OH2 2801   0.862   1.519   4.504
  946TIP3    H1 2802   0.852   1.563   4.420
  946TIP3    H2 2803   0.798   1.448   4.502
  947TIP3   OH2 2804   6.194   5.865   2.530
  947TIP3    H1 2805   6.100   5.850   2.540
  947TIP3    H2 2806   6.202   5.960   2.518
  948TIP3   OH2 2807   0.418   1.272   1.821
  948TIP3    H1 2808   0.324   1.261   1.804
  948TIP3    H2 2809   0.460   1.216   1.756
  949TIP3   OH2 2810   3.400   4.890   5.718
  949TIP3    H1 2811   3.441   4.850   5.795
  949TIP3    H2 2812   3.377   4.978   5.747
  950TIP3   OH2 2813   0.667   0.151   5.430
  950TIP3    H1 2814   0.635   0.061   5.438
  950TIP3    H2 2815   0.607   0.203   5.483
  951TIP3   OH2 2816   4.332   0.811   2.742
  951TIP3    H1 2817   4.289   0.726   2.742
  951TIP3    H2 2818   4.268   0.871   2.704
  952TIP3   OH2 2819   7.134   3.641   0.157
  952TIP3    H1 2820   7.163   3.554   0.129
  952TIP3    H2 2821   7.180   3.656   0.239
  953TIP3   OH2 2822   7.153   3.156   3.381
  953TIP3    H1 2823   7.073   3.177   3.430
  953TIP3    H2 2824   7.140   3.066   3.351
  954TIP3   OH2 2825   2.706   1.615   2.384
  954TIP3    H1 2826   2.615   1.590   2.371
  954TIP3    H2 2827   2.708   1.709   2.366
  955TIP3   OH2 2828   2.359   0.287   2.372
  955TIP3    H1 2829   2.292   0.222   2.348
  955TIP3    H2 2830   2.311   0.353   2.423
  956TIP3   OH2 2831   5.100   4.296   3.955
  956TIP3    H1 2832   5.184   4.340   3.939
  956TIP3    H2 2833   5.108   4.213   3.910
  957TIP3   OH2 2834   5.817   3.912   0.118
  957TIP3    H1 2835   5.885   3.956   0.168
  957TIP3    H2 2836   5.752   3.980   0.101
  958TIP3   OH2 2837   1.833   5.190   4.186
  958TIP3    H1 2838   1.747   5.232   4.196
  958TIP3    H2 2839   1.839   5.128   4.259
  959TIP3   OH2 2840   0.090   6.330   1.420
  959TIP3    H1 2841   0.169   6.345   1.472
  959TIP3    H2 2842   0.023   6.380   1.464
  960TIP3   OH2 2843   5.089   6.548   0.582
  960TIP3    H1 2844   5.038   6.488   0.528
  960TIP3    H2 2845   5.082   6.512   0.671
  961TIP3   OH2 2846   2.047   2.201   1.726
  961TIP3    H1 2847   2.068   2.293   1.735
  961TIP3    H2 2848   2.035   2.188   1.632
  962TIP3   OH2 2849   2.236   5.111   5.525
  962TIP3    H1 2850   2.151   5.140   5.493
  962TIP3    H2 2851   2.229   5.016   5.529
  963TIP3   OH2 2852   0.429   1.379   1.428
  963TIP3    H1 2853   0.351   1.372   1.373
  963TIP3    H2 2854   0.404   1.339   1.511
  964TIP3   OH2 2855   6.779   1.479   1.039
  964TIP3    H1 2856   6.702   1.532   1.020
  964TIP3    H2 2857   6.744   1.397   1.073
  965TIP3   OH2 2858   3.939   0.397   0.774
  965TIP3    H1 2859   3.986   0.366   0.697
  965TIP3    H2 2860   3.970   0.341   0.845
  966TIP3   OH2 2861   0.618   4.816   2.779
  966TIP3    H1 2862   0.695   4.784   2.824
  966TIP3    H2 2863   0.612   4.908   2.804
  967TIP3   OH2 2864   5.459   2.855   4.716
  967TIP3    H1 2865   5.418   2.879   4.632
  967TIP3    H2 2866   5.477   2.762   4.708
  968TIP3   OH2 2867   3.296   3.311   5.613
  968TIP3    H1 2868   3.262   3.374   5.676
  968TIP3    H2 2869   3.252   3.228   5.635
  969TIP3   OH2 2870   5.302   4.984   3.965
  969TIP3    H1 2871   5.324   4.974   3.872
  969TIP3    H2 2872   5.377   4.948   4.012
  970TIP3   OH2 2873   4.428   0.951   3.401
  970TIP3    H1 2874   4.456   0.989   3.317
  970TIP3    H2 2875   4.453   0.859   3.395
  971TIP3   OH2 2876   3.778   4.726   2.010
  971TIP3    H1 2877   3.696   4.704   2.054
  971TIP3    H2 2878   3.826   4.779   2.074
  972TIP3   OH2 2879   0.103   2.956   0.730
  972TIP3    H1 2880   0.069   2.898   0.798
  972TIP3    H2 2881   0.082   2.913   0.648
  973TIP3   OH2 2882   1.581   1.416   5.691
  973TIP3    H1 2883   1.635   1.480   5.738
  973TIP3    H2 2884   1.622   1.410   5.604
  974TIP3   OH2 2885   6.206   3.440   2.882
  974TIP3    H1 2886   6.185   3.389   2.960
  974TIP3    H2 2887   6.145   3.407   2.816
  975TIP3   OH2 2888   6.890   4.683   3.534
  975TIP3    H1 2889   6.836   4.762   3.522
  975TIP3    H2 2890   6.878   4.659   3.625
  976TIP3   OH2 2891   6.693   6.381   5.657
  976TIP3    H1 2892   6.781   6.372   5.694
  976TIP3    H2 2893   6.653   6.451   5.709
  977TIP3   OH2 2894   5.469   6.246   2.197
  977TIP3    H1 2895   5.472   6.310   2.127
  977TIP3    H2 2896   5.477   6.161   2.153
  978TIP3   OH2 2897   2.596   5.392   2.801
  978TIP3    H1 2898   2.642   5.474   2.820
  978TIP3    H2 2899   2.550   5.408   2.719
  979TIP3   OH2 2900   1.984   3.168   1.549
  979TIP3    H1 2901   2.050   3.109   1.586
  979TIP3    H2 2902   1.960   3.226   1.622
  980TIP3   OH2 2903   2.549   3.554   3.918
  980TIP3    H1 2904   2.476   3.559   3.980
  980TIP3    H2 2905   2.512   3.585   3.835
  981TIP3   OH2 2906   6.798   0.332   5.140
  981TIP3    H1 2907   6.850   0.278   5.200
  981TIP3    H2 2908   6.742   0.383   5.198
  982TIP3   OH2 2909   4.393   3.251   0.831
  982TIP3    H1 2910   4.455   3.191   0.873
  982TIP3    H2 2911   4.336   3.194   0.778
  983TIP3   OH2 2912   0.812   4.936   0.475
  983TIP3    H1 2913   0.859   4.943   0.558
  983TIP3    H2 2914   0.836   4.850   0.441
  984TIP3   OH2 2915   1.285   0.419   5.176
  984TIP3    H1 2916   1.231   0.475   5.120
  984TIP3    H2 2917   1.222   0.368   5.227
  985TIP3   OH2 2918   2.751   5.178   0.277
  985TIP3    H1 2919   2.736   5.086   0.254
  985TIP3    H2 2920   2.808   5.174   0.354
  986TIP3   OH2 2921   2.911   0.653   4.449
  986TIP3    H1 2922   2.894   0.638   4.356
  986TIP3    H2 2923   2.939   0.745   4.453
  987TIP3   OH2 2924   0.424   5.768   5.874
  987TIP3    H1 2925   0.364   5.837   5.848
  987TIP3    H2 2926   0.373   5.687   5.867
  988TIP3   OH2 2927   3.356   3.778   0.980
  988TIP3    H1 2928   3.274   3.734   0.956
  988TIP3    H2 2929   3.334   3.829   1.058
  989TIP3   OH2 2930   5.190   4.442   2.944
  989TIP3    H1 2931   5.261   4.381   2.926
  989TIP3    H2 2932   5.154   4.463   2.857
  990TIP3   OH2 2933   5.786   2.135   0.832
  990TIP3    H1 2934   5.723   2.208   0.830
  990TIP3    H2 2935   5.802   2.115   0.740
  991TIP3   OH2 2936   5.379   5.249   4.638
  991TIP3    H1 2937   5.467   5.212   4.627
  991TIP3    H2 2938   5.320   5.175   4.628
  992TIP3   OH2 2939   4.706   3.344   0.340
  992TIP3    H1 2940   4.706   3.255   0.375
  992TIP3    H2 2941   4.669   3.397   0.410
  993TIP3   OH2 2942   1.627   5.958   0.074
  993TIP3    H1 2943   1.562   6.027   0.089
  993TIP3    H2 2944   1.582   5.894   0.020
  994TIP3   OH2 2945   5.248   1.229   3.195
  994TIP3    H1 2946   5.219   1.146   3.159
  994TIP3    H2 2947   5.188   1.247   3.267
  995TIP3   OH2 2948   0.798   6.135   0.172
  995TIP3    H1 2949   0.748   6.207   0.132
  995TIP3    H2 2950   0.732   6.071   0.196
  996TIP3   OH2 2951   1.260   1.782   5.383
  996TIP3    H1 2952   1.175   1.751   5.351
  996TIP3    H2 2953   1.316   1.704   5.382
  997TIP3   OH2 2954   1.229   4.125   3.826
  997TIP3    H1 2955   1.274   4.069   3.890
  997TIP3    H2 2956   1.285   4.123   3.749
  998TIP3   OH2 2957   5.790   3.948   5.679
  998TIP3    H1 2958   5.820   3.931   5.590
  998TIP3    H2 2959   5.697   3.970   5.670
  999TIP3   OH2 2960   2.893   2.629   3.217
  999TIP3    H1 2961   2.952   2.570   3.170
  999TIP3    H2 2962   2.947   2.668   3.285
 1000TIP3   OH2 2963   0.925   2.069   3.950
 1000TIP3    H1 2964   0.889   2.157   3.956
 1000TIP3    H2 2965   0.973   2.068   3.867
 1001TIP3   OH2 2966   2.141   0.135   1.853
 1001TIP3    H1 2967   2.214   0.074   1.841
 1001TIP3    H2 2968   2.183   0.220   1.868
 1002TIP3   OH2 2969   2.259   2.009   0.728
 1002TIP3    H1 2970   2.348   2.023   0.697
 1002TIP3    H2 2971   2.266   1.938   0.792
 1003TIP3   OH2 2972   4.427   4.894   5.089
 1003TIP3    H1 2973   4.398   4.941   5.167
 1003TIP3    H2 2974   4.370   4.925   5.019
 1004TIP3   OH2 2975   2.376   5.400   4.424
 1004TIP3    H1 2976   2.337   5.313   4.434
 1004TIP3    H2 2977   2.333   5.436   4.346
 1005TIP3   OH2 2978   1.961   3.073   5.209
 1005TIP3    H1 2979   1.983   3.151   5.260
 1005TIP3    H2 2980   1.893   3.102   5.149
 1006TIP3   OH2 2981   5.220   6.445   1.849
 1006TIP3    H1 2982   5.209   6.393   1.929
 1006TIP3    H2 2983   5.304   6.418   1.814
 1007TIP3   OH2 2984   3.207   2.221   1.743
 1007TIP3    H1 2985   3.154   2.295   1.712
 1007TIP3    H2 2986   3.296   2.240   1.713
 1008TIP3   OH2 2987   4.738   6.141   0.836
 1008TIP3    H1 2988   4.728   6.086   0.914
 1008TIP3    H2 2989   4.653   6.134   0.792
 1009TIP3   OH2 2990   1.426   1.527   0.485
 1009TIP3    H1 2991   1.348   1.490   0.527
 1009TIP3    H2 2992   1.489   1.454   0.484
 1010TIP3   OH2 2993   0.787   0.175   2.421
 1010TIP3    H1 2994   0.750   0.185   2.508
 1010TIP3    H2 2995   0.712   0.151   2.366
 1011TIP3   OH2 2996   1.021   4.258   3.947
 1011TIP3    H1 2997   1.089   4.219   3.893
 1011TIP3    H2 2998   1.006   4.195   4.018
 1012TIP3   OH2 2999   6.495   5.428   1.118
 1012TIP3    H1 3000   6.564   5.371   1.151
 1012TIP3    H2 3001   6.484   5.403   1.026
 1013TIP3   OH2 3002   4.016   1.154   0.644
 1013TIP3    H1 3003   3.968   1.099   0.583
 1013TIP3    H2 3004   4.062   1.217   0.589
 1014TIP3   OH2 3005   6.004   2.883   4.772
 1014TIP3    H1 3006   6.022   2.925   4.856
 1014TIP3    H2 3007   5.909   2.875   4.768
 1015TIP3   OH2 3008   4.908   3.406   2.284
 1015TIP3    H1 3009   4.918   3.327   2.337
 1015TIP3    H2 3010   4.827   3.391   2.235
 1016TIP3   OH2 3011   4.910   2.441   1.094
 1016TIP3    H1 3012   4.989   2.387   1.092
 1016TIP3    H2 3013   4.838   2.378   1.098
 1017TIP3   OH2 3014   6.951   3.075   1.278
 1017TIP3    H1 3015   6.900   3.056   1.357
 1017TIP3    H2 3016   6.991   3.160   1.296
 1018TIP3   OH2 3017   4.020   0.085   0.349
 1018TIP3    H1 3018   4.020   0.158   0.287
 1018TIP3    H2 3019   4.103   0.040   0.332
 1019TIP3   OH2 3020   4.290   3.604   1.815
 1019TIP3    H1 3021   4.356   3.553   1.861
 1019TIP3    H2 3022   4.339   3.675   1.773
 1020TIP3   OH2 3023   0.782   3.085   0.861
 1020TIP3    H1 3024   0.793   3.146   0.788
 1020TIP3    H2 3025   0.847   3.017   0.844
 1021TIP3   OH2 3026   5.110   3.565   2.451
 1021TIP3    H1 3027   5.082   3.564   2.543
 1021TIP3    H2 3028   5.060   3.493   2.411
 1022TIP3   OH2 3029   6.773   6.213   4.100
 1022TIP3    H1 3030   6.855   6.262   4.096
 1022TIP3    H2 3031   6.709   6.277   4.131
 1023TIP3   OH2 3032   2.471   4.822   2.792
 1023TIP3    H1 3033   2.453   4.763   2.865
 1023TIP3    H2 3034   2.553   4.866   2.816
 1024TIP3   OH2 3035   3.780   5.220   1.775
 1024TIP3    H1 3036   3.864   5.260   1.796
 1024TIP3    H2 3037   3.715   5.282   1.809
 1025TIP3   OH2 3038   3.132   2.733   2.159
 1025TIP3    H1 3039   3.184   2.792   2.215
 1025TIP3    H2 3040   3.104   2.788   2.086
 1026TIP3   OH2 3041   4.623   6.238   1.646
 1026TIP3    H1 3042   4.550   6.299   1.654
 1026TIP3    H2 3043   4.582   6.154   1.626
 1027TIP3   OH2 3044   3.952   0.287   2.010
 1027TIP3    H1 3045   3.983   0.206   1.970
 1027TIP3    H2 3046   4.031   0.337   2.029
 1028TIP3   OH2 3047   3.934   0.840   4.318
 1028TIP3    H1 3048   3.990   0.797   4.253
 1028TIP3    H2 3049   3.988   0.847   4.396
 1029TIP3   OH2 3050   3.520   5.399   1.299
 1029TIP3    H1 3051   3.501   5.490   1.320
 1029TIP3    H2 3052   3.435   5.363   1.270
 1030TIP3   OH2 3053   5.617   2.733   2.490
 1030TIP3    H1 3054   5.611   2.666   2.558
 1030TIP3    H2 3055   5.531   2.733   2.449
 1031TIP3   OH2 3056   1.797   0.157   0.952
 1031TIP3    H1 3057   1.871   0.161   0.892
 1031TIP3    H2 3058   1.742   0.086   0.919
 1032TIP3   OH2 3059   3.131   3.909   2.459
 1032TIP3    H1 3060   3.100   3.967   2.389
 1032TIP3    H2 3061   3.226   3.905   2.446
 1033TIP3   OH2 3062   5.275   4.104   0.933
 1033TIP3    H1 3063   5.265   4.017   0.972
 1033TIP3    H2 3064   5.332   4.089   0.858
 1034TIP3   OH2 3065   4.860   1.876   2.213
 1034TIP3    H1 3066   4.891   1.856   2.124
 1034TIP3    H2 3067   4.934   1.921   2.254
 1035TIP3   OH2 3068   5.172   0.318   5.318
 1035TIP3    H1 3069   5.180   0.379   5.391
 1035TIP3    H2 3070   5.098   0.262   5.340
 1036TIP3   OH2 3071   6.971   0.290   1.893
 1036TIP3    H1 3072   7.066   0.287   1.903
 1036TIP3    H2 3073   6.957   0.273   1.800
 1037TIP3   OH2 3074   2.577   1.449   0.583
 1037TIP3    H1 3075   2.539   1.515   0.641
 1037TIP3    H2 3076   2.612   1.499   0.510
 1038TIP3   OH2 3077   2.787   6.195   0.174
 1038TIP3    H1 3078   2.714   6.149   0.133
 1038TIP3    H2 3079   2.754   6.282   0.193
 1039TIP3   OH2 3080   5.447   2.592   2.985
 1039TIP3    H1 3081   5.457   2.564   3.076
 1039TIP3    H2 3082   5.432   2.686   2.990
 1040TIP3   OH2 3083   2.937   0.048   3.109
 1040TIP3    H1 3084   2.959  -0.032   3.156
 1040TIP3    H2 3085   2.893   0.103   3.173
 1041TIP3   OH2 3086   5.979   3.542   1.469
 1041TIP3    H1 3087   5.886   3.565   1.474
 1041TIP3    H2 3088   5.999   3.504   1.555
 1042TIP3   OH2 3089   0.768   6.363   1.980
 1042TIP3    H1 3090   0.824   6.288   1.958
 1042TIP3    H2 3091   0.821   6.415   2.042
 1043TIP3   OH2 3092   1.055   1.438   4.739
 1043TIP3    H1 3093   0.998   1.462   4.667
 1043TIP3    H2 3094   1.095   1.355   4.713
 1044TIP3   OH2 3095   4.089   5.234   5.200
 1044TIP3    H1 3096   4.053   5.309   5.247
 1044TIP3    H2 3097   4.131   5.272   5.122
 1045TIP3   OH2 3098   5.281   2.778   0.011
 1045TIP3    H1 3099   5.260   2.686   0.021
 1045TIP3    H2 3100   5.199   2.824   0.028
 1046TIP3   OH2 3101   1.737   2.959   2.387
 1046TIP3    H1 3102   1.716   2.876   2.430
 1046TIP3    H2 3103   1.752   2.935   2.296
 1047TIP3   OH2 3104   6.046   3.680   2.919
 1047TIP3    H1 3105   5.978   3.652   2.979
 1047TIP3    H2 3106   6.118   3.619   2.934
 1048TIP3   OH2 3107   0.623   6.705   4.828
 1048TIP3    H1 3108   0.617   6.617   4.864
 1048TIP3    H2 3109   0.623   6.762   4.905
 1049TIP3   OH2 3110   0.052   0.278   1.921
 1049TIP3    H1 3111   0.091   0.202   1.879
 1049TIP3    H2 3112   0.122   0.344   1.923
 1050TIP3   OH2 3113   0.194   2.376   3.702
 1050TIP3    H1 3114   0.215   2.325   3.780
 1050TIP3    H2 3115   0.274   2.426   3.683
 1051TIP3   OH2 3116   2.261   5.856   0.210
 1051TIP3    H1 3117   2.216   5.791   0.263
 1051TIP3    H2 3118   2.195   5.887   0.148
 1052TIP3   OH2 3119   0.889   1.392   3.760
 1052TIP3    H1 3120   0.869   1.320   3.699
 1052TIP3    H2 3121   0.811   1.448   3.757
 1053TIP3   OH2 3122   6.797   4.769   0.348
 1053TIP3    H1 3123   6.793   4.736   0.258
 1053TIP3    H2 3124   6.804   4.864   0.338
 1054TIP3   OH2 3125   7.144   0.247   4.242
 1054TIP3    H1 3126   7.230   0.221   4.208
 1054TIP3    H2 3127   7.085   0.177   4.214
 1055TIP3   OH2 3128   2.706   3.666   5.022
 1055TIP3    H1 3129   2.672   3.577   5.014
 1055TIP3    H2 3130   2.639   3.720   4.981
 1056TIP3   OH2 3131   0.397   4.637   2.791
 1056TIP3    H1 3132   0.459   4.709   2.777
 1056TIP3    H2 3133   0.365   4.651   2.880
 1057TIP3   OH2 3134   0.853   0.363   2.988
 1057TIP3    H1 3135   0.810   0.376   2.904
 1057TIP3    H2 3136   0.820   0.433   3.044
 1058TIP3   OH2 3137   0.841   5.244   1.963
 1058TIP3    H1 3138   0.778   5.175   1.940
 1058TIP3    H2 3139   0.787   5.320   1.983
 1059TIP3   OH2 3140   1.092   1.215   1.043
 1059TIP3    H1 3141   1.172   1.205   1.094
 1059TIP3    H2 3142   1.038   1.275   1.093
 1060TIP3   OH2 3143   0.062   2.057   5.613
 1060TIP3    H1 3144   0.074   2.152   5.616
 1060TIP3    H2 3145   0.133   2.025   5.558
 1061TIP3   OH2 3146   4.750   0.227   0.782
 1061TIP3    H1 3147   4.807   0.250   0.856
 1061TIP3    H2 3148   4.696   0.305   0.769
 1062TIP3   OH2 3149   2.272   1.045   0.411
 1062TIP3    H1 3150   2.326   1.103   0.357
 1062TIP3    H2 3151   2.299   1.064   0.501
 1063TIP3   OH2 3152   0.153   2.672   2.623
 1063TIP3    H1 3153   0.090   2.601   2.609
 1063TIP3    H2 3154   0.165   2.711   2.537
 1064TIP3   OH2 3155   7.052   2.478   5.345
 1064TIP3    H1 3156   6.993   2.523   5.405
 1064TIP3    H2 3157   7.139   2.488   5.385
 1065TIP3   OH2 3158   1.664   5.935   3.177
 1065TIP3    H1 3159   1.702   6.004   3.123
 1065TIP3    H2 3160   1.584   5.909   3.131
 1066TIP3   OH2 3161   1.701   4.834   5.584
 1066TIP3    H1 3162   1.675   4.911   5.534
 1066TIP3    H2 3163   1.619   4.786   5.598
 1067TIP3   OH2 3164   6.954   1.371   5.278
 1067TIP3    H1 3165   6.948   1.359   5.373
 1067TIP3    H2 3166   7.048   1.383   5.261
 1068TIP3   OH2 3167   7.034   5.735   2.231
 1068TIP3    H1 3168   7.110   5.759   2.177
 1068TIP3    H2 3169   6.976   5.689   2.170
 1069TIP3   OH2 3170   7.053   5.873   3.256
 1069TIP3    H1 3171   6.989   5.875   3.327
 1069TIP3    H2 3172   7.019   5.936   3.192
 1070TIP3   OH2 3173   2.422   0.662   4.466
 1070TIP3    H1 3174   2.356   0.671   4.397
 1070TIP3    H2 3175   2.474   0.743   4.458
 1071TIP3   OH2 3176   4.711   3.929   2.822
 1071TIP3    H1 3177   4.677   3.868   2.756
 1071TIP3    H2 3178   4.779   3.879   2.868
 1072TIP3   OH2 3179   6.752   0.395   2.545
 1072TIP3    H1 3180   6.760   0.466   2.482
 1072TIP3    H2 3181   6.840   0.357   2.550
 1073TIP3   OH2 3182   4.204   3.187  -0.022
 1073TIP3    H1 3183   4.174   3.248   0.046
 1073TIP3    H2 3184   4.253   3.241  -0.083
 1074TIP3   OH2 3185   4.217   2.080   5.829
 1074TIP3    H1 3186   4.226   2.175   5.835
 1074TIP3    H2 3187   4.130   2.061   5.865
 1075TIP3   OH2 3188   1.216   6.011   3.734
 1075TIP3    H1 3189   1.239   6.103   3.751
 1075TIP3    H2 3190   1.237   5.966   3.815
 1076TIP3   OH2 3191   6.944   5.681   0.913
 1076TIP3    H1 3192   6.967   5.774   0.901
 1076TIP3    H2 3193   6.925   5.673   1.007
 1077TIP3   OH2 3194   0.053  -0.004   1.268
 1077TIP3    H1 3195   0.007   0.038   1.341
 1077TIP3    H2 3196   0.136   0.042   1.261
 1078TIP3   OH2 3197   4.149   0.203   2.326
 1078TIP3    H1 3198   4.191   0.176   2.244
 1078TIP3    H2 3199   4.191   0.286   2.348
 1079TIP3   OH2 3200   5.518   5.237   1.169
 1079TIP3    H1 3201   5.482   5.154   1.138
 1079TIP3    H2 3202   5.512   5.231   1.265
 1080TIP3   OH2 3203   0.454   1.919   2.089
 1080TIP3    H1 3204   0.472   1.971   2.167
 1080TIP3    H2 3205   0.364   1.889   2.100
 1081TIP3   OH2 3206   5.262   5.295   5.060
 1081TIP3    H1 3207   5.350   5.303   5.023
 1081TIP3    H2 3208   5.270   5.228   5.128
 1082TIP3   OH2 3209   3.669   0.223   2.557
 1082TIP3    H1 3210   3.706   0.246   2.472
 1082TIP3    H2 3211   3.582   0.189   2.536
 1083TIP3   OH2 3212   1.727   3.344   2.556
 1083TIP3    H1 3213   1.821   3.352   2.540
 1083TIP3    H2 3214   1.686   3.399   2.490
 1084TIP3   OH2 3215   6.790   6.550   2.748
 1084TIP3    H1 3216   6.874   6.537   2.704
 1084TIP3    H2 3217   6.730   6.491   2.703
 1085TIP3   OH2 3218   3.481   4.045   4.441
 1085TIP3    H1 3219   3.388   4.024   4.430
 1085TIP3    H2 3220   3.526   3.961   4.429
 1086TIP3   OH2 3221   6.146   6.148   1.411
 1086TIP3    H1 3222   6.192   6.085   1.468
 1086TIP3    H2 3223   6.140   6.227   1.464
 1087TIP3   OH2 3224   0.340   3.708   4.929
 1087TIP3    H1 3225   0.291   3.693   4.848
 1087TIP3    H2 3226   0.391   3.787   4.911
 1088TIP3   OH2 3227   2.826   6.541   0.394
 1088TIP3    H1 3228   2.804   6.611   0.333
 1088TIP3    H2 3229   2.774   6.560   0.472
 1089TIP3   OH2 3230   0.736   1.885   2.992
 1089TIP3    H1 3231   0.754   1.899   2.899
 1089TIP3    H2 3232   0.781   1.802   3.012
 1090TIP3   OH2 3233   4.330   2.284   2.458
 1090TIP3    H1 3234   4.419   2.318   2.463
 1090TIP3    H2 3235   4.339   2.200   2.413
 1091TIP3   OH2 3236   6.689   0.115   1.174
 1091TIP3    H1 3237   6.777   0.077   1.178
 1091TIP3    H2 3238   6.701   0.198   1.128
 1092TIP3   OH2 3239   0.556   2.459   2.890
 1092TIP3    H1 3240   0.596   2.542   2.918
 1092TIP3    H2 3241   0.511   2.481   2.809
 1093TIP3   OH2 3242   0.120   0.708   2.957
 1093TIP3    H1 3243   0.175   0.636   2.926
 1093TIP3    H2 3244   0.041   0.703   2.904
 1094TIP3   OH2 3245   4.213   0.542   3.885
 1094TIP3    H1 3246   4.166   0.580   3.810
 1094TIP3    H2 3247   4.252   0.461   3.851
 1095TIP3   OH2 3248   6.982   2.309   4.584
 1095TIP3    H1 3249   6.889   2.293   4.568
 1095TIP3    H2 3250   7.023   2.223   4.575
 1096TIP3   OH2 3251   0.721   6.390   4.224
 1096TIP3    H1 3252   0.730   6.482   4.247
 1096TIP3    H2 3253   0.811   6.359   4.212
 1097TIP3   OH2 3254   3.025   1.300   1.393
 1097TIP3    H1 3255   3.026   1.390   1.426
 1097TIP3    H2 3256   3.008   1.310   1.299
 1098TIP3   OH2 3257   1.800   0.010   2.982
 1098TIP3    H1 3258   1.747  -0.039   2.919
 1098TIP3    H2 3259   1.800   0.100   2.947
 1099TIP3   OH2 3260   2.549   6.424   5.021
 1099TIP3    H1 3261   2.547   6.338   5.063
 1099TIP3    H2 3262   2.619   6.417   4.956
 1100TIP3   OH2 3263   6.156   4.007   5.508
 1100TIP3    H1 3264   6.153   4.031   5.600
 1100TIP3    H2 3265   6.227   4.060   5.471
 1101TIP3   OH2 3266   2.517   1.194   0.338
 1101TIP3    H1 3267   2.534   1.279   0.296
 1101TIP3    H2 3268   2.545   1.130   0.273
 1102TIP3   OH2 3269   2.989   0.579   2.585
 1102TIP3    H1 3270   3.083   0.576   2.565
 1102TIP3    H2 3271   2.961   0.666   2.558
 1103TIP3   OH2 3272   2.077   2.942   4.401
 1103TIP3    H1 3273   2.120   2.934   4.316
 1103TIP3    H2 3274   2.010   2.873   4.400
 1104TIP3   OH2 3275   1.839   2.187   4.015
 1104TIP3    H1 3276   1.806   2.205   3.927
 1104TIP3    H2 3277   1.762   2.192   4.071
 1105TIP3   OH2 3278   1.832   5.365   3.544
 1105TIP3    H1 3279   1.762   5.303   3.565
 1105TIP3    H2 3280   1.908   5.334   3.593
 1106TIP3   OH2 3281   1.317   0.621   3.962
 1106TIP3    H1 3282   1.348   0.533   3.943
 1106TIP3    H2 3283   1.295   0.619   4.055
 1107TIP3   OH2 3284   4.140   3.558   5.852
 1107TIP3    H1 3285   4.153   3.616   5.778
 1107TIP3    H2 3286   4.080   3.606   5.910
 1108TIP3   OH2 3287   5.581   5.046   4.014
 1108TIP3    H1 3288   5.648   4.997   3.967
 1108TIP3    H2 3289   5.593   5.137   3.985
 1109TIP3   OH2 3290   1.483   3.703   1.923
 1109TIP3    H1 3291   1.391   3.676   1.919
 1109TIP3    H2 3292   1.486   3.786   1.875
 1110TIP3   OH2 3293   3.208   4.766   0.834
 1110TIP3    H1 3294   3.257   4.698   0.787
 1110TIP3    H2 3295   3.146   4.799   0.770
 1111TIP3   OH2 3296   2.973   0.759   1.877
 1111TIP3    H1 3297   2.957   0.746   1.783
 1111TIP3    H2 3298   3.016   0.844   1.882
 1112TIP3   OH2 3299   0.591   5.545   3.818
 1112TIP3    H1 3300   0.641   5.625   3.799
 1112TIP3    H2 3301   0.502   5.566   3.792
 1113TIP3   OH2 3302   3.502   2.534   3.055
 1113TIP3    H1 3303   3.506   2.628   3.037
 1113TIP3    H2 3304   3.436   2.501   2.994
 1114TIP3   OH2 3305   2.651   0.385   5.340
 1114TIP3    H1 3306   2.608   0.470   5.335
 1114TIP3    H2 3307   2.634   0.355   5.430
 1115TIP3   OH2 3308   6.271   0.072   1.509
 1115TIP3    H1 3309   6.356   0.047   1.472
 1115TIP3    H2 3310   6.289   0.087   1.602
 1116TIP3   OH2 3311   1.771   4.217   0.510
 1116TIP3    H1 3312   1.714   4.209   0.586
 1116TIP3    H2 3313   1.809   4.129   0.500
 1117TIP3   OH2 3314   4.761   4.591   5.678
 1117TIP3    H1 3315   4.715   4.585   5.595
 1117TIP3    H2 3316   4.692   4.605   5.743
 1118TIP3   OH2 3317   3.230   1.817   4.180
 1118TIP3    H1 3318   3.245   1.734   4.225
 1118TIP3    H2 3319   3.303   1.873   4.208
 1119TIP3   OH2 3320   2.962   4.601   2.246
 1119TIP3    H1 3321   2.929   4.599   2.157
 1119TIP3    H2 3322   3.015   4.680   2.251
 1120TIP3   OH2 3323   5.093   1.612   4.859
 1120TIP3    H1 3324   5.051   1.691   4.893
 1120TIP3    H2 3325   5.024   1.566   4.812
 1121TIP3   OH2 3326   1.623   1.450   3.475
 1121TIP3    H1 3327   1.590   1.376   3.424
 1121TIP3    H2 3328   1.546   1.483   3.522
 1122TIP3   OH2 3329   3.946   1.547   0.209
 1122TIP3    H1 3330   3.985   1.560   0.123
 1122TIP3    H2 3331   3.935   1.452   0.216
 1123TIP3   OH2 3332   1.878   0.956   1.126
 1123TIP3    H1 3333   1.879   0.872   1.078
 1123TIP3    H2 3334   1.834   1.016   1.066
 1124TIP3   OH2 3335   6.382   3.331   1.129
 1124TIP3    H1 3336   6.310   3.348   1.069
 1124TIP3    H2 3337   6.461   3.338   1.074
 1125TIP3   OH2 3338   0.670   6.043   1.883
 1125TIP3    H1 3339   0.612   6.102   1.931
 1125TIP3    H2 3340   0.611   5.993   1.826
 1126TIP3   OH2 3341   0.888   5.182   2.962
 1126TIP3    H1 3342   0.882   5.242   3.036
 1126TIP3    H2 3343   0.891   5.240   2.885
 1127TIP3   OH2 3344   0.197   2.531   3.254
 1127TIP3    H1 3345   0.235   2.452   3.291
 1127TIP3    H2 3346   0.194   2.514   3.160
 1128TIP3   OH2 3347   5.782   6.328   2.146
 1128TIP3    H1 3348   5.712   6.394   2.152
 1128TIP3    H2 3349   5.841   6.363   2.079
 1129TIP3   OH2 3350   4.524   2.565   5.258
 1129TIP3    H1 3351   4.477   2.530   5.183
 1129TIP3    H2 3352   4.458   2.611   5.309
 1130TIP3   OH2 3353   1.305   3.414   4.500
 1130TIP3    H1 3354   1.345   3.335   4.537
 1130TIP3    H2 3355   1.360   3.435   4.425
 1131TIP3   OH2 3356   4.423   5.501   5.756
 1131TIP3    H1 3357   4.374   5.579   5.783
 1131TIP3    H2 3358   4.355   5.437   5.735
 1132TIP3   OH2 3359   7.095   4.921   1.900
 1132TIP3    H1 3360   7.109   4.954   1.988
 1132TIP3    H2 3361   7.039   4.987   1.858
 1133TIP3   OH2 3362   5.449   4.142   1.798
 1133TIP3    H1 3363   5.471   4.219   1.745
 1133TIP3    H2 3364   5.519   4.079   1.779
 1134TIP3   OH2 3365   5.318   1.216   3.772
 1134TIP3    H1 3366   5.252   1.259   3.717
 1134TIP3    H2 3367   5.280   1.216   3.860
 1135TIP3   OH2 3368   7.234   5.919   3.459
 1135TIP3    H1 3369   7.201   5.894   3.373
 1135TIP3    H2 3370   7.157   5.915   3.516
 1136TIP3   OH2 3371   1.404   0.635   4.652
 1136TIP3    H1 3372   1.366   0.570   4.711
 1136TIP3    H2 3373   1.329   0.686   4.621
 1137TIP3   OH2 3374   0.253   0.453   4.537
 1137TIP3    H1 3375   0.320   0.387   4.554
 1137TIP3    H2 3376   0.299   0.522   4.488
 1138TIP3   OH2 3377   4.402   2.815   1.528
 1138TIP3    H1 3378   4.427   2.829   1.619
 1138TIP3    H2 3379   4.457   2.741   1.499
 1139TIP3   OH2 3380   2.139   6.796   4.803
 1139TIP3    H1 3381   2.233   6.814   4.806
 1139TIP3    H2 3382   2.122   6.747   4.883
 1140TIP3   OH2 3383   1.493   3.591   0.667
 1140TIP3    H1 3384   1.496   3.507   0.620
 1140TIP3    H2 3385   1.535   3.572   0.751
 1141TIP3   OH2 3386   0.494   0.539   1.777
 1141TIP3    H1 3387   0.503   0.592   1.857
 1141TIP3    H2 3388   0.461   0.601   1.712
 1142TIP3   OH2 3389   4.528   0.207   5.080
 1142TIP3    H1 3390   4.584   0.161   5.018
 1142TIP3    H2 3391   4.442   0.211   5.036
 1143TIP3   OH2 3392   2.086   6.064   0.107
 1143TIP3    H1 3393   2.013   6.122   0.128
 1143TIP3    H2 3394   2.158   6.095   0.161
 1144TIP3   OH2 3395   3.906   0.667   0.477
 1144TIP3    H1 3396   3.811   0.672   0.477
 1144TIP3    H2 3397   3.926   0.576   0.454
 1145TIP3   OH2 3398   3.660   5.451   4.433
 1145TIP3    H1 3399   3.718   5.519   4.399
 1145TIP3    H2 3400   3.580   5.459   4.379
 1146TIP3   OH2 3401   1.066   0.272   3.471
 1146TIP3    H1 3402   1.142   0.310   3.428
 1146TIP3    H2 3403   1.082   0.178   3.471
 1147TIP3   OH2 3404   5.768   3.410   0.548
 1147TIP3    H1 3405   5.804   3.464   0.618
 1147TIP3    H2 3406   5.830   3.338   0.539
 1148TIP3   OH2 3407   3.481   4.932   3.815
 1148TIP3    H1 3408   3.505   4.934   3.908
 1148TIP3    H2 3409   3.400   4.880   3.812
 1149TIP3   OH2 3410   1.191   4.272   5.451
 1149TIP3    H1 3411   1.140   4.194   5.470
 1149TIP3    H2 3412   1.275   4.239   5.418
 1150TIP3   OH2 3413   6.497   0.468   4.832
 1150TIP3    H1 3414   6.497   0.455   4.737
 1150TIP3    H2 3415   6.515   0.562   4.843
 1151TIP3   OH2 3416   5.111   2.417   1.353
 1151TIP3    H1 3417   5.083   2.393   1.442
 1151TIP3    H2 3418   5.062   2.497   1.333
 1152TIP3   OH2 3419   6.600   1.274   1.114
 1152TIP3    H1 3420   6.602   1.203   1.050
 1152TIP3    H2 3421   6.507   1.293   1.126
 1153TIP3   OH2 3422   3.032   1.749   0.222
 1153TIP3    H1 3423   2.991   1.712   0.300
 1153TIP3    H2 3424   3.120   1.711   0.221
 1154TIP3   OH2 3425   2.642   2.971   4.656
 1154TIP3    H1 3426   2.685   2.891   4.687
 1154TIP3    H2 3427   2.700   3.041   4.684
 1155TIP3   OH2 3428   4.432   3.125   5.638
 1155TIP3    H1 3429   4.439   3.203   5.583
 1155TIP3    H2 3430   4.347   3.133   5.681
 1156TIP3   OH2 3431   3.404   1.189   2.138
 1156TIP3    H1 3432   3.473   1.236   2.091
 1156TIP3    H2 3433   3.398   1.235   2.223
 1157TIP3   OH2 3434   3.078   2.160   4.582
 1157TIP3    H1 3435   3.009   2.139   4.519
 1157TIP3    H2 3436   3.052   2.114   4.661
 1158TIP3   OH2 3437   2.302   2.581   3.853
 1158TIP3    H1 3438   2.247   2.640   3.904
 1158TIP3    H2 3439   2.390   2.594   3.889
 1159TIP3   OH2 3440   6.493   4.958   5.849
 1159TIP3    H1 3441   6.513   5.036   5.798
 1159TIP3    H2 3442   6.563   4.896   5.828
 1160TIP3   OH2 3443   1.305   5.791   1.143
 1160TIP3    H1 3444   1.258   5.747   1.214
 1160TIP3    H2 3445   1.238   5.839   1.095
 1161TIP3   OH2 3446   6.669   3.226   1.095
 1161TIP3    H1 3447   6.725   3.204   1.020
 1161TIP3    H2 3448   6.713   3.298   1.138
 1162TIP3   OH2 3449   5.726   2.887   1.133
 1162TIP3    H1 3450   5.635   2.859   1.144
 1162TIP3    H2 3451   5.770   2.812   1.093
 1163TIP3   OH2 3452   2.907   3.128   1.928
 1163TIP3    H1 3453   2.992   3.103   1.964
 1163TIP3    H2 3454   2.850   3.136   2.005
 1164TIP3   OH2 3455   5.111   0.304   2.280
 1164TIP3    H1 3456   5.081   0.268   2.364
 1164TIP3    H2 3457   5.125   0.397   2.298
 1165TIP3   OH2 3458   1.279   3.375   0.617
 1165TIP3    H1 3459   1.294   3.453   0.563
 1165TIP3    H2 3460   1.268   3.304   0.554
 1166TIP3   OH2 3461   3.383   4.141   5.696
 1166TIP3    H1 3462   3.329   4.113   5.622
 1166TIP3    H2 3463   3.452   4.075   5.702
 1167TIP3   OH2 3464   4.150   1.666   4.625
 1167TIP3    H1 3465   4.186   1.645   4.539
 1167TIP3    H2 3466   4.225   1.666   4.683
 1168TIP3   OH2 3467   7.003   1.338   3.411
 1168TIP3    H1 3468   7.033   1.276   3.477
 1168TIP3    H2 3469   6.953   1.403   3.460
 1169TIP3   OH2 3470   6.981   3.596   4.081
 1169TIP3    H1 3471   6.996   3.553   4.165
 1169TIP3    H2 3472   7.067   3.597   4.039
 1170TIP3   OH2 3473   3.111   4.070   1.920
 1170TIP3    H1 3474   3.042   4.019   1.964
 1170TIP3    H2 3475   3.063   4.129   1.862
 1171TIP3   OH2 3476   2.313   0.218   2.672
 1171TIP3    H1 3477   2.397   0.210   2.628
 1171TIP3    H2 3478   2.255   0.157   2.627
 1172TIP3   OH2 3479   5.106   5.868   1.665
 1172TIP3    H1 3480   5.019   5.854   1.628
 1172TIP3    H2 3481   5.105   5.958   1.697
 1173TIP3   OH2 3482   5.849   0.700   0.499
 1173TIP3    H1 3483   5.936   0.700   0.459
 1173TIP3    H2 3484   5.863   0.735   0.587
 1174TIP3   OH2 3485   2.966   1.485   1.778
 1174TIP3    H1 3486   3.033   1.440   1.726
 1174TIP3    H2 3487   2.900   1.512   1.714
 1175TIP3   OH2 3488   0.699   1.540   5.196
 1175TIP3    H1 3489   0.749   1.488   5.133
 1175TIP3    H2 3490   0.755   1.616   5.214
 1176TIP3   OH2 3491   2.301   2.711   0.895
 1176TIP3    H1 3492   2.251   2.741   0.970
 1176TIP3    H2 3493   2.251   2.636   0.861
 1177TIP3   OH2 3494   3.855   0.354   5.066
 1177TIP3    H1 3495   3.802   0.380   5.142
 1177TIP3    H2 3496   3.793   0.353   4.993
 1178TIP3   OH2 3497   0.142   3.334   4.177
 1178TIP3    H1 3498   0.181   3.265   4.122
 1178TIP3    H2 3499   0.057   3.299   4.202
 1179TIP3   OH2 3500   0.725   2.698   4.810
 1179TIP3    H1 3501   0.779   2.688   4.731
 1179TIP3    H2 3502   0.646   2.649   4.792
 1180TIP3   OH2 3503   6.085   3.090   4.933
 1180TIP3    H1 3504   6.030   3.155   4.890
 1180TIP3    H2 3505   6.127   3.138   5.005
 1181TIP3   OH2 3506   4.100   1.617   1.163
 1181TIP3    H1 3507   4.094   1.595   1.070
 1181TIP3    H2 3508   4.068   1.538   1.208
 1182TIP3   OH2 3509   5.200   6.231   1.493
 1182TIP3    H1 3510   5.286   6.190   1.485
 1182TIP3    H2 3511   5.139   6.169   1.454
 1183TIP3   OH2 3512   2.424   2.305   2.132
 1183TIP3    H1 3513   2.484   2.315   2.206
 1183TIP3    H2 3514   2.380   2.222   2.149
 1184TIP3   OH2 3515   0.945   3.710   1.791
 1184TIP3    H1 3516   0.862   3.758   1.794
 1184TIP3    H2 3517   0.957   3.689   1.698
 1185TIP3   OH2 3518   0.086   6.315   1.139
 1185TIP3    H1 3519   0.093   6.322   1.234
 1185TIP3    H2 3520  -0.006   6.293   1.123
 1186TIP3   OH2 3521   6.714   3.920   4.952
 1186TIP3    H1 3522   6.728   3.927   4.858
 1186TIP3    H2 3523   6.681   3.831   4.965
 1187TIP3   OH2 3524   0.146   5.056   3.092
 1187TIP3    H1 3525   0.088   5.019   3.025
 1187TIP3    H2 3526   0.210   5.107   3.042
 1188TIP3   OH2 3527   5.106   4.992   5.791
 1188TIP3    H1 3528   5.184   5.047   5.782
 1188TIP3    H2 3529   5.133   4.906   5.759
 1189TIP3   OH2 3530   3.191   0.112   2.118
 1189TIP3    H1 3531   3.100   0.080   2.115
 1189TIP3    H2 3532   3.204   0.155   2.034
 1190TIP3   OH2 3533   3.752   1.696   1.105
 1190TIP3    H1 3534   3.767   1.616   1.054
 1190TIP3    H2 3535   3.739   1.764   1.040
 1191TIP3   OH2 3536   3.830   6.377   0.255
 1191TIP3    H1 3537   3.894   6.306   0.261
 1191TIP3    H2 3538   3.834   6.405   0.163
 1192TIP3   OH2 3539   0.123   2.501   1.487
 1192TIP3    H1 3540   0.179   2.425   1.502
 1192TIP3    H2 3541   0.168   2.573   1.532
 1193TIP3   OH2 3542   5.688   5.400   1.012
 1193TIP3    H1 3543   5.650   5.325   1.058
 1193TIP3    H2 3544   5.622   5.469   1.018
 1194TIP3   OH2 3545   4.595   5.299   0.851
 1194TIP3    H1 3546   4.632   5.231   0.907
 1194TIP3    H2 3547   4.627   5.381   0.888
 1195TIP3   OH2 3548   6.279   3.327   2.290
 1195TIP3    H1 3549   6.218   3.378   2.343
 1195TIP3    H2 3550   6.234   3.244   2.275
 1196TIP3   OH2 3551   5.119   3.626   2.147
 1196TIP3    H1 3552   5.128   3.535   2.172
 1196TIP3    H2 3553   5.208   3.661   2.151
 1197TIP3   OH2 3554   2.671   1.854   3.040
 1197TIP3    H1 3555   2.664   1.894   2.954
 1197TIP3    H2 3556   2.589   1.877   3.084
 1198TIP3   OH2 3557   1.164   2.306   1.007
 1198TIP3    H1 3558   1.255   2.282   0.986
 1198TIP3    H2 3559   1.119   2.222   1.018
 1199TIP3   OH2 3560   4.003   5.309   1.338
 1199TIP3    H1 3561   3.915   5.346   1.333
 1199TIP3    H2 3562   4.056   5.362   1.278
 1200TIP3   OH2 3563   5.929   4.840   3.282
 1200TIP3    H1 3564   5.844   4.868   3.249
 1200TIP3    H2 3565   5.972   4.921   3.309
 1201TIP3   OH2 3566   6.231   1.997   0.628
 1201TIP3    H1 3567   6.266   1.909   0.615
 1201TIP3    H2 3568   6.227   2.035   0.541
 1202TIP3   OH2 3569   0.813   3.035   4.732
 1202TIP3    H1 3570   0.818   3.129   4.746
 1202TIP3    H2 3571   0.837   3.023   4.640
 1203TIP3   OH2 3572   0.056   4.756   5.063
 1203TIP3    H1 3573  -0.037   4.736   5.070
 1203TIP3    H2 3574   0.099   4.696   5.124
 1204TIP3   OH2 3575   6.592   2.951   1.680
 1204TIP3    H1 3576   6.524   2.902   1.635
 1204TIP3    H2 3577   6.544   3.011   1.738
 1205TIP3   OH2 3578   4.547   4.585   2.625
 1205TIP3    H1 3579   4.640   4.597   2.642
 1205TIP3    H2 3580   4.541   4.501   2.580
 1206TIP3   OH2 3581   2.718   4.160   3.007
 1206TIP3    H1 3582   2.676   4.121   3.083
 1206TIP3    H2 3583   2.704   4.254   3.017
 1207TIP3   OH2 3584   4.309   3.757   3.031
 1207TIP3    H1 3585   4.249   3.821   2.992
 1207TIP3    H2 3586   4.389   3.806   3.047
 1208TIP3   OH2 3587   1.124   2.980   5.396
 1208TIP3    H1 3588   1.087   2.984   5.308
 1208TIP3    H2 3589   1.068   3.036   5.449
 1209TIP3   OH2 3590   5.711   3.497   0.940
 1209TIP3    H1 3591   5.732   3.545   0.860
 1209TIP3    H2 3592   5.616   3.501   0.947
 1210TIP3   OH2 3593   3.309   3.370   4.386
 1210TIP3    H1 3594   3.290   3.289   4.338
 1210TIP3    H2 3595   3.346   3.341   4.469
 1211TIP3   OH2 3596   1.145   5.595   1.295
 1211TIP3    H1 3597   1.121   5.590   1.388
 1211TIP3    H2 3598   1.105   5.519   1.255
 1212TIP3   OH2 3599   3.496   5.909   3.630
 1212TIP3    H1 3600   3.469   6.000   3.623
 1212TIP3    H2 3601   3.521   5.898   3.721
 1213TIP3   OH2 3602   1.595   0.213   2.030
 1213TIP3    H1 3603   1.500   0.216   2.019
 1213TIP3    H2 3604   1.628   0.178   1.947
 1214TIP3   OH2 3605   3.966   5.922   5.353
 1214TIP3    H1 3606   3.986   6.016   5.355
 1214TIP3    H2 3607   3.871   5.918   5.346
 1215TIP3   OH2 3608   0.508   3.649   2.476
 1215TIP3    H1 3609   0.514   3.573   2.418
 1215TIP3    H2 3610   0.599   3.673   2.494
 1216TIP3   OH2 3611   5.371   0.287   1.085
 1216TIP3    H1 3612   5.398   0.215   1.028
 1216TIP3    H2 3613   5.421   0.273   1.166
 1217TIP3   OH2 3614   3.685   0.603   2.075
 1217TIP3    H1 3615   3.698   0.533   2.011
 1217TIP3    H2 3616   3.682   0.683   2.023
 1218TIP3   OH2 3617   6.449   0.874   2.917
 1218TIP3    H1 3618   6.534   0.870   2.959
 1218TIP3    H2 3619   6.387   0.889   2.989
 1219TIP3   OH2 3620   0.476   4.870   3.039
 1219TIP3    H1 3621   0.520   4.952   3.015
 1219TIP3    H2 3622   0.537   4.801   3.012
 1220TIP3   OH2 3623   1.942   6.208   0.498
 1220TIP3    H1 3624   1.992   6.165   0.567
 1220TIP3    H2 3625   1.902   6.137   0.448
 1221TIP3   OH2 3626   0.249   3.487   3.154
 1221TIP3    H1 3627   0.172   3.431   3.161
 1221TIP3    H2 3628   0.291   3.481   3.239
 1222TIP3   OH2 3629   3.276   1.630   0.183
 1222TIP3    H1 3630   3.368   1.650   0.199
 1222TIP3    H2 3631   3.267   1.635   0.088
 1223TIP3   OH2 3632   4.860   2.875   2.883
 1223TIP3    H1 3633   4.939   2.852   2.834
 1223TIP3    H2 3634   4.800   2.910   2.816
 1224TIP3   OH2 3635   3.550   3.422   1.368
 1224TIP3    H1 3636   3.612   3.492   1.389
 1224TIP3    H2 3637   3.582   3.385   1.286
 1225TIP3   OH2 3638   0.558   3.785   3.690
 1225TIP3    H1 3639   0.616   3.761   3.762
 1225TIP3    H2 3640   0.584   3.875   3.668
 1226TIP3   OH2 3641   0.632   4.321   2.379
 1226TIP3    H1 3642   0.543   4.357   2.371
 1226TIP3    H2 3643   0.687   4.398   2.397
 1227TIP3   OH2 3644   4.995   4.998   1.563
 1227TIP3    H1 3645   4.900   4.987   1.567
 1227TIP3    H2 3646   5.020   4.959   1.479
 1228TIP3   OH2 3647   4.186   6.159   4.957
 1228TIP3    H1 3648   4.237   6.131   4.880
 1228TIP3    H2 3649   4.101   6.186   4.921
 1229TIP3   OH2 3650   0.251   4.707   3.022
 1229TIP3    H1 3651   0.300   4.630   3.047
 1229TIP3    H2 3652   0.305   4.781   3.051
 1230TIP3   OH2 3653   3.752   1.193   5.559
 1230TIP3    H1 3654   3.800   1.220   5.636
 1230TIP3    H2 3655   3.680   1.256   5.551
 1231TIP3   OH2 3656  -0.003   2.156   4.354
 1231TIP3    H1 3657   0.004   2.088   4.288
 1231TIP3    H2 3658  -0.058   2.117   4.422
 1232TIP3   OH2 3659   3.753   6.387   1.469
 1232TIP3    H1 3660   3.817   6.401   1.399
 1232TIP3    H2 3661   3.682   6.448   1.449
 1233TIP3   OH2 3662   1.170   3.214   2.268
 1233TIP3    H1 3663   1.086   3.207   2.221
 1233TIP3    H2 3664   1.210   3.129   2.257
 1234TIP3   OH2 3665   7.026   2.281   5.627
 1234TIP3    H1 3666   6.937   2.269   5.593
 1234TIP3    H2 3667   7.081   2.233   5.566
 1235TIP3   OH2 3668   1.024   1.571   3.616
 1235TIP3    H1 3669   0.992   1.507   3.679
 1235TIP3    H2 3670   1.098   1.527   3.573
 1236TIP3   OH2 3671   2.897   1.798   1.267
 1236TIP3    H1 3672   2.828   1.760   1.211
 1236TIP3    H2 3673   2.850   1.855   1.327
 1237TIP3   OH2 3674   4.644   0.458   2.050
 1237TIP3    H1 3675   4.715   0.455   1.985
 1237TIP3    H2 3676   4.603   0.371   2.045
 1238TIP3   OH2 3677   1.639   5.038   2.401
 1238TIP3    H1 3678   1.725   5.069   2.430
 1238TIP3    H2 3679   1.658   4.960   2.348
 1239TIP3   OH2 3680   4.363   4.896   1.122
 1239TIP3    H1 3681   4.290   4.865   1.175
 1239TIP3    H2 3682   4.325   4.962   1.064
 1240TIP3   OH2 3683   4.351   3.443   1.111
 1240TIP3    H1 3684   4.325   3.352   1.100
 1240TIP3    H2 3685   4.305   3.472   1.190
 1241TIP3   OH2 3686   1.817   6.279   5.813
 1241TIP3    H1 3687   1.790   6.187   5.816
 1241TIP3    H2 3688   1.903   6.277   5.771
 1242TIP3   OH2 3689   0.391   6.639   1.878
 1242TIP3    H1 3690   0.469   6.617   1.827
 1242TIP3    H2 3691   0.323   6.582   1.842
 1243TIP3   OH2 3692   3.046   0.284   0.081
 1243TIP3    H1 3693   2.967   0.251   0.124
 1243TIP3    H2 3694   3.101   0.206   0.069
 1244TIP3   OH2 3695   5.945   1.850   0.689
 1244TIP3    H1 3696   6.035   1.817   0.691
 1244TIP3    H2 3697   5.954   1.945   0.691
 1245TIP3   OH2 3698   3.118   2.833   0.744
 1245TIP3    H1 3699   3.044   2.880   0.706
 1245TIP3    H2 3700   3.193   2.860   0.691
 1246TIP3   OH2 3701   2.996   3.518   1.976
 1246TIP3    H1 3702   2.903   3.512   1.998
 1246TIP3    H2 3703   3.038   3.544   2.058
 1247TIP3   OH2 3704   4.321   5.066   3.746
 1247TIP3    H1 3705   4.236   5.101   3.776
 1247TIP3    H2 3706   4.365   5.039   3.827
 1248TIP3   OH2 3707   5.553   4.478   0.635
 1248TIP3    H1 3708   5.597   4.541   0.691
 1248TIP3    H2 3709   5.460   4.502   0.640
 1249TIP3   OH2 3710   4.809   6.461   1.990
 1249TIP3    H1 3711   4.839   6.432   2.076
 1249TIP3    H2 3712   4.798   6.380   1.940
 1250TIP3   OH2 3713   1.605   0.194   4.511
 1250TIP3    H1 3714   1.620   0.176   4.418
 1250TIP3    H2 3715   1.677   0.149   4.556
 1251TIP3   OH2 3716   4.856   6.767   2.517
 1251TIP3    H1 3717   4.927   6.820   2.481
 1251TIP3    H2 3718   4.889   6.677   2.513
 1252TIP3   OH2 3719   5.238   5.040   0.568
 1252TIP3    H1 3720   5.291   5.022   0.645
 1252TIP3    H2 3721   5.235   4.956   0.521
 1253TIP3   OH2 3722   1.392   4.038   1.162
 1253TIP3    H1 3723   1.465   4.087   1.201
 1253TIP3    H2 3724   1.314   4.088   1.186
 1254TIP3   OH2 3725   5.505   4.515   1.195
 1254TIP3    H1 3726   5.520   4.478   1.282
 1254TIP3    H2 3727   5.484   4.440   1.140
 1255TIP3   OH2 3728   3.103   0.617   5.359
 1255TIP3    H1 3729   3.057   0.533   5.357
 1255TIP3    H2 3730   3.150   0.620   5.275
 1256TIP3   OH2 3731   1.210   6.002   0.533
 1256TIP3    H1 3732   1.226   5.926   0.589
 1256TIP3    H2 3733   1.247   5.978   0.448
 1257TIP3   OH2 3734   4.656   4.515   1.501
 1257TIP3    H1 3735   4.697   4.483   1.420
 1257TIP3    H2 3736   4.589   4.576   1.472
 1258TIP3   OH2 3737   6.992   5.791   4.883
 1258TIP3    H1 3738   6.994   5.695   4.881
 1258TIP3    H2 3739   7.054   5.818   4.816
 1259TIP3   OH2 3740   6.402   0.233   3.838
 1259TIP3    H1 3741   6.341   0.301   3.809
 1259TIP3    H2 3742   6.379   0.220   3.931
 1260TIP3   OH2 3743   5.073   6.144   4.937
 1260TIP3    H1 3744   4.990   6.140   4.985
 1260TIP3    H2 3745   5.071   6.228   4.891
 1261TIP3   OH2 3746   4.768   1.646   3.025
 1261TIP3    H1 3747   4.857   1.674   3.005
 1261TIP3    H2 3748   4.725   1.640   2.940
 1262TIP3   OH2 3749   3.721   5.779   0.064
 1262TIP3    H1 3750   3.750   5.861   0.105
 1262TIP3    H2 3751   3.626   5.784   0.066
 1263TIP3   OH2 3752   2.080   0.514   4.987
 1263TIP3    H1 3753   2.149   0.481   5.044
 1263TIP3    H2 3754   2.018   0.556   5.046
 1264TIP3   OH2 3755   3.579   3.971   5.756
 1264TIP3    H1 3756   3.561   3.939   5.845
 1264TIP3    H2 3757   3.622   3.897   5.713
 1265TIP3   OH2 3758   2.195   3.987   1.645
 1265TIP3    H1 3759   2.282   3.991   1.686
 1265TIP3    H2 3760   2.174   4.077   1.624
 1266TIP3   OH2 3761   0.024   4.173   0.087
 1266TIP3    H1 3762   0.028   4.188  -0.008
 1266TIP3    H2 3763   0.101   4.218   0.121
 1267TIP3   OH2 3764   6.482   4.807   1.375
 1267TIP3    H1 3765   6.508   4.755   1.451
 1267TIP3    H2 3766   6.438   4.746   1.317
 1268TIP3   OH2 3767   6.777   1.134   0.307
 1268TIP3    H1 3768   6.799   1.045   0.336
 1268TIP3    H2 3769   6.705   1.161   0.364
 1269TIP3   OH2 3770   0.410   0.788   4.693
 1269TIP3    H1 3771   0.376   0.838   4.767
 1269TIP3    H2 3772   0.437   0.704   4.731
 1270TIP3   OH2 3773   0.600   0.829   2.157
 1270TIP3    H1 3774   0.634   0.916   2.181
 1270TIP3    H2 3775   0.655   0.801   2.084
 1271TIP3   OH2 3776   2.577   2.437   0.354
 1271TIP3    H1 3777   2.587   2.513   0.296
 1271TIP3    H2 3778   2.655   2.384   0.338
 1272TIP3   OH2 3779   3.650   2.111   0.585
 1272TIP3    H1 3780   3.707   2.046   0.545
 1272TIP3    H2 3781   3.637   2.177   0.518
 1273TIP3   OH2 3782   0.480   3.155   2.932
 1273TIP3    H1 3783   0.555   3.149   2.874
 1273TIP3    H2 3784   0.408   3.117   2.882
 1274TIP3   OH2 3785   2.376   5.510   0.033
 1274TIP3    H1 3786   2.461   5.466   0.024
 1274TIP3    H2 3787   2.396   5.603   0.025
 1275TIP3   OH2 3788   5.699   2.181   3.993
 1275TIP3    H1 3789   5.723   2.271   4.014
 1275TIP3    H2 3790   5.607   2.186   3.967
 1276TIP3   OH2 3791   3.936   1.802   4.533
 1276TIP3    H1 3792   3.975   1.820   4.447
 1276TIP3    H2 3793   4.004   1.753   4.579
 1277TIP3   OH2 3794   5.456   4.297   1.033
 1277TIP3    H1 3795   5.540   4.259   1.008
 1277TIP3    H2 3796   5.391   4.232   1.003
 1278TIP3   OH2 3797   4.836   0.599   4.309
 1278TIP3    H1 3798   4.896   0.673   4.321
 1278TIP3    H2 3799   4.807   0.606   4.218
 1279TIP3   OH2 3800   5.683   1.362   4.519
 1279TIP3    H1 3801   5.743   1.433   4.544
 1279TIP3    H2 3802   5.723   1.322   4.443
 1280TIP3   OH2 3803   0.747   1.276   0.210
 1280TIP3    H1 3804   0.803   1.314   0.277
 1280TIP3    H2 3805   0.659   1.283   0.245
 1281TIP3   OH2 3806   4.859   1.146   4.194
 1281TIP3    H1 3807   4.776   1.131   4.239
 1281TIP3    H2 3808   4.835   1.159   4.102
 1282TIP3   OH2 3809   3.811   1.196   3.831
 1282TIP3    H1 3810   3.715   1.191   3.838
 1282TIP3    H2 3811   3.840   1.104   3.833
 1283TIP3   OH2 3812   0.322   5.639   0.139
 1283TIP3    H1 3813   0.268   5.662   0.063
 1283TIP3    H2 3814   0.300   5.705   0.205
 1284TIP3   OH2 3815   0.047   4.403   2.467
 1284TIP3    H1 3816  -0.013   4.352   2.521
 1284TIP3    H2 3817   0.080   4.340   2.402
 1285TIP3   OH2 3818   5.054   2.167   2.713
 1285TIP3    H1 3819   5.071   2.174   2.619
 1285TIP3    H2 3820   4.967   2.205   2.726
 1286TIP3   OH2 3821   2.651   3.378   1.145
 1286TIP3    H1 3822   2.633   3.434   1.070
 1286TIP3    H2 3823   2.746   3.385   1.157
 1287TIP3   OH2 3824   4.054   4.874   3.677
 1287TIP3    H1 3825   4.083   4.943   3.616
 1287TIP3    H2 3826   3.997   4.920   3.739
 1288TIP3   OH2 3827   7.167   4.279   1.126
 1288TIP3    H1 3828   7.176   4.373   1.138
 1288TIP3    H2 3829   7.111   4.251   1.199
 1289TIP3   OH2 3830   1.386   1.229   1.464
 1289TIP3    H1 3831   1.313   1.216   1.525
 1289TIP3    H2 3832   1.344   1.238   1.378
 1290TIP3   OH2 3833   5.229   3.724   3.568
 1290TIP3    H1 3834   5.303   3.766   3.525
 1290TIP3    H2 3835   5.168   3.704   3.497
 1291TIP3   OH2 3836   6.393   0.192   0.378
 1291TIP3    H1 3837   6.428   0.144   0.301
 1291TIP3    H2 3838   6.393   0.127   0.448
 1292TIP3   OH2 3839   0.335   1.230   5.330
 1292TIP3    H1 3840   0.364   1.163   5.268
 1292TIP3    H2 3841   0.395   1.304   5.316
 1293TIP3   OH2 3842   3.204   6.786   0.237
 1293TIP3    H1 3843   3.151   6.706   0.227
 1293TIP3    H2 3844   3.262   6.767   0.310
 1294TIP3   OH2 3845   4.210   5.844   5.243
 1294TIP3    H1 3846   4.128   5.880   5.275
 1294TIP3    H2 3847   4.272   5.857   5.315
 1295TIP3   OH2 3848   4.501   2.687   0.073
 1295TIP3    H1 3849   4.450   2.768   0.082
 1295TIP3    H2 3850   4.436   2.621   0.046
 1296TIP3   OH2 3851   4.589   1.853   5.617
 1296TIP3    H1 3852   4.496   1.865   5.637
 1296TIP3    H2 3853   4.631   1.927   5.660
 1297TIP3   OH2 3854   0.702   0.824   1.371
 1297TIP3    H1 3855   0.608   0.822   1.352
 1297TIP3    H2 3856   0.734   0.902   1.326
 1298TIP3   OH2 3857   5.074   2.911   4.641
 1298TIP3    H1 3858   5.059   2.828   4.687
 1298TIP3    H2 3859   5.058   2.891   4.549
 1299TIP3   OH2 3860   0.904   1.680   2.054
 1299TIP3    H1 3861   0.860   1.666   1.970
 1299TIP3    H2 3862   0.834   1.672   2.119
 1300TIP3   OH2 3863   1.131   6.466   1.398
 1300TIP3    H1 3864   1.102   6.554   1.373
 1300TIP3    H2 3865   1.207   6.481   1.454
 1301TIP3   OH2 3866   2.327   5.282   3.554
 1301TIP3    H1 3867   2.348   5.376   3.553
 1301TIP3    H2 3868   2.412   5.239   3.546
 1302TIP3   OH2 3869   3.136   1.034   0.246
 1302TIP3    H1 3870   3.046   1.017   0.274
 1302TIP3    H2 3871   3.129   1.061   0.155
 1303TIP3   OH2 3872   1.672   0.854   0.321
 1303TIP3    H1 3873   1.657   0.939   0.362
 1303TIP3    H2 3874   1.589   0.834   0.277
 1304TIP3   OH2 3875   0.528   4.968   1.468
 1304TIP3    H1 3876   0.456   4.994   1.411
 1304TIP3    H2 3877   0.486   4.936   1.548
 1305TIP3   OH2 3878   0.629   1.447   3.363
 1305TIP3    H1 3879   0.700   1.427   3.302
 1305TIP3    H2 3880   0.652   1.400   3.443
 1306TIP3   OH2 3881   3.645   3.542   3.339
 1306TIP3    H1 3882   3.590   3.464   3.335
 1306TIP3    H2 3883   3.697   3.539   3.258
 1307TIP3   OH2 3884   2.145   5.597   5.701
 1307TIP3    H1 3885   2.127   5.504   5.713
 1307TIP3    H2 3886   2.210   5.618   5.768
 1308TIP3   OH2 3887   3.847   1.038   1.808
 1308TIP3    H1 3888   3.887   1.124   1.793
 1308TIP3    H2 3889   3.772   1.056   1.864
 1309TIP3   OH2 3890   4.474   4.477   3.277
 1309TIP3    H1 3891   4.397   4.421   3.267
 1309TIP3    H2 3892   4.482   4.522   3.193
 1310TIP3   OH2 3893   6.921   4.072   2.823
 1310TIP3    H1 3894   6.926   3.978   2.842
 1310TIP3    H2 3895   6.837   4.099   2.860
 1311TIP3   OH2 3896   5.939   6.390   1.944
 1311TIP3    H1 3897   6.035   6.381   1.949
 1311TIP3    H2 3898   5.923   6.423   1.855
 1312TIP3   OH2 3899   4.633   0.540   5.027
 1312TIP3    H1 3900   4.561   0.576   5.078
 1312TIP3    H2 3901   4.639   0.448   5.054
 1313TIP3   OH2 3902   4.040   0.233   3.649
 1313TIP3    H1 3903   4.023   0.147   3.611
 1313TIP3    H2 3904   3.965   0.286   3.622
 1314TIP3   OH2 3905   1.882   6.545   1.838
 1314TIP3    H1 3906   1.926   6.624   1.807
 1314TIP3    H2 3907   1.908   6.538   1.930
 1315TIP3   OH2 3908   0.384   6.584   2.774
 1315TIP3    H1 3909   0.471   6.569   2.738
 1315TIP3    H2 3910   0.345   6.496   2.778
 1316TIP3   OH2 3911   1.303   3.940   1.493
 1316TIP3    H1 3912   1.266   3.863   1.448
 1316TIP3    H2 3913   1.397   3.937   1.472
 1317TIP3   OH2 3914   1.253   5.250   0.973
 1317TIP3    H1 3915   1.283   5.165   1.004
 1317TIP3    H2 3916   1.297   5.313   1.030
 1318TIP3   OH2 3917   6.486   0.278   5.445
 1318TIP3    H1 3918   6.556   0.234   5.397
 1318TIP3    H2 3919   6.407   0.228   5.424
 1319TIP3   OH2 3920   6.518   3.432   1.381
 1319TIP3    H1 3921   6.526   3.382   1.300
 1319TIP3    H2 3922   6.424   3.435   1.398
 1320TIP3   OH2 3923   1.989   0.452   1.307
 1320TIP3    H1 3924   2.036   0.478   1.228
 1320TIP3    H2 3925   2.035   0.496   1.379
 1321TIP3   OH2 3926   3.342   2.938   3.863
 1321TIP3    H1 3927   3.351   2.869   3.929
 1321TIP3    H2 3928   3.414   2.923   3.802
 1322TIP3   OH2 3929   2.718   1.005   0.181
 1322TIP3    H1 3930   2.777   1.074   0.209
 1322TIP3    H2 3931   2.743   0.988   0.090
 1323TIP3   OH2 3932   6.682   3.809   2.363
 1323TIP3    H1 3933   6.645   3.790   2.277
 1323TIP3    H2 3934   6.686   3.725   2.407
 1324TIP3   OH2 3935   6.019   1.348   3.650
 1324TIP3    H1 3936   6.094   1.324   3.595
 1324TIP3    H2 3937   5.956   1.386   3.589
 1325TIP3   OH2 3938   4.618   5.623   5.515
 1325TIP3    H1 3939   4.547   5.578   5.560
 1325TIP3    H2 3940   4.663   5.555   5.466
 1326TIP3   OH2 3941   7.214   4.476   3.518
 1326TIP3    H1 3942   7.203   4.571   3.513
 1326TIP3    H2 3943   7.182   4.453   3.605
 1327TIP3   OH2 3944   2.107   1.846   4.791
 1327TIP3    H1 3945   2.027   1.797   4.772
 1327TIP3    H2 3946   2.139   1.808   4.873
 1328TIP3   OH2 3947   7.121   0.357   2.994
 1328TIP3    H1 3948   7.038   0.404   2.992
 1328TIP3    H2 3949   7.098   0.268   3.021
 1329TIP3   OH2 3950   6.960   0.923   3.075
 1329TIP3    H1 3951   6.898   0.859   3.110
 1329TIP3    H2 3952   6.946   1.001   3.128
 1330TIP3   OH2 3953   0.421   4.529   3.086
 1330TIP3    H1 3954   0.387   4.479   3.160
 1330TIP3    H2 3955   0.516   4.522   3.095
 1331TIP3   OH2 3956   1.199   3.498   1.305
 1331TIP3    H1 3957   1.171   3.437   1.237
 1331TIP3    H2 3958   1.293   3.485   1.312
 1332TIP3   OH2 3959   1.019   0.532   2.071
 1332TIP3    H1 3960   1.020   0.546   2.166
 1332TIP3    H2 3961   0.972   0.449   2.060
 1333TIP3   OH2 3962   0.709   5.163   0.352
 1333TIP3    H1 3963   0.746   5.086   0.395
 1333TIP3    H2 3964   0.634   5.187   0.406
 1334TIP3   OH2 3965   1.078   2.175   4.709
 1334TIP3    H1 3966   1.059   2.258   4.752
 1334TIP3    H2 3967   1.021   2.173   4.633
 1335TIP3   OH2 3968   4.288   3.928   3.745
 1335TIP3    H1 3969   4.366   3.946   3.693
 1335TIP3    H2 3970   4.217   3.970   3.697
 1336TIP3   OH2 3971   4.168   3.407   3.810
 1336TIP3    H1 3972   4.149   3.317   3.835
 1336TIP3    H2 3973   4.108   3.461   3.861
 1337TIP3   OH2 3974   6.905   2.652   3.312
 1337TIP3    H1 3975   6.809   2.647   3.315
 1337TIP3    H2 3976   6.934   2.562   3.298
 1338TIP3   OH2 3977   0.936   2.554   3.970
 1338TIP3    H1 3978   0.993   2.484   4.000
 1338TIP3    H2 3979   0.978   2.634   4.000
 1339TIP3   OH2 3980   1.241   6.297   4.104
 1339TIP3    H1 3981   1.293   6.218   4.091
 1339TIP3    H2 3982   1.305   6.367   4.115
 1340TIP3   OH2 3983   3.048   0.130   1.735
 1340TIP3    H1 3984   3.108   0.197   1.701
 1340TIP3    H2 3985   3.001   0.175   1.805
 1341TIP3   OH2 3986   4.088   5.527   5.505
 1341TIP3    H1 3987   4.021   5.472   5.464
 1341TIP3    H2 3988   4.115   5.479   5.583
 1342TIP3   OH2 3989   1.624   0.531   4.465
 1342TIP3    H1 3990   1.616   0.520   4.370
 1342TIP3    H2 3991   1.543   0.575   4.491
 1343TIP3   OH2 3992   5.917   0.794   0.736
 1343TIP3    H1 3993   6.011   0.804   0.748
 1343TIP3    H2 3994   5.886   0.757   0.819
 1344TIP3   OH2 3995   5.440   1.763   2.112
 1344TIP3    H1 3996   5.427   1.762   2.018
 1344TIP3    H2 3997   5.533   1.744   2.125
 1345TIP3   OH2 3998   3.306   3.395   2.220
 1345TIP3    H1 3999   3.358   3.397   2.300
 1345TIP3    H2 4000   3.290   3.487   2.200
 1346TIP3   OH2 4001   0.566   1.581   4.607
 1346TIP3    H1 4002   0.581   1.647   4.539
 1346TIP3    H2 4003   0.570   1.497   4.561
 1347TIP3   OH2 4004   1.200   6.668   5.573
 1347TIP3    H1 4005   1.286   6.626   5.563
 1347TIP3    H2 4006   1.211   6.727   5.647
 1348TIP3   OH2 4007   1.803   2.633   3.424
 1348TIP3    H1 4008   1.821   2.680   3.506
 1348TIP3    H2 4009   1.775   2.546   3.452
 1349TIP3   OH2 4010   2.673   1.893   3.576
 1349TIP3    H1 4011   2.649   1.929   3.490
 1349TIP3    H2 4012   2.639   1.956   3.639
 1350TIP3   OH2 4013   2.591   4.710   5.446
 1350TIP3    H1 4014   2.511   4.665   5.473
 1350TIP3    H2 4015   2.648   4.704   5.522
 1351TIP3   OH2 4016   5.649   2.792   0.203
 1351TIP3    H1 4017   5.580   2.844   0.162
 1351TIP3    H2 4018   5.684   2.738   0.133
 1352TIP3   OH2 4019   5.605   0.804   1.740
 1352TIP3    H1 4020   5.546   0.762   1.803
 1352TIP3    H2 4021   5.561   0.794   1.656
 1353TIP3   OH2 4022   4.226   1.038   5.273
 1353TIP3    H1 4023   4.199   1.037   5.365
 1353TIP3    H2 4024   4.181   0.963   5.234
 1354TIP3   OH2 4025   2.632   3.977   5.182
 1354TIP3    H1 4026   2.715   3.979   5.229
 1354TIP3    H2 4027   2.566   3.972   5.251
 1355TIP3   OH2 4028   3.623   2.821   1.670
 1355TIP3    H1 4029   3.569   2.861   1.602
 1355TIP3    H2 4030   3.698   2.785   1.623
 1356TIP3   OH2 4031   2.031   4.383   3.242
 1356TIP3    H1 4032   2.008   4.474   3.259
 1356TIP3    H2 4033   1.949   4.334   3.256
 1357TIP3   OH2 4034   6.962   2.154   5.362
 1357TIP3    H1 4035   7.050   2.143   5.325
 1357TIP3    H2 4036   6.918   2.215   5.302
 1358TIP3   OH2 4037   3.118   4.329   3.738
 1358TIP3    H1 4038   3.196   4.278   3.761
 1358TIP3    H2 4039   3.149   4.395   3.676
 1359TIP3   OH2 4040   1.853   2.790   4.414
 1359TIP3    H1 4041   1.809   2.765   4.495
 1359TIP3    H2 4042   1.783   2.815   4.355
 1360TIP3   OH2 4043   3.102   6.629   2.445
 1360TIP3    H1 4044   3.045   6.553   2.452
 1360TIP3    H2 4045   3.104   6.650   2.352
 1361TIP3   OH2 4046   5.682   3.043   2.653
 1361TIP3    H1 4047   5.668   3.056   2.559
 1361TIP3    H2 4048   5.777   3.033   2.662
 1362TIP3   OH2 4049   6.441   2.183   0.652
 1362TIP3    H1 4050   6.366   2.124   0.640
 1362TIP3    H2 4051   6.409   2.269   0.626
 1363TIP3   OH2 4052   6.538   2.510   3.937
 1363TIP3    H1 4053   6.511   2.465   4.017
 1363TIP3    H2 4054   6.619   2.555   3.961
 1364TIP3   OH2 4055   1.969   6.564   0.027
 1364TIP3    H1 4056   2.022   6.643   0.018
 1364TIP3    H2 4057   1.986   6.534   0.116
 1365TIP3   OH2 4058   0.860   1.968   0.661
 1365TIP3    H1 4059   0.946   1.973   0.702
 1365TIP3    H2 4060   0.850   1.877   0.635
 1366TIP3   OH2 4061   3.087   2.112   1.245
 1366TIP3    H1 4062   3.150   2.133   1.314
 1366TIP3    H2 4063   3.136   2.060   1.182
 1367TIP3   OH2 4064   2.382   6.333   2.272
 1367TIP3    H1 4065   2.322   6.258   2.264
 1367TIP3    H2 4066   2.469   6.294   2.274
 1368TIP3   OH2 4067   6.167   2.836   5.206
 1368TIP3    H1 4068   6.098   2.790   5.158
 1368TIP3    H2 4069   6.232   2.857   5.139
 1369TIP3   OH2 4070   4.487   3.313   3.611
 1369TIP3    H1 4071   4.444   3.399   3.615
 1369TIP3    H2 4072   4.465   3.280   3.524
 1370TIP3   OH2 4073   4.421   6.001   4.197
 1370TIP3    H1 4074   4.346   5.955   4.234
 1370TIP3    H2 4075   4.412   6.091   4.228
 1371TIP3   OH2 4076   2.731   5.397   4.712
 1371TIP3    H1 4077   2.806   5.456   4.706
 1371TIP3    H2 4078   2.670   5.442   4.770
 1372TIP3   OH2 4079   3.739   0.995   2.775
 1372TIP3    H1 4080   3.691   1.032   2.700
 1372TIP3    H2 4081   3.707   0.905   2.781
 1373TIP3   OH2 4082   6.700   4.218   4.664
 1373TIP3    H1 4083   6.660   4.266   4.736
 1373TIP3    H2 4084   6.629   4.207   4.600
 1374TIP3   OH2 4085   5.840   3.739   4.875
 1374TIP3    H1 4086   5.832   3.735   4.779
 1374TIP3    H2 4087   5.803   3.657   4.906
 1375TIP3   OH2 4088   4.914   1.872   0.231
 1375TIP3    H1 4089   4.992   1.928   0.233
 1375TIP3    H2 4090   4.840   1.932   0.237
 1376TIP3   OH2 4091   4.423   6.072   2.965
 1376TIP3    H1 4092   4.408   6.139   2.899
 1376TIP3    H2 4093   4.476   6.006   2.920
 1377TIP3   OH2 4094   2.097   4.507   3.571
 1377TIP3    H1 4095   2.051   4.446   3.628
 1377TIP3    H2 4096   2.190   4.497   3.594
 1378TIP3   OH2 4097   4.924   6.062   2.282
 1378TIP3    H1 4098   4.979   6.061   2.360
 1378TIP3    H2 4099   4.866   5.986   2.292
 1379TIP3   OH2 4100   3.428   3.417   3.868
 1379TIP3    H1 4101   3.495   3.454   3.810
 1379TIP3    H2 4102   3.426   3.477   3.943
 1380TIP3   OH2 4103   2.034   0.746   1.295
 1380TIP3    H1 4104   1.957   0.732   1.351
 1380TIP3    H2 4105   2.007   0.813   1.233
 1381TIP3   OH2 4106   6.241   4.743   4.279
 1381TIP3    H1 4107   6.278   4.832   4.280
 1381TIP3    H2 4108   6.201   4.734   4.193
 1382TIP3   OH2 4109   5.158   1.727   1.414
 1382TIP3    H1 4110   5.201   1.745   1.498
 1382TIP3    H2 4111   5.072   1.767   1.422
 1383TIP3   OH2 4112   1.912   5.789   1.759
 1383TIP3    H1 4113   1.831   5.839   1.769
 1383TIP3    H2 4114   1.898   5.737   1.680
 1384TIP3   OH2 4115   2.455   0.526   0.456
 1384TIP3    H1 4116   2.411   0.481   0.384
 1384TIP3    H2 4117   2.481   0.610   0.420
 1385TIP3   OH2 4118   2.620   1.730   1.182
 1385TIP3    H1 4119   2.597   1.799   1.120
 1385TIP3    H2 4120   2.564   1.656   1.157
 1386TIP3   OH2 4121   5.674   6.532   5.649
 1386TIP3    H1 4122   5.672   6.619   5.610
 1386TIP3    H2 4123   5.755   6.531   5.699
 1387TIP3   OH2 4124   3.953   6.124   3.159
 1387TIP3    H1 4125   4.001   6.109   3.240
 1387TIP3    H2 4126   3.913   6.211   3.171
 1388TIP3   OH2 4127   6.997   6.584   5.547
 1388TIP3    H1 4128   6.991   6.510   5.487
 1388TIP3    H2 4129   6.993   6.661   5.490
 1389TIP3   OH2 4130   1.672   2.275   1.039
 1389TIP3    H1 4131   1.761   2.298   1.066
 1389TIP3    H2 4132   1.683   2.214   0.966
 1390TIP3   OH2 4133   3.582   3.675   5.744
 1390TIP3    H1 4134   3.549   3.673   5.834
 1390TIP3    H2 4135   3.569   3.586   5.712
 1391TIP3   OH2 4136   4.677   3.818   5.852
 1391TIP3    H1 4137   4.641   3.758   5.787
 1391TIP3    H2 4138   4.686   3.901   5.805
 1392TIP3   OH2 4139   5.442   2.132   4.778
 1392TIP3    H1 4140   5.423   2.041   4.801
 1392TIP3    H2 4141   5.505   2.126   4.706
 1393TIP3   OH2 4142   2.938   2.616   0.773
 1393TIP3    H1 4143   2.986   2.572   0.843
 1393TIP3    H2 4144   2.990   2.694   0.753
 1394TIP3   OH2 4145   2.780   6.282   2.949
 1394TIP3    H1 4146   2.819   6.194   2.949
 1394TIP3    H2 4147   2.838   6.333   2.893
 1395TIP3   OH2 4148   4.729   4.172   1.735
 1395TIP3    H1 4149   4.654   4.127   1.773
 1395TIP3    H2 4150   4.708   4.265   1.743
 1396TIP3   OH2 4151   2.312   2.001   4.295
 1396TIP3    H1 4152   2.230   2.037   4.261
 1396TIP3    H2 4153   2.372   2.075   4.296
 1397TIP3   OH2 4154   3.750   6.416   0.900
 1397TIP3    H1 4155   3.706   6.333   0.921
 1397TIP3    H2 4156   3.840   6.404   0.928
 1398TIP3   OH2 4157   0.327   1.863   0.751
 1398TIP3    H1 4158   0.415   1.888   0.724
 1398TIP3    H2 4159   0.270   1.902   0.685
 1399TIP3   OH2 4160   1.930   5.502   4.702
 1399TIP3    H1 4161   2.013   5.461   4.728
 1399TIP3    H2 4162   1.884   5.517   4.785
 1400TIP3   OH2 4163   4.665   4.057   2.346
 1400TIP3    H1 4164   4.617   4.035   2.266
 1400TIP3    H2 4165   4.724   3.983   2.359
 1401TIP3   OH2 4166   1.249   5.709   3.005
 1401TIP3    H1 4167   1.251   5.711   3.101
 1401TIP3    H2 4168   1.202   5.629   2.984
 1402TIP3   OH2 4169   2.875   0.731   4.149
 1402TIP3    H1 4170   2.885   0.819   4.114
 1402TIP3    H2 4171   2.788   0.703   4.119
 1403TIP3   OH2 4172   0.290   5.063   1.310
 1403TIP3    H1 4173   0.274   5.093   1.220
 1403TIP3    H2 4174   0.274   5.140   1.364
 1404TIP3   OH2 4175   4.639   6.647   1.927
 1404TIP3    H1 4176   4.710   6.585   1.942
 1404TIP3    H2 4177   4.646   6.669   1.834
 1405TIP3   OH2 4178   2.475   6.131   4.517
 1405TIP3    H1 4179   2.457   6.124   4.423
 1405TIP3    H2 4180   2.444   6.048   4.554
 1406TIP3   OH2 4181   6.517   0.633   3.607
 1406TIP3    H1 4182   6.481   0.709   3.561
 1406TIP3    H2 4183   6.441   0.588   3.643
 1407TIP3   OH2 4184   1.783   2.941   1.524
 1407TIP3    H1 4185   1.788   2.926   1.430
 1407TIP3    H2 4186   1.870   2.976   1.547
 1408TIP3   OH2 4187   5.975   3.421   5.552
 1408TIP3    H1 4188   5.935   3.466   5.477
 1408TIP3    H2 4189   5.994   3.491   5.615
 1409TIP3   OH2 4190   3.916   4.945   4.096
 1409TIP3    H1 4191   3.988   4.931   4.035
 1409TIP3    H2 4192   3.917   4.868   4.153
 1410TIP3   OH2 4193   5.480   2.326   3.921
 1410TIP3    H1 4194   5.475   2.421   3.914
 1410TIP3    H2 4195   5.398   2.295   3.883
 1411TIP3   OH2 4196   5.374   3.390   4.767
 1411TIP3    H1 4197   5.427   3.469   4.760
 1411TIP3    H2 4198   5.340   3.392   4.857
 1412TIP3   OH2 4199   3.371   6.685   5.644
 1412TIP3    H1 4200   3.309   6.729   5.701
 1412TIP3    H2 4201   3.325   6.606   5.614
 1413TIP3   OH2 4202   2.284   0.981   5.622
 1413TIP3    H1 4203   2.210   1.007   5.567
 1413TIP3    H2 4204   2.333   1.062   5.636
 1414TIP3   OH2 4205   0.925   3.096   5.545
 1414TIP3    H1 4206   0.858   3.028   5.542
 1414TIP3    H2 4207   0.881   3.175   5.513
 1415TIP3   OH2 4208   0.019   0.624   2.476
 1415TIP3    H1 4209  -0.009   0.555   2.535
 1415TIP3    H2 4210   0.105   0.650   2.508
 1416TIP3   OH2 4211   5.369   3.686   3.796
 1416TIP3    H1 4212   5.330   3.687   3.709
 1416TIP3    H2 4213   5.309   3.632   3.849
 1417TIP3   OH2 4214   3.925   1.208   2.747
 1417TIP3    H1 4215   3.951   1.223   2.837
 1417TIP3    H2 4216   3.856   1.142   2.752
 1418TIP3   OH2 4217   4.418   5.467   4.523
 1418TIP3    H1 4218   4.487   5.528   4.499
 1418TIP3    H2 4219   4.395   5.423   4.441
 1419TIP3   OH2 4220   7.033   1.601   5.426
 1419TIP3    H1 4221   7.004   1.692   5.419
 1419TIP3    H2 4222   6.982   1.554   5.359
 1420TIP3   OH2 4223   5.171   0.469   5.553
 1420TIP3    H1 4224   5.172   0.562   5.577
 1420TIP3    H2 4225   5.078   0.446   5.553
 1421TIP3   OH2 4226   1.597   5.347   0.669
 1421TIP3    H1 4227   1.600   5.431   0.716
 1421TIP3    H2 4228   1.518   5.304   0.702
 1422TIP3   OH2 4229   1.539   6.554   3.558
 1422TIP3    H1 4230   1.577   6.641   3.547
 1422TIP3    H2 4231   1.515   6.550   3.651
 1423TIP3   OH2 4232   7.050   4.597   5.726
 1423TIP3    H1 4233   7.064   4.542   5.803
 1423TIP3    H2 4234   6.970   4.564   5.686
 1424TIP3   OH2 4235   6.209   3.006   0.971
 1424TIP3    H1 4236   6.277   2.942   0.948
 1424TIP3    H2 4237   6.200   2.998   1.066
 1425TIP3   OH2 4238   6.460   1.402   0.744
 1425TIP3    H1 4239   6.469   1.482   0.797
 1425TIP3    H2 4240   6.446   1.433   0.655
 1426TIP3   OH2 4241   0.267   6.020   3.418
 1426TIP3    H1 4242   0.262   6.083   3.490
 1426TIP3    H2 4243   0.187   5.968   3.427
 1427TIP3   OH2 4244   6.009   0.371   3.902
 1427TIP3    H1 4245   6.019   0.275   3.899
 1427TIP3    H2 4246   6.097   0.404   3.882
 1428TIP3   OH2 4247   5.086   5.688   3.098
 1428TIP3    H1 4248   5.005   5.723   3.061
 1428TIP3    H2 4249   5.136   5.765   3.124
 1429TIP3   OH2 4250   3.239   1.680   5.127
 1429TIP3    H1 4251   3.207   1.768   5.110
 1429TIP3    H2 4252   3.162   1.624   5.121
 1430TIP3   OH2 4253   2.289   5.452   5.195
 1430TIP3    H1 4254   2.196   5.469   5.180
 1430TIP3    H2 4255   2.319   5.412   5.113
 1431TIP3   OH2 4256   5.070   1.447   0.638
 1431TIP3    H1 4257   5.134   1.516   0.653
 1431TIP3    H2 4258   5.027   1.435   0.723
 1432TIP3   OH2 4259   2.975   6.761   1.352
 1432TIP3    H1 4260   3.014   6.756   1.265
 1432TIP3    H2 4261   3.050   6.765   1.412
 1433TIP3   OH2 4262   7.154   3.424   0.896
 1433TIP3    H1 4263   7.140   3.402   0.804
 1433TIP3    H2 4264   7.220   3.361   0.926
 1434TIP3   OH2 4265   1.497   3.396   4.834
 1434TIP3    H1 4266   1.435   3.385   4.906
 1434TIP3    H2 4267   1.464   3.339   4.765
 1435TIP3   OH2 4268   2.150   0.842   5.160
 1435TIP3    H1 4269   2.171   0.762   5.208
 1435TIP3    H2 4270   2.150   0.911   5.226
 1436TIP3   OH2 4271   5.817   0.142   5.461
 1436TIP3    H1 4272   5.797   0.074   5.525
 1436TIP3    H2 4273   5.904   0.121   5.429
 1437TIP3   OH2 4274   2.819   2.296   0.306
 1437TIP3    H1 4275   2.875   2.338   0.371
 1437TIP3    H2 4276   2.854   2.208   0.296
 1438TIP3   OH2 4277   0.037   6.324   5.571
 1438TIP3    H1 4278  -0.005   6.305   5.487
 1438TIP3    H2 4279   0.071   6.414   5.561
 1439TIP3   OH2 4280   0.951   2.416   2.356
 1439TIP3    H1 4281   0.935   2.378   2.443
 1439TIP3    H2 4282   1.034   2.463   2.365
 1440TIP3   OH2 4283   6.262   4.030   4.009
 1440TIP3    H1 4284   6.189   4.029   4.072
 1440TIP3    H2 4285   6.223   4.061   3.928
 1441TIP3   OH2 4286   0.505   4.674   1.633
 1441TIP3    H1 4287   0.488   4.755   1.682
 1441TIP3    H2 4288   0.587   4.641   1.670
 1442TIP3   OH2 4289   4.746   2.078   5.698
 1442TIP3    H1 4290   4.805   2.139   5.656
 1442TIP3    H2 4291   4.773   2.078   5.790
 1443TIP3   OH2 4292   2.091   6.498   1.486
 1443TIP3    H1 4293   2.001   6.471   1.471
 1443TIP3    H2 4294   2.084   6.577   1.539
 1444TIP3   OH2 4295   1.249   6.601   2.791
 1444TIP3    H1 4296   1.278   6.589   2.882
 1444TIP3    H2 4297   1.153   6.595   2.796
 1445TIP3   OH2 4298   4.375   0.040   4.373
 1445TIP3    H1 4299   4.431  -0.037   4.359
 1445TIP3    H2 4300   4.341   0.030   4.462
 1446TIP3   OH2 4301   6.403   4.505   2.499
 1446TIP3    H1 4302   6.444   4.529   2.416
 1446TIP3    H2 4303   6.394   4.410   2.495
 1447TIP3   OH2 4304   2.347   2.371   0.089
 1447TIP3    H1 4305   2.321   2.303   0.152
 1447TIP3    H2 4306   2.415   2.330   0.036
 1448TIP3   OH2 4307   5.247   1.796   0.396
 1448TIP3    H1 4308   5.292   1.825   0.475
 1448TIP3    H2 4309   5.196   1.872   0.368
 1449TIP3   OH2 4310   1.144   0.776   1.375
 1449TIP3    H1 4311   1.100   0.851   1.415
 1449TIP3    H2 4312   1.237   0.801   1.373
 1450TIP3   OH2 4313   4.392   6.165   1.448
 1450TIP3    H1 4314   4.346   6.248   1.460
 1450TIP3    H2 4315   4.452   6.181   1.375
 1451TIP3   OH2 4316   2.245   3.338   2.945
 1451TIP3    H1 4317   2.249   3.243   2.932
 1451TIP3    H2 4318   2.199   3.371   2.868
 1452TIP3   OH2 4319   6.304   5.681   3.286
 1452TIP3    H1 4320   6.291   5.595   3.327
 1452TIP3    H2 4321   6.232   5.689   3.224
 1453TIP3   OH2 4322   6.782   0.323   0.997
 1453TIP3    H1 4323   6.875   0.320   1.021
 1453TIP3    H2 4324   6.763   0.415   0.983
 1454TIP3   OH2 4325   1.018   6.559   0.154
 1454TIP3    H1 4326   1.079   6.507   0.207
 1454TIP3    H2 4327   0.972   6.494   0.101
 1455TIP3   OH2 4328   5.919   4.410   1.733
 1455TIP3    H1 4329   6.011   4.435   1.738
 1455TIP3    H2 4330   5.921   4.316   1.714
 1456TIP3   OH2 4331   3.288   5.270   2.822
 1456TIP3    H1 4332   3.379   5.256   2.795
 1456TIP3    H2 4333   3.241   5.286   2.740
 1457TIP3   OH2 4334   0.273   1.106   0.132
 1457TIP3    H1 4335   0.336   1.040   0.162
 1457TIP3    H2 4336   0.221   1.061   0.066
 1458TIP3   OH2 4337   0.946   5.691   4.351
 1458TIP3    H1 4338   0.921   5.598   4.352
 1458TIP3    H2 4339   0.945   5.717   4.443
 1459TIP3   OH2 4340   5.935   3.365   4.030
 1459TIP3    H1 4341   5.959   3.416   3.952
 1459TIP3    H2 4342   5.849   3.400   4.056
 1460TIP3   OH2 4343   6.634   5.453   1.748
 1460TIP3    H1 4344   6.554   5.404   1.734
 1460TIP3    H2 4345   6.671   5.417   1.829
 1461TIP3   OH2 4346   0.711   1.678   4.841
 1461TIP3    H1 4347   0.691   1.629   4.920
 1461TIP3    H2 4348   0.656   1.637   4.773
 1462TIP3   OH2 4349   5.107   4.087   3.786
 1462TIP3    H1 4350   5.187   4.072   3.735
 1462TIP3    H2 4351   5.037   4.090   3.721
 1463TIP3   OH2 4352   7.124   2.491   3.727
 1463TIP3    H1 4353   7.154   2.510   3.638
 1463TIP3    H2 4354   7.192   2.434   3.763
 1464TIP3   OH2 4355   7.157   5.920   1.414
 1464TIP3    H1 4356   7.095   5.944   1.345
 1464TIP3    H2 4357   7.148   5.825   1.423
 1465TIP3   OH2 4358   3.466   4.533   3.545
 1465TIP3    H1 4359   3.482   4.502   3.456
 1465TIP3    H2 4360   3.372   4.553   3.546
 1466TIP3   OH2 4361   3.046   1.228   3.332
 1466TIP3    H1 4362   3.097   1.302   3.365
 1466TIP3    H2 4363   2.996   1.264   3.259
 1467TIP3   OH2 4364   2.071   1.474   2.161
 1467TIP3    H1 4365   2.069   1.563   2.196
 1467TIP3    H2 4366   2.124   1.481   2.081
 1468TIP3   OH2 4367   6.155   0.330   0.387
 1468TIP3    H1 4368   6.211   0.253   0.392
 1468TIP3    H2 4369   6.182   0.374   0.306
 1469TIP3   OH2 4370   0.352   0.797   4.304
 1469TIP3    H1 4371   0.348   0.870   4.242
 1469TIP3    H2 4372   0.442   0.797   4.336
 1470TIP3   OH2 4373   6.824   0.602   0.204
 1470TIP3    H1 4374   6.826   0.687   0.160
 1470TIP3    H2 4375   6.763   0.549   0.152
 1471TIP3   OH2 4376   5.186   5.028   1.126
 1471TIP3    H1 4377   5.257   5.027   1.191
 1471TIP3    H2 4378   5.116   4.978   1.167
 1472TIP3   OH2 4379   2.055   0.193   4.441
 1472TIP3    H1 4380   2.081   0.243   4.364
 1472TIP3    H2 4381   1.984   0.244   4.480
 1473TIP3   OH2 4382   5.673   4.513   3.727
 1473TIP3    H1 4383   5.729   4.440   3.701
 1473TIP3    H2 4384   5.648   4.555   3.645
 1474TIP3   OH2 4385   1.431   1.813   0.487
 1474TIP3    H1 4386   1.430   1.718   0.487
 1474TIP3    H2 4387   1.488   1.837   0.560
 1475TIP3   OH2 4388   1.545   1.354   5.168
 1475TIP3    H1 4389   1.500   1.270   5.177
 1475TIP3    H2 4390   1.482   1.411   5.126
 1476TIP3   OH2 4391   2.263   3.741   4.894
 1476TIP3    H1 4392   2.219   3.678   4.952
 1476TIP3    H2 4393   2.342   3.695   4.866
 1477TIP3   OH2 4394   2.245   4.822   3.313
 1477TIP3    H1 4395   2.238   4.786   3.225
 1477TIP3    H2 4396   2.298   4.901   3.302
 1478TIP3   OH2 4397   5.972   5.638   2.691
 1478TIP3    H1 4398   5.978   5.688   2.772
 1478TIP3    H2 4399   5.933   5.698   2.628
 1479TIP3   OH2 4400   4.144   2.430   3.386
 1479TIP3    H1 4401   4.075   2.419   3.451
 1479TIP3    H2 4402   4.221   2.389   3.426
 1480TIP3   OH2 4403   4.215   6.749   0.334
 1480TIP3    H1 4404   4.261   6.795   0.404
 1480TIP3    H2 4405   4.254   6.662   0.332
 1481TIP3   OH2 4406   6.541   6.555   1.995
 1481TIP3    H1 4407   6.587   6.590   2.071
 1481TIP3    H2 4408   6.610   6.537   1.930
 1482TIP3   OH2 4409   3.180   2.585   1.811
 1482TIP3    H1 4410   3.265   2.572   1.852
 1482TIP3    H2 4411   3.130   2.636   1.875
 1483TIP3   OH2 4412   5.570   2.418   5.182
 1483TIP3    H1 4413   5.514   2.403   5.259
 1483TIP3    H2 4414   5.513   2.464   5.120
 1484TIP3   OH2 4415   4.476   5.017   4.368
 1484TIP3    H1 4416   4.533   5.062   4.306
 1484TIP3    H2 4417   4.524   4.937   4.390
 1485TIP3   OH2 4418   0.449   3.813   5.262
 1485TIP3    H1 4419   0.495   3.793   5.343
 1485TIP3    H2 4420   0.361   3.838   5.290
 1486TIP3   OH2 4421   0.107   5.431   2.796
 1486TIP3    H1 4422   0.062   5.472   2.869
 1486TIP3    H2 4423   0.152   5.503   2.752
 1487TIP3   OH2 4424   3.258   5.913   5.037
 1487TIP3    H1 4425   3.334   5.940   4.986
 1487TIP3    H2 4426   3.186   5.966   5.002
 1488TIP3   OH2 4427   3.973   6.440   1.289
 1488TIP3    H1 4428   4.034   6.507   1.258
 1488TIP3    H2 4429   3.968   6.377   1.217
 1489TIP3   OH2 4430   2.345   3.018   3.486
 1489TIP3    H1 4431   2.277   2.967   3.441
 1489TIP3    H2 4432   2.330   3.108   3.458
 1490TIP3   OH2 4433   6.881   2.581   4.758
 1490TIP3    H1 4434   6.920   2.563   4.673
 1490TIP3    H2 4435   6.789   2.594   4.740
 1491TIP3   OH2 4436   0.300   2.997   3.667
 1491TIP3    H1 4437   0.254   2.913   3.668
 1491TIP3    H2 4438   0.242   3.056   3.715
 1492TIP3   OH2 4439   1.166   3.653   3.540
 1492TIP3    H1 4440   1.071   3.643   3.544
 1492TIP3    H2 4441   1.182   3.741   3.574
 1493TIP3   OH2 4442   6.167   3.388   0.963
 1493TIP3    H1 4443   6.086   3.338   0.967
 1493TIP3    H2 4444   6.144   3.469   0.918
 1494TIP3   OH2 4445   0.767   3.484   3.260
 1494TIP3    H1 4446   0.850   3.522   3.289
 1494TIP3    H2 4447   0.705   3.508   3.329
 1495TIP3   OH2 4448   3.988   4.911   4.885
 1495TIP3    H1 4449   4.007   4.979   4.821
 1495TIP3    H2 4450   3.897   4.885   4.867
 1496TIP3   OH2 4451   4.137   1.179   5.787
 1496TIP3    H1 4452   4.046   1.194   5.814
 1496TIP3    H2 4453   4.151   1.085   5.802
 1497TIP3   OH2 4454   2.976   3.702   0.587
 1497TIP3    H1 4455   2.934   3.714   0.502
 1497TIP3    H2 4456   3.062   3.743   0.578
 1498TIP3   OH2 4457   1.315   2.074   4.686
 1498TIP3    H1 4458   1.236   2.123   4.664
 1498TIP3    H2 4459   1.387   2.127   4.651
 1499TIP3   OH2 4460   3.993   1.114   1.356
 1499TIP3    H1 4461   3.929   1.118   1.427
 1499TIP3    H2 4462   3.963   1.042   1.301
 1500TIP3   OH2 4463   3.229   3.793   0.508
 1500TIP3    H1 4464   3.290   3.779   0.580
 1500TIP3    H2 4465   3.258   3.874   0.467
 1501TIP3   OH2 4466   0.001   1.532   4.413
 1501TIP3    H1 4467   0.033   1.460   4.468
 1501TIP3    H2 4468   0.073   1.595   4.414
 1502TIP3   OH2 4469   3.078   4.050   1.060
 1502TIP3    H1 4470   3.080   3.954   1.054
 1502TIP3    H2 4471   3.068   4.079   0.970
 1503TIP3   OH2 4472   0.642   5.875   2.099
 1503TIP3    H1 4473   0.617   5.810   2.033
 1503TIP3    H2 4474   0.655   5.956   2.049
 1504TIP3   OH2 4475   6.733   2.244   4.854
 1504TIP3    H1 4476   6.721   2.149   4.858
 1504TIP3    H2 4477   6.827   2.257   4.869
 1505TIP3   OH2 4478   3.597   1.726   2.886
 1505TIP3    H1 4479   3.646   1.806   2.906
 1505TIP3    H2 4480   3.628   1.701   2.799
 1506TIP3   OH2 4481   7.058   1.179   4.495
 1506TIP3    H1 4482   7.006   1.117   4.547
 1506TIP3    H2 4483   7.012   1.262   4.504
 1507TIP3   OH2 4484   5.444   4.743   1.378
 1507TIP3    H1 4485   5.510   4.677   1.399
 1507TIP3    H2 4486   5.361   4.696   1.379
 1508TIP3   OH2 4487   4.102   5.896   2.950
 1508TIP3    H1 4488   4.180   5.905   2.896
 1508TIP3    H2 4489   4.044   5.839   2.899
 1509TIP3   OH2 4490   2.133   5.749   3.585
 1509TIP3    H1 4491   2.080   5.692   3.641
 1509TIP3    H2 4492   2.212   5.766   3.636
 1510TIP3   OH2 4493   0.973   4.571   4.889
 1510TIP3    H1 4494   0.944   4.488   4.852
 1510TIP3    H2 4495   0.971   4.557   4.984
 1511TIP3   OH2 4496   4.873   5.611   5.778
 1511TIP3    H1 4497   4.798   5.551   5.785
 1511TIP3    H2 4498   4.915   5.586   5.696
 1512TIP3   OH2 4499   5.911   5.578   2.397
 1512TIP3    H1 4500   5.903   5.541   2.310
 1512TIP3    H2 4501   5.950   5.509   2.450
 1513TIP3   OH2 4502   0.655   1.951   1.836
 1513TIP3    H1 4503   0.641   2.036   1.879
 1513TIP3    H2 4504   0.606   1.889   1.889
 1514TIP3   OH2 4505   3.726   5.446   0.037
 1514TIP3    H1 4506   3.821   5.443   0.027
 1514TIP3    H2 4507   3.710   5.524   0.091
 1515TIP3   OH2 4508   4.459   0.892   2.435
 1515TIP3    H1 4509   4.542   0.856   2.466
 1515TIP3    H2 4510   4.394   0.827   2.461
 1516TIP3   OH2 4511   4.810   3.433   0.919
 1516TIP3    H1 4512   4.839   3.346   0.945
 1516TIP3    H2 4513   4.887   3.472   0.877
 1517TIP3   OH2 4514   5.571   4.413   4.918
 1517TIP3    H1 4515   5.646   4.416   4.859
 1517TIP3    H2 4516   5.495   4.416   4.860
 1518TIP3   OH2 4517   3.430   3.804   4.647
 1518TIP3    H1 4518   3.422   3.778   4.555
 1518TIP3    H2 4519   3.388   3.733   4.696
 1519TIP3   OH2 4520   5.990   1.177   5.451
 1519TIP3    H1 4521   5.904   1.190   5.490
 1519TIP3    H2 4522   6.053   1.207   5.517
 1520TIP3   OH2 4523   3.845   6.504   3.611
 1520TIP3    H1 4524   3.786   6.539   3.544
 1520TIP3    H2 4525   3.839   6.409   3.599
 1521TIP3   OH2 4526   5.567   5.754   5.030
 1521TIP3    H1 4527   5.562   5.843   4.994
 1521TIP3    H2 4528   5.656   5.726   5.010
 1522TIP3   OH2 4529   4.886   6.274   4.126
 1522TIP3    H1 4530   4.811   6.273   4.066
 1522TIP3    H2 4531   4.848   6.284   4.213
 1523TIP3   OH2 4532   2.473   2.546   5.488
 1523TIP3    H1 4533   2.516   2.518   5.407
 1523TIP3    H2 4534   2.525   2.507   5.558
 1524TIP3   OH2 4535   3.879   3.925   3.113
 1524TIP3    H1 4536   3.908   3.864   3.181
 1524TIP3    H2 4537   3.884   4.011   3.154
 1525TIP3   OH2 4538   2.073   4.853   1.166
 1525TIP3    H1 4539   2.075   4.947   1.185
 1525TIP3    H2 4540   1.988   4.824   1.200
 1526TIP3   OH2 4541   5.598   2.990   2.388
 1526TIP3    H1 4542   5.605   2.896   2.401
 1526TIP3    H2 4543   5.528   3.000   2.323
 1527TIP3   OH2 4544   5.860   2.018   0.009
 1527TIP3    H1 4545   5.877   1.938   0.059
 1527TIP3    H2 4546   5.877   2.089   0.071
 1528TIP3   OH2 4547   0.061   1.438   4.079
 1528TIP3    H1 4548   0.012   1.382   4.140
 1528TIP3    H2 4549   0.121   1.488   4.134
 1529TIP3   OH2 4550   0.078   1.819   5.198
 1529TIP3    H1 4551   0.037   1.904   5.215
 1529TIP3    H2 4552   0.016   1.773   5.141
 1530TIP3   OH2 4553   4.541   5.727   3.671
 1530TIP3    H1 4554   4.599   5.716   3.596
 1530TIP3    H2 4555   4.587   5.684   3.744
 1531TIP3   OH2 4556   6.808   5.585   2.111
 1531TIP3    H1 4557   6.812   5.494   2.081
 1531TIP3    H2 4558   6.737   5.586   2.176
 1532TIP3   OH2 4559   2.875   3.730   4.631
 1532TIP3    H1 4560   2.877   3.735   4.726
 1532TIP3    H2 4561   2.800   3.784   4.605
 1533TIP3   OH2 4562   6.029   0.937   3.639
 1533TIP3    H1 4563   5.976   0.901   3.710
 1533TIP3    H2 4564   5.970   0.938   3.564
 1534TIP3   OH2 4565   3.776   6.238   3.564
 1534TIP3    H1 4566   3.726   6.208   3.488
 1534TIP3    H2 4567   3.709   6.254   3.631
 1535TIP3   OH2 4568   5.276   3.095   1.302
 1535TIP3    H1 4569   5.305   3.044   1.227
 1535TIP3    H2 4570   5.356   3.118   1.349
 1536TIP3   OH2 4571   2.732   4.727   3.490
 1536TIP3    H1 4572   2.720   4.802   3.432
 1536TIP3    H2 4573   2.650   4.679   3.486
 1537TIP3   OH2 4574   6.917   0.671   2.597
 1537TIP3    H1 4575   6.981   0.600   2.598
 1537TIP3    H2 4576   6.909   0.695   2.505
 1538TIP3   OH2 4577   6.947   0.103   3.046
 1538TIP3    H1 4578   6.886   0.150   2.989
 1538TIP3    H2 4579   6.895   0.080   3.123
 1539TIP3   OH2 4580   0.774   6.014   0.551
 1539TIP3    H1 4581   0.700   5.956   0.536
 1539TIP3    H2 4582   0.764   6.043   0.642
 1540TIP3   OH2 4583   0.660   4.786   1.169
 1540TIP3    H1 4584   0.670   4.807   1.262
 1540TIP3    H2 4585   0.656   4.690   1.167
 1541TIP3   OH2 4586   3.661   4.205   5.425
 1541TIP3    H1 4587   3.753   4.214   5.451
 1541TIP3    H2 4588   3.664   4.185   5.332
 1542TIP3   OH2 4589   4.903   5.927   0.574
 1542TIP3    H1 4590   4.905   5.947   0.480
 1542TIP3    H2 4591   4.811   5.936   0.598
 1543TIP3   OH2 4592   1.594   4.108   1.583
 1543TIP3    H1 4593   1.685   4.094   1.608
 1543TIP3    H2 4594   1.580   4.202   1.597
 1544TIP3   OH2 4595   6.278   6.471   2.949
 1544TIP3    H1 4596   6.287   6.433   2.862
 1544TIP3    H2 4597   6.308   6.403   3.009
 1545TIP3   OH2 4598   6.494   4.543   0.602
 1545TIP3    H1 4599   6.588   4.532   0.590
 1545TIP3    H2 4600   6.486   4.624   0.653
 1546TIP3   OH2 4601   1.548   6.745   5.079
 1546TIP3    H1 4602   1.587   6.767   5.163
 1546TIP3    H2 4603   1.565   6.651   5.068
 1547TIP3   OH2 4604   2.490   0.482   4.658
 1547TIP3    H1 4605   2.574   0.435   4.660
 1547TIP3    H2 4606   2.500   0.546   4.587
 1548TIP3   OH2 4607   4.592   6.458   2.381
 1548TIP3    H1 4608   4.577   6.549   2.405
 1548TIP3    H2 4609   4.687   6.449   2.380
 1549TIP3   OH2 4610   4.631   1.983   4.372
 1549TIP3    H1 4611   4.699   1.934   4.418
 1549TIP3    H2 4612   4.550   1.935   4.389
 1550TIP3   OH2 4613   5.887   4.974   0.753
 1550TIP3    H1 4614   5.951   4.914   0.714
 1550TIP3    H2 4615   5.940   5.046   0.787
 1551TIP3   OH2 4616   0.327   5.846   5.208
 1551TIP3    H1 4617   0.252   5.803   5.167
 1551TIP3    H2 4618   0.309   5.842   5.302
 1552TIP3   OH2 4619   2.441   5.806   2.206
 1552TIP3    H1 4620   2.451   5.858   2.127
 1552TIP3    H2 4621   2.348   5.815   2.229
 1553TIP3   OH2 4622   3.880   1.218   2.210
 1553TIP3    H1 4623   3.962   1.254   2.177
 1553TIP3    H2 4624   3.829   1.295   2.236
 1554TIP3   OH2 4625   4.800   0.544   3.441
 1554TIP3    H1 4626   4.721   0.547   3.386
 1554TIP3    H2 4627   4.856   0.479   3.399
 1555TIP3   OH2 4628   4.406   4.707   1.618
 1555TIP3    H1 4629   4.381   4.659   1.697
 1555TIP3    H2 4630   4.339   4.776   1.610
 1556TIP3   OH2 4631   4.167   2.670   4.142
 1556TIP3    H1 4632   4.162   2.642   4.233
 1556TIP3    H2 4633   4.226   2.607   4.100
 1557TIP3   OH2 4634   3.230   4.671   0.287
 1557TIP3    H1 4635   3.206   4.581   0.306
 1557TIP3    H2 4636   3.162   4.702   0.226
 1558TIP3   OH2 4637   4.929   2.068   2.445
 1558TIP3    H1 4638   4.945   2.145   2.391
 1558TIP3    H2 4639   4.835   2.053   2.438
 1559TIP3   OH2 4640   6.854   3.431  -0.013
 1559TIP3    H1 4641   6.870   3.437   0.081
 1559TIP3    H2 4642   6.867   3.520  -0.045
 1560TIP3   OH2 4643   5.368   2.183   2.717
 1560TIP3    H1 4644   5.306   2.177   2.644
 1560TIP3    H2 4645   5.321   2.233   2.784
 1561TIP3   OH2 4646   1.760   5.748   4.056
 1561TIP3    H1 4647   1.772   5.812   4.126
 1561TIP3    H2 4648   1.788   5.665   4.093
 1562TIP3   OH2 4649   5.366   2.019   1.598
 1562TIP3    H1 4650   5.370   1.946   1.660
 1562TIP3    H2 4651   5.273   2.025   1.575
 1563TIP3   OH2 4652   1.836   4.843   1.292
 1563TIP3    H1 4653   1.770   4.866   1.227
 1563TIP3    H2 4654   1.812   4.754   1.319
 1564TIP3   OH2 4655   6.035   3.355   0.296
 1564TIP3    H1 4656   6.059   3.399   0.378
 1564TIP3    H2 4657   5.951   3.394   0.272
 1565TIP3   OH2 4658   7.138   6.188   1.751
 1565TIP3    H1 4659   7.096   6.213   1.668
 1565TIP3    H2 4660   7.200   6.119   1.726
 1566TIP3   OH2 4661   6.275   4.851   3.363
 1566TIP3    H1 4662   6.264   4.845   3.268
 1566TIP3    H2 4663   6.366   4.826   3.379
 1567TIP3   OH2 4664   4.558   3.850   3.078
 1567TIP3    H1 4665   4.605   3.868   2.996
 1567TIP3    H2 4666   4.614   3.887   3.146
 1568TIP3   OH2 4667   1.851   3.819   3.633
 1568TIP3    H1 4668   1.881   3.902   3.596
 1568TIP3    H2 4669   1.796   3.781   3.565
 1569TIP3   OH2 4670   4.737   0.079   3.407
 1569TIP3    H1 4671   4.734  -0.015   3.426
 1569TIP3    H2 4672   4.786   0.086   3.325
 1570TIP3   OH2 4673   3.251   5.976   3.338
 1570TIP3    H1 4674   3.171   5.998   3.290
 1570TIP3    H2 4675   3.296   6.060   3.348
 1571TIP3   OH2 4676   2.681   3.822   2.649
 1571TIP3    H1 4677   2.602   3.799   2.697
 1571TIP3    H2 4678   2.749   3.765   2.686
 1572TIP3   OH2 4679   1.248   0.954   3.448
 1572TIP3    H1 4680   1.307   1.028   3.463
 1572TIP3    H2 4681   1.297   0.895   3.391
 1573TIP3   OH2 4682   1.804   0.620   2.605
 1573TIP3    H1 4683   1.871   0.670   2.558
 1573TIP3    H2 4684   1.774   0.554   2.542
 1574TIP3   OH2 4685   6.744   2.279   5.540
 1574TIP3    H1 4686   6.764   2.226   5.463
 1574TIP3    H2 4687   6.652   2.259   5.558
 1575TIP3   OH2 4688   1.848   3.831   0.665
 1575TIP3    H1 4689   1.874   3.739   0.662
 1575TIP3    H2 4690   1.875   3.862   0.751
 1576TIP3   OH2 4691   4.428   2.954   0.089
 1576TIP3    H1 4692   4.346   3.001   0.072
 1576TIP3    H2 4693   4.485   2.976   0.016
 1577TIP3   OH2 4694   1.076   0.511   1.453
 1577TIP3    H1 4695   1.111   0.588   1.409
 1577TIP3    H2 4696   1.002   0.543   1.504
 1578TIP3   OH2 4697   4.665   0.159   1.453
 1578TIP3    H1 4698   4.639   0.251   1.444
 1578TIP3    H2 4699   4.736   0.161   1.518
 1579TIP3   OH2 4700   3.909   3.196   4.169
 1579TIP3    H1 4701   3.943   3.234   4.250
 1579TIP3    H2 4702   3.817   3.177   4.188
 1580TIP3   OH2 4703   4.928   3.319   1.490
 1580TIP3    H1 4704   5.016   3.351   1.467
 1580TIP3    H2 4705   4.930   3.311   1.585
 1581TIP3   OH2 4706   1.165   2.833   3.509
 1581TIP3    H1 4707   1.131   2.811   3.595
 1581TIP3    H2 4708   1.106   2.788   3.448
 1582TIP3   OH2 4709   3.061   4.351   2.242
 1582TIP3    H1 4710   3.031   4.442   2.238
 1582TIP3    H2 4711   3.059   4.328   2.335
 1583TIP3   OH2 4712   0.137   5.962   4.374
 1583TIP3    H1 4713   0.170   5.938   4.288
 1583TIP3    H2 4714   0.050   5.921   4.378
 1584TIP3   OH2 4715   6.210   3.160   3.783
 1584TIP3    H1 4716   6.288   3.202   3.746
 1584TIP3    H2 4717   6.213   3.070   3.750
 1585TIP3   OH2 4718   2.615   5.354   5.122
 1585TIP3    H1 4719   2.674   5.305   5.066
 1585TIP3    H2 4720   2.660   5.359   5.206
 1586TIP3   OH2 4721   5.760   3.536   1.227
 1586TIP3    H1 4722   5.739   3.537   1.133
 1586TIP3    H2 4723   5.714   3.459   1.261
 1587TIP3   OH2 4724   5.435   1.386   0.272
 1587TIP3    H1 4725   5.490   1.464   0.259
 1587TIP3    H2 4726   5.346   1.417   0.256
 1588TIP3   OH2 4727   0.087   5.814   3.134
 1588TIP3    H1 4728   0.102   5.733   3.182
 1588TIP3    H2 4729  -0.004   5.837   3.155
 1589TIP3   OH2 4730   0.743   5.649   1.510
 1589TIP3    H1 4731   0.801   5.575   1.529
 1589TIP3    H2 4732   0.801   5.717   1.475
 1590TIP3   OH2 4733   6.811   4.548   1.932
 1590TIP3    H1 4734   6.775   4.610   1.995
 1590TIP3    H2 4735   6.873   4.599   1.880
 1591TIP3   OH2 4736   6.755   6.329   3.274
 1591TIP3    H1 4737   6.753   6.424   3.280
 1591TIP3    H2 4738   6.666   6.301   3.294
 1592TIP3   OH2 4739   1.140   4.095   3.019
 1592TIP3    H1 4740   1.220   4.062   2.978
 1592TIP3    H2 4741   1.097   4.017   3.054
 1593TIP3   OH2 4742   4.281   5.954   1.551
 1593TIP3    H1 4743   4.339   6.019   1.512
 1593TIP3    H2 4744   4.206   5.950   1.491
 1594TIP3   OH2 4745   5.775   3.396   0.093
 1594TIP3    H1 4746   5.713   3.379   0.022
 1594TIP3    H2 4747   5.780   3.492   0.098
 1595TIP3   OH2 4748   0.588   4.939   4.451
 1595TIP3    H1 4749   0.628   4.930   4.364
 1595TIP3    H2 4750   0.650   4.896   4.510
 1596TIP3   OH2 4751   6.007   2.374   5.399
 1596TIP3    H1 4752   6.072   2.392   5.467
 1596TIP3    H2 4753   6.032   2.289   5.363
 1597TIP3   OH2 4754   0.903   0.114   0.090
 1597TIP3    H1 4755   0.998   0.107   0.077
 1597TIP3    H2 4756   0.866   0.115   0.002
 1598TIP3   OH2 4757   4.141   5.587   4.302
 1598TIP3    H1 4758   4.220   5.554   4.261
 1598TIP3    H2 4759   4.131   5.536   4.382
 1599TIP3   OH2 4760   0.250   4.194   2.627
 1599TIP3    H1 4761   0.284   4.110   2.659
 1599TIP3    H2 4762   0.242   4.248   2.706
 1600TIP3   OH2 4763   3.385   4.972   1.519
 1600TIP3    H1 4764   3.373   4.888   1.474
 1600TIP3    H2 4765   3.324   5.031   1.475
 1601TIP3   OH2 4766   2.640   2.450   5.238
 1601TIP3    H1 4767   2.592   2.375   5.204
 1601TIP3    H2 4768   2.605   2.525   5.191
 1602TIP3   OH2 4769   3.268   5.769   0.637
 1602TIP3    H1 4770   3.335   5.707   0.667
 1602TIP3    H2 4771   3.185   5.725   0.655
 1603TIP3   OH2 4772   6.654   5.548   4.748
 1603TIP3    H1 4773   6.673   5.610   4.678
 1603TIP3    H2 4774   6.587   5.490   4.712
 1604TIP3   OH2 4775   1.637   1.633   5.447
 1604TIP3    H1 4776   1.703   1.587   5.396
 1604TIP3    H2 4777   1.553   1.595   5.420
 1605TIP3   OH2 4778   3.995   2.360   0.585
 1605TIP3    H1 4779   3.975   2.266   0.592
 1605TIP3    H2 4780   3.919   2.403   0.623
 1606TIP3   OH2 4781   5.038   3.973   4.019
 1606TIP3    H1 4782   5.058   4.011   3.933
 1606TIP3    H2 4783   4.952   3.932   4.008
 1607TIP3   OH2 4784   2.834   5.338   2.515
 1607TIP3    H1 4785   2.747   5.375   2.499
 1607TIP3    H2 4786   2.817   5.247   2.539
 1608TIP3   OH2 4787   6.670   3.278   2.610
 1608TIP3    H1 4788   6.583   3.290   2.571
 1608TIP3    H2 4789   6.694   3.188   2.587
 1609TIP3   OH2 4790   0.773   0.663   3.876
 1609TIP3    H1 4791   0.785   0.753   3.906
 1609TIP3    H2 4792   0.689   0.665   3.830
 1610TIP3   OH2 4793   1.877   6.558   3.720
 1610TIP3    H1 4794   1.933   6.605   3.658
 1610TIP3    H2 4795   1.825   6.499   3.665
 1611TIP3   OH2 4796   4.679   1.699   2.750
 1611TIP3    H1 4797   4.584   1.689   2.740
 1611TIP3    H2 4798   4.691   1.793   2.766
 1612TIP3   OH2 4799   6.715   3.701   3.037
 1612TIP3    H1 4800   6.662   3.780   3.033
 1612TIP3    H2 4801   6.658   3.632   3.004
 1613TIP3   OH2 4802   0.599   0.978   1.885
 1613TIP3    H1 4803   0.584   0.970   1.791
 1613TIP3    H2 4804   0.591   0.888   1.918
 1614TIP3   OH2 4805   0.763   5.380   4.719
 1614TIP3    H1 4806   0.778   5.320   4.646
 1614TIP3    H2 4807   0.712   5.451   4.681
 1615TIP3   OH2 4808   3.467   0.025   0.072
 1615TIP3    H1 4809   3.523   0.058   0.143
 1615TIP3    H2 4810   3.429  -0.055   0.107
 1616TIP3   OH2 4811   5.534   0.959   5.470
 1616TIP3    H1 4812   5.526   0.866   5.446
 1616TIP3    H2 4813   5.450   0.979   5.513
 1617TIP3   OH2 4814   1.939   5.030   4.436
 1617TIP3    H1 4815   1.935   4.958   4.372
 1617TIP3    H2 4816   1.897   4.995   4.514
 1618TIP3   OH2 4817   5.787   0.133   2.598
 1618TIP3    H1 4818   5.873   0.150   2.638
 1618TIP3    H2 4819   5.767   0.213   2.549
 1619TIP3   OH2 4820   3.492   1.478   1.122
 1619TIP3    H1 4821   3.488   1.560   1.073
 1619TIP3    H2 4822   3.422   1.486   1.187
 1620TIP3   OH2 4823   4.414   4.987   5.730
 1620TIP3    H1 4824   4.467   5.035   5.793
 1620TIP3    H2 4825   4.334   4.966   5.777
 1621TIP3   OH2 4826   5.534   0.038   3.791
 1621TIP3    H1 4827   5.504  -0.007   3.870
 1621TIP3    H2 4828   5.515   0.130   3.807
 1622TIP3   OH2 4829   2.005   0.089   3.134
 1622TIP3    H1 4830   2.015   0.050   3.221
 1622TIP3    H2 4831   1.922   0.053   3.101
 1623TIP3   OH2 4832   5.333   6.741   2.975
 1623TIP3    H1 4833   5.329   6.765   3.067
 1623TIP3    H2 4834   5.396   6.802   2.936
 1624TIP3   OH2 4835   4.942   1.078   3.181
 1624TIP3    H1 4836   4.905   1.162   3.209
 1624TIP3    H2 4837   4.979   1.096   3.095
 1625TIP3   OH2 4838   4.874   6.381   4.697
 1625TIP3    H1 4839   4.962   6.357   4.725
 1625TIP3    H2 4840   4.861   6.332   4.615
 1626TIP3   OH2 4841   2.679   1.094   1.248
 1626TIP3    H1 4842   2.687   1.009   1.204
 1626TIP3    H2 4843   2.629   1.148   1.186
 1627TIP3   OH2 4844   3.332   5.421   0.886
 1627TIP3    H1 4845   3.381   5.343   0.911
 1627TIP3    H2 4846   3.390   5.466   0.825
 1628TIP3   OH2 4847   3.717   2.832   3.916
 1628TIP3    H1 4848   3.795   2.778   3.925
 1628TIP3    H2 4849   3.679   2.835   4.004
 1629TIP3   OH2 4850   6.991   1.774   4.708
 1629TIP3    H1 4851   6.924   1.837   4.736
 1629TIP3    H2 4852   7.071   1.802   4.753
 1630TIP3   OH2 4853   5.302   2.286   3.292
 1630TIP3    H1 4854   5.281   2.365   3.242
 1630TIP3    H2 4855   5.217   2.256   3.325
 1631TIP3   OH2 4856   5.340   3.698   2.545
 1631TIP3    H1 4857   5.269   3.636   2.525
 1631TIP3    H2 4858   5.377   3.721   2.460
 1632TIP3   OH2 4859   6.891   0.551   2.990
 1632TIP3    H1 4860   6.807   0.537   2.947
 1632TIP3    H2 4861   6.873   0.616   3.058
 1633TIP3   OH2 4862   1.606   1.877   4.212
 1633TIP3    H1 4863   1.617   1.967   4.241
 1633TIP3    H2 4864   1.689   1.855   4.170
 1634TIP3   OH2 4865   3.569   5.966   0.884
 1634TIP3    H1 4866   3.494   5.923   0.926
 1634TIP3    H2 4867   3.600   6.029   0.949
 1635TIP3   OH2 4868   0.962   6.472   2.495
 1635TIP3    H1 4869   1.045   6.452   2.539
 1635TIP3    H2 4870   0.987   6.534   2.427
 1636TIP3   OH2 4871   4.980   3.164   4.440
 1636TIP3    H1 4872   4.910   3.219   4.405
 1636TIP3    H2 4873   5.030   3.137   4.363
 1637TIP3   OH2 4874   2.559   2.320   3.153
 1637TIP3    H1 4875   2.468   2.291   3.148
 1637TIP3    H2 4876   2.565   2.389   3.087
 1638TIP3   OH2 4877   3.455   1.465   0.412
 1638TIP3    H1 4878   3.411   1.545   0.442
 1638TIP3    H2 4879   3.384   1.408   0.382
 1639TIP3   OH2 4880   2.595   1.643   3.667
 1639TIP3    H1 4881   2.634   1.730   3.657
 1639TIP3    H2 4882   2.510   1.650   3.624
 1640TIP3   OH2 4883   1.408   0.178   2.335
 1640TIP3    H1 4884   1.477   0.113   2.345
 1640TIP3    H2 4885   1.363   0.154   2.254
 1641TIP3   OH2 4886   2.196   3.880   1.403
 1641TIP3    H1 4887   2.193   3.905   1.495
 1641TIP3    H2 4888   2.289   3.866   1.385
 1642TIP3   OH2 4889   0.183   0.236   5.133
 1642TIP3    H1 4890   0.099   0.278   5.113
 1642TIP3    H2 4891   0.201   0.261   5.224
 1643TIP3   OH2 4892   5.948   2.019   5.027
 1643TIP3    H1 4893   5.881   2.084   5.002
 1643TIP3    H2 4894   5.908   1.935   5.004
 1644TIP3   OH2 4895   1.302   5.705   3.280
 1644TIP3    H1 4896   1.326   5.798   3.285
 1644TIP3    H2 4897   1.370   5.660   3.331
 1645TIP3   OH2 4898   3.051   3.633   2.248
 1645TIP3    H1 4899   2.988   3.662   2.313
 1645TIP3    H2 4900   3.136   3.664   2.280
 1646TIP3   OH2 4901   2.510   4.514   4.233
 1646TIP3    H1 4902   2.563   4.592   4.252
 1646TIP3    H2 4903   2.481   4.483   4.319
 1647TIP3   OH2 4904   1.789   0.232   2.823
 1647TIP3    H1 4905   1.809   0.212   2.731
 1647TIP3    H2 4906   1.708   0.283   2.819
 1648TIP3   OH2 4907   6.311   3.724   3.913
 1648TIP3    H1 4908   6.327   3.741   3.820
 1648TIP3    H2 4909   6.297   3.810   3.951
 1649TIP3   OH2 4910   6.648   3.831   1.984
 1649TIP3    H1 4911   6.688   3.909   2.022
 1649TIP3    H2 4912   6.570   3.815   2.037
 1650TIP3   OH2 4913   3.675   4.078   2.705
 1650TIP3    H1 4914   3.653   4.070   2.798
 1650TIP3    H2 4915   3.683   3.988   2.674
 1651TIP3   OH2 4916   5.995   0.913   1.565
 1651TIP3    H1 4917   6.074   0.946   1.606
 1651TIP3    H2 4918   6.001   0.943   1.474
 1652TIP3   OH2 4919   3.983   2.069   0.633
 1652TIP3    H1 4920   3.946   1.991   0.591
 1652TIP3    H2 4921   4.074   2.045   0.650
 1653TIP3   OH2 4922   5.697   6.012   2.603
 1653TIP3    H1 4923   5.706   6.070   2.527
 1653TIP3    H2 4924   5.606   6.025   2.633
 1654TIP3   OH2 4925   3.014   2.644   4.932
 1654TIP3    H1 4926   2.991   2.604   4.848
 1654TIP3    H2 4927   2.944   2.618   4.991
 1655TIP3   OH2 4928   3.849   3.733   2.164
 1655TIP3    H1 4929   3.774   3.681   2.193
 1655TIP3    H2 4930   3.819   3.824   2.170
 1656TIP3   OH2 4931   0.142   5.380   4.416
 1656TIP3    H1 4932   0.081   5.384   4.342
 1656TIP3    H2 4933   0.180   5.293   4.411
 1657TIP3   OH2 4934   5.327   1.970   3.092
 1657TIP3    H1 4935   5.272   2.043   3.061
 1657TIP3    H2 4936   5.266   1.913   3.139
 1658TIP3   OH2 4937   0.547   3.004   4.015
 1658TIP3    H1 4938   0.576   3.091   3.991
 1658TIP3    H2 4939   0.548   3.004   4.111
 1659TIP3   OH2 4940   2.028   1.209   2.278
 1659TIP3    H1 4941   2.012   1.191   2.185
 1659TIP3    H2 4942   2.065   1.298   2.279
 1660TIP3   OH2 4943   5.473   4.924   2.043
 1660TIP3    H1 4944   5.564   4.946   2.062
 1660TIP3    H2 4945   5.453   4.968   1.961
 1661TIP3   OH2 4946   5.617   2.268   2.689
 1661TIP3    H1 4947   5.656   2.236   2.770
 1661TIP3    H2 4948   5.525   2.243   2.696
 1662TIP3   OH2 4949   6.155   4.595   0.142
 1662TIP3    H1 4950   6.185   4.648   0.215
 1662TIP3    H2 4951   6.067   4.565   0.168
 1663TIP3   OH2 4952   3.674   4.332   0.386
 1663TIP3    H1 4953   3.747   4.346   0.446
 1663TIP3    H2 4954   3.705   4.364   0.302
 1664TIP3   OH2 4955   4.089   3.819   1.798
 1664TIP3    H1 4956   4.153   3.884   1.828
 1664TIP3    H2 4957   4.025   3.870   1.747
 1665TIP3   OH2 4958   4.407   2.356   3.480
 1665TIP3    H1 4959   4.474   2.328   3.541
 1665TIP3    H2 4960   4.449   2.425   3.428
 1666TIP3   OH2 4961   2.214   1.116   3.002
 1666TIP3    H1 4962   2.283   1.182   2.994
 1666TIP3    H2 4963   2.211   1.098   3.096
 1667TIP3   OH2 4964   4.378   0.224   5.357
 1667TIP3    H1 4965   4.330   0.303   5.382
 1667TIP3    H2 4966   4.429   0.251   5.280
 1668TIP3   OH2 4967   1.471   0.240   4.935
 1668TIP3    H1 4968   1.441   0.149   4.930
 1668TIP3    H2 4969   1.456   0.265   5.026
 1669TIP3   OH2 4970   3.287   0.500   1.295
 1669TIP3    H1 4971   3.287   0.554   1.216
 1669TIP3    H2 4972   3.325   0.417   1.266
 1670TIP3   OH2 4973   4.420   1.256   3.396
 1670TIP3    H1 4974   4.510   1.280   3.419
 1670TIP3    H2 4975   4.421   1.248   3.301
 1671TIP3   OH2 4976   0.234   2.400   2.172
 1671TIP3    H1 4977   0.291   2.357   2.109
 1671TIP3    H2 4978   0.280   2.480   2.197
 1672TIP3   OH2 4979   1.115   2.835   1.006
 1672TIP3    H1 4980   1.210   2.824   1.011
 1672TIP3    H2 4981   1.089   2.783   0.930
 1673TIP3   OH2 4982   3.266   5.543   1.998
 1673TIP3    H1 4983   3.196   5.492   2.039
 1673TIP3    H2 4984   3.292   5.491   1.921
 1674TIP3   OH2 4985   7.002   3.161   5.220
 1674TIP3    H1 4986   6.980   3.107   5.297
 1674TIP3    H2 4987   6.918   3.172   5.175
 1675TIP3   OH2 4988   1.866   2.188   0.207
 1675TIP3    H1 4989   1.930   2.259   0.197
 1675TIP3    H2 4990   1.919   2.110   0.219
 1676TIP3   OH2 4991   3.020   2.415   1.686
 1676TIP3    H1 4992   3.077   2.491   1.696
 1676TIP3    H2 4993   2.951   2.428   1.752
 1677TIP3   OH2 4994   3.091   0.986   5.337
 1677TIP3    H1 4995   3.127   0.899   5.353
 1677TIP3    H2 4996   3.162   1.035   5.296
 1678TIP3   OH2 4997   6.732   6.448   2.217
 1678TIP3    H1 4998   6.740   6.506   2.293
 1678TIP3    H2 4999   6.669   6.382   2.245
 1679TIP3   OH2 5000   0.882   0.762   0.065
 1679TIP3    H1 5001   0.891   0.745  -0.029
 1679TIP3    H2 5002   0.860   0.856   0.070
 1680TIP3   OH2 5003   1.193   3.514   4.763
 1680TIP3    H1 5004   1.207   3.470   4.679
 1680TIP3    H2 5005   1.099   3.510   4.778
 1681TIP3   OH2 5006   1.050   0.169   2.330
 1681TIP3    H1 5007   1.110   0.176   2.404
 1681TIP3    H2 5008   0.963   0.171   2.368
 1682TIP3   OH2 5009   1.026   3.043   1.169
 1682TIP3    H1 5010   1.095   3.090   1.216
 1682TIP3    H2 5011   1.068   2.965   1.135
 1683TIP3   OH2 5012   4.939   1.447   4.671
 1683TIP3    H1 5013   4.930   1.462   4.577
 1683TIP3    H2 5014   4.979   1.360   4.678
 1684TIP3   OH2 5015   0.701   1.154   4.105
 1684TIP3    H1 5016   0.794   1.157   4.079
 1684TIP3    H2 5017   0.694   1.076   4.160
 1685TIP3   OH2 5018   5.777   0.714   3.062
 1685TIP3    H1 5019   5.811   0.788   3.114
 1685TIP3    H2 5020   5.818   0.725   2.976
 1686TIP3   OH2 5021   1.702   1.104   0.462
 1686TIP3    H1 5022   1.618   1.152   0.463
 1686TIP3    H2 5023   1.760   1.157   0.516
 1687TIP3   OH2 5024   2.491   6.034   2.362
 1687TIP3    H1 5025   2.566   6.077   2.320
 1687TIP3    H2 5026   2.471   5.960   2.304
 1688TIP3   OH2 5027   5.485   4.274   3.599
 1688TIP3    H1 5028   5.425   4.199   3.591
 1688TIP3    H2 5029   5.482   4.298   3.691
 1689TIP3   OH2 5030   2.393   0.529   1.031
 1689TIP3    H1 5031   2.441   0.556   1.109
 1689TIP3    H2 5032   2.457   0.477   0.981
 1690TIP3   OH2 5033   2.341   6.187   1.871
 1690TIP3    H1 5034   2.308   6.236   1.796
 1690TIP3    H2 5035   2.388   6.251   1.924
 1691TIP3   OH2 5036   1.746   3.871   2.880
 1691TIP3    H1 5037   1.668   3.917   2.912
 1691TIP3    H2 5038   1.770   3.916   2.800
 1692TIP3   OH2 5039   4.559   3.209   0.145
 1692TIP3    H1 5040   4.627   3.149   0.113
 1692TIP3    H2 5041   4.606   3.268   0.205
 1693TIP3   OH2 5042   5.128   6.501   3.370
 1693TIP3    H1 5043   5.037   6.500   3.399
 1693TIP3    H2 5044   5.167   6.423   3.410
 1694TIP3   OH2 5045   4.639   3.356   2.146
 1694TIP3    H1 5046   4.602   3.275   2.181
 1694TIP3    H2 5047   4.577   3.383   2.078
 1695TIP3   OH2 5048   2.703   5.538   5.533
 1695TIP3    H1 5049   2.717   5.460   5.479
 1695TIP3    H2 5050   2.679   5.503   5.618
 1696TIP3   OH2 5051   6.536   5.541   5.245
 1696TIP3    H1 5052   6.502   5.620   5.288
 1696TIP3    H2 5053   6.559   5.570   5.157
 1697TIP3   OH2 5054   3.135   5.712   4.854
 1697TIP3    H1 5055   3.211   5.654   4.846
 1697TIP3    H2 5056   3.163   5.779   4.916
 1698TIP3   OH2 5057   6.234   3.271   3.385
 1698TIP3    H1 5058   6.230   3.367   3.389
 1698TIP3    H2 5059   6.150   3.242   3.420
 1699TIP3   OH2 5060   6.107   0.007   4.144
 1699TIP3    H1 5061   6.069  -0.080   4.159
 1699TIP3    H2 5062   6.036   0.068   4.161
 1700TIP3   OH2 5063   6.805   2.037   5.891
 1700TIP3    H1 5064   6.881   1.994   5.852
 1700TIP3    H2 5065   6.839   2.120   5.924
 1701TIP3   OH2 5066   1.868   2.576   0.945
 1701TIP3    H1 5067   1.853   2.654   0.998
 1701TIP3    H2 5068   1.829   2.504   0.995
 1702TIP3   OH2 5069   4.806   3.848   2.439
 1702TIP3    H1 5070   4.830   3.802   2.359
 1702TIP3    H2 5071   4.765   3.782   2.494
 1703TIP3   OH2 5072   5.266   0.982   5.610
 1703TIP3    H1 5073   5.232   1.066   5.578
 1703TIP3    H2 5074   5.318   1.004   5.686
 1704TIP3   OH2 5075   4.674   3.881   5.222
 1704TIP3    H1 5076   4.707   3.796   5.190
 1704TIP3    H2 5077   4.581   3.879   5.202
 1705TIP3   OH2 5078   4.464   4.109   0.878
 1705TIP3    H1 5079   4.403   4.153   0.819
 1705TIP3    H2 5080   4.483   4.175   0.945
 1706TIP3   OH2 5081   0.610   6.477   0.547
 1706TIP3    H1 5082   0.570   6.535   0.612
 1706TIP3    H2 5083   0.669   6.534   0.498
 1707TIP3   OH2 5084   2.186   4.138   4.377
 1707TIP3    H1 5085   2.272   4.137   4.419
 1707TIP3    H2 5086   2.130   4.184   4.439
 1708TIP3   OH2 5087   5.763   4.012   4.965
 1708TIP3    H1 5088   5.675   4.022   5.000
 1708TIP3    H2 5089   5.764   3.924   4.927
 1709TIP3   OH2 5090   5.650   4.182   1.313
 1709TIP3    H1 5091   5.679   4.112   1.372
 1709TIP3    H2 5092   5.714   4.252   1.327
 1710TIP3   OH2 5093   1.848   3.536   0.642
 1710TIP3    H1 5094   1.885   3.448   0.657
 1710TIP3    H2 5095   1.799   3.555   0.723
 1711TIP3   OH2 5096   4.592   5.828   0.768
 1711TIP3    H1 5097   4.513   5.787   0.802
 1711TIP3    H2 5098   4.560   5.901   0.715
 1712TIP3   OH2 5099   6.318   5.439   5.590
 1712TIP3    H1 5100   6.356   5.478   5.669
 1712TIP3    H2 5101   6.376   5.466   5.520
 1713TIP3   OH2 5102   2.722   5.807   1.687
 1713TIP3    H1 5103   2.657   5.743   1.716
 1713TIP3    H2 5104   2.700   5.887   1.735
 1714TIP3   OH2 5105   1.670   2.473   1.395
 1714TIP3    H1 5106   1.723   2.402   1.431
 1714TIP3    H2 5107   1.687   2.547   1.453
 1715TIP3   OH2 5108   3.198   1.893   3.201
 1715TIP3    H1 5109   3.250   1.848   3.135
 1715TIP3    H2 5110   3.203   1.836   3.278
 1716TIP3   OH2 5111   6.493   1.119   4.330
 1716TIP3    H1 5112   6.492   1.031   4.292
 1716TIP3    H2 5113   6.476   1.104   4.423
 1717TIP3   OH2 5114   3.456   4.396   5.392
 1717TIP3    H1 5115   3.479   4.329   5.327
 1717TIP3    H2 5116   3.423   4.346   5.467
 1718TIP3   OH2 5117   5.797   3.162   2.267
 1718TIP3    H1 5118   5.718   3.151   2.319
 1718TIP3    H2 5119   5.791   3.096   2.198
 1719TIP3   OH2 5120   5.754   6.258   0.706
 1719TIP3    H1 5121   5.760   6.289   0.616
 1719TIP3    H2 5122   5.706   6.327   0.752
 1720TIP3   OH2 5123   5.160   5.535   5.216
 1720TIP3    H1 5124   5.189   5.453   5.175
 1720TIP3    H2 5125   5.202   5.535   5.302
 1721TIP3   OH2 5126   2.450   4.636   2.358
 1721TIP3    H1 5127   2.390   4.583   2.306
 1721TIP3    H2 5128   2.412   4.635   2.446
 1722TIP3   OH2 5129   6.676   3.574   2.130
 1722TIP3    H1 5130   6.585   3.544   2.130
 1722TIP3    H2 5131   6.688   3.612   2.042
 1723TIP3   OH2 5132   3.636   4.092   3.276
 1723TIP3    H1 5133   3.721   4.088   3.320
 1723TIP3    H2 5134   3.578   4.039   3.330
 1724TIP3   OH2 5135   3.832   1.773   5.184
 1724TIP3    H1 5136   3.776   1.702   5.154
 1724TIP3    H2 5137   3.773   1.835   5.227
 1725TIP3   OH2 5138   3.591   2.240   1.247
 1725TIP3    H1 5139   3.679   2.278   1.240
 1725TIP3    H2 5140   3.549   2.290   1.317
 1726TIP3   OH2 5141   5.179   4.564   0.657
 1726TIP3    H1 5142   5.095   4.538   0.696
 1726TIP3    H2 5143   5.244   4.539   0.723
 1727TIP3   OH2 5144   1.894   6.499   0.932
 1727TIP3    H1 5145   1.986   6.522   0.921
 1727TIP3    H2 5146   1.870   6.456   0.849
 1728TIP3   OH2 5147   6.835   2.938   3.624
 1728TIP3    H1 5148   6.749   2.977   3.635
 1728TIP3    H2 5149   6.820   2.844   3.635
 1729TIP3   OH2 5150   6.138   2.501   2.391
 1729TIP3    H1 5151   6.138   2.504   2.296
 1729TIP3    H2 5152   6.146   2.409   2.413
 1730TIP3   OH2 5153   0.364   6.404   2.475
 1730TIP3    H1 5154   0.355   6.380   2.567
 1730TIP3    H2 5155   0.457   6.396   2.457
 1731TIP3   OH2 5156   5.389   5.135   5.810
 1731TIP3    H1 5157   5.384   5.103   5.901
 1731TIP3    H2 5158   5.481   5.159   5.799
 1732TIP3   OH2 5159   5.910   0.597   0.133
 1732TIP3    H1 5160   5.864   0.673   0.096
 1732TIP3    H2 5161   5.959   0.633   0.207
 1733TIP3   OH2 5162   0.904   0.212   0.938
 1733TIP3    H1 5163   0.977   0.182   0.883
 1733TIP3    H2 5164   0.926   0.302   0.960
 1734TIP3   OH2 5165   6.001   3.068   4.438
 1734TIP3    H1 5166   5.984   2.974   4.429
 1734TIP3    H2 5167   5.981   3.105   4.352
 1735TIP3   OH2 5168   1.164   3.261   3.755
 1735TIP3    H1 5169   1.173   3.300   3.668
 1735TIP3    H2 5170   1.143   3.335   3.812
 1736TIP3   OH2 5171   6.800   4.263   5.022
 1736TIP3    H1 5172   6.712   4.275   4.986
 1736TIP3    H2 5173   6.827   4.177   4.992
 1737TIP3   OH2 5174   2.977   6.050   2.932
 1737TIP3    H1 5175   3.046   6.072   2.869
 1737TIP3    H2 5176   2.937   5.970   2.897
 1738TIP3   OH2 5177   0.590   6.501   0.049
 1738TIP3    H1 5178   0.511   6.475   0.097
 1738TIP3    H2 5179   0.558   6.528  -0.037
 1739TIP3   OH2 5180   5.616   1.332   0.736
 1739TIP3    H1 5181   5.570   1.393   0.679
 1739TIP3    H2 5182   5.648   1.387   0.809
 1740TIP3   OH2 5183   6.286   6.421   3.455
 1740TIP3    H1 5184   6.256   6.420   3.546
 1740TIP3    H2 5185   6.228   6.484   3.412
 1741TIP3   OH2 5186   4.983   6.149   3.470
 1741TIP3    H1 5187   5.077   6.149   3.492
 1741TIP3    H2 5188   4.942   6.095   3.537
 1742TIP3   OH2 5189   0.863   2.336   3.589
 1742TIP3    H1 5190   0.836   2.407   3.531
 1742TIP3    H2 5191   0.955   2.320   3.566
 1743TIP3   OH2 5192   0.534   5.365   2.764
 1743TIP3    H1 5193   0.517   5.312   2.686
 1743TIP3    H2 5194   0.617   5.409   2.746
 1744TIP3   OH2 5195   0.136   4.257   1.950
 1744TIP3    H1 5196   0.212   4.247   2.006
 1744TIP3    H2 5197   0.072   4.194   1.985
 1745TIP3   OH2 5198   6.091   5.140   2.211
 1745TIP3    H1 5199   6.143   5.203   2.261
 1745TIP3    H2 5200   6.001   5.153   2.242
 1746TIP3   OH2 5201   0.308   4.189   0.747
 1746TIP3    H1 5202   0.255   4.192   0.827
 1746TIP3    H2 5203   0.323   4.096   0.732
 1747TIP3   OH2 5204   2.095   5.762   4.979
 1747TIP3    H1 5205   2.188   5.786   4.979
 1747TIP3    H2 5206   2.092   5.679   4.931
 1748TIP3   OH2 5207   4.663   1.207   0.673
 1748TIP3    H1 5208   4.589   1.258   0.707
 1748TIP3    H2 5209   4.691   1.255   0.595
 1749TIP3   OH2 5210   0.229   2.868   1.958
 1749TIP3    H1 5211   0.185   2.953   1.954
 1749TIP3    H2 5212   0.263   2.863   2.047
 1750TIP3   OH2 5213   6.586   1.668   5.807
 1750TIP3    H1 5214   6.524   1.627   5.867
 1750TIP3    H2 5215   6.555   1.758   5.799
 1751TIP3   OH2 5216   1.087   1.393   0.282
 1751TIP3    H1 5217   1.113   1.482   0.304
 1751TIP3    H2 5218   1.027   1.367   0.352
 1752TIP3   OH2 5219   1.787   1.607   0.025
 1752TIP3    H1 5220   1.799   1.530   0.081
 1752TIP3    H2 5221   1.713   1.653   0.063
 1753TIP3   OH2 5222   1.880   1.204   5.708
 1753TIP3    H1 5223   1.942   1.252   5.654
 1753TIP3    H2 5224   1.831   1.272   5.756
 1754TIP3   OH2 5225   7.195   1.496   0.253
 1754TIP3    H1 5226   7.169   1.566   0.313
 1754TIP3    H2 5227   7.117   1.479   0.201
 1755TIP3   OH2 5228   6.704   3.636   5.832
 1755TIP3    H1 5229   6.758   3.585   5.771
 1755TIP3    H2 5230   6.632   3.578   5.854
 1756TIP3   OH2 5231   1.597   4.191   2.803
 1756TIP3    H1 5232   1.628   4.180   2.893
 1756TIP3    H2 5233   1.653   4.259   2.766
 1757TIP3   OH2 5234   0.508   4.529   1.928
 1757TIP3    H1 5235   0.423   4.530   1.882
 1757TIP3    H2 5236   0.516   4.617   1.965
 1758TIP3   OH2 5237   4.662   6.461   4.848
 1758TIP3    H1 5238   4.738   6.440   4.794
 1758TIP3    H2 5239   4.609   6.381   4.847
 1759TIP3   OH2 5240   5.031   6.185   0.682
 1759TIP3    H1 5241   4.949   6.204   0.728
 1759TIP3    H2 5242   5.015   6.101   0.639
 1760TIP3   OH2 5243   2.799   1.444   5.408
 1760TIP3    H1 5244   2.793   1.463   5.501
 1760TIP3    H2 5245   2.721   1.486   5.370
 1761TIP3   OH2 5246   5.577   5.187   1.448
 1761TIP3    H1 5247   5.578   5.253   1.516
 1761TIP3    H2 5248   5.574   5.103   1.495
 1762TIP3   OH2 5249   5.949   3.795   4.272
 1762TIP3    H1 5250   5.966   3.831   4.359
 1762TIP3    H2 5251   5.891   3.860   4.231
 1763TIP3   OH2 5252   0.574   1.653   5.531
 1763TIP3    H1 5253   0.632   1.724   5.559
 1763TIP3    H2 5254   0.497   1.662   5.588
 1764TIP3   OH2 5255   1.336   5.304   5.068
 1764TIP3    H1 5256   1.254   5.286   5.115
 1764TIP3    H2 5257   1.370   5.383   5.109
 1765TIP3   OH2 5258   2.590   5.857   4.775
 1765TIP3    H1 5259   2.599   5.762   4.786
 1765TIP3    H2 5260   2.510   5.867   4.724
 1766TIP3   OH2 5261   6.541   1.536   4.764
 1766TIP3    H1 5262   6.513   1.473   4.830
 1766TIP3    H2 5263   6.460   1.572   4.729
 1767TIP3   OH2 5264   4.083   5.720   4.023
 1767TIP3    H1 5265   4.126   5.674   3.951
 1767TIP3    H2 5266   4.141   5.709   4.098
 1768TIP3   OH2 5267   0.895   5.870   0.994
 1768TIP3    H1 5268   0.866   5.935   0.931
 1768TIP3    H2 5269   0.900   5.788   0.944
 1769TIP3   OH2 5270   6.502   4.815   2.577
 1769TIP3    H1 5271   6.511   4.746   2.643
 1769TIP3    H2 5272   6.416   4.799   2.538
 1770TIP3   OH2 5273   7.196   2.212   0.264
 1770TIP3    H1 5274   7.183   2.278   0.196
 1770TIP3    H2 5275   7.208   2.262   0.345
 1771TIP3   OH2 5276   3.881   3.871   5.769
 1771TIP3    H1 5277   3.945   3.838   5.706
 1771TIP3    H2 5278   3.849   3.794   5.815
 1772TIP3   OH2 5279   0.288   0.146   1.241
 1772TIP3    H1 5280   0.317   0.142   1.150
 1772TIP3    H2 5281   0.366   0.126   1.292
 1773TIP3   OH2 5282   4.961   1.786   2.512
 1773TIP3    H1 5283   4.933   1.786   2.420
 1773TIP3    H2 5284   4.947   1.877   2.540
 1774TIP3   OH2 5285   4.866   6.142   4.550
 1774TIP3    H1 5286   4.789   6.090   4.573
 1774TIP3    H2 5287   4.910   6.093   4.481
 1775TIP3   OH2 5288   5.344   6.033   1.032
 1775TIP3    H1 5289   5.342   6.012   0.938
 1775TIP3    H2 5290   5.252   6.034   1.058
 1776TIP3   OH2 5291   6.402   2.920   1.436
 1776TIP3    H1 5292   6.413   2.974   1.358
 1776TIP3    H2 5293   6.386   2.983   1.507
 1777TIP3   OH2 5294   6.508   2.409   0.346
 1777TIP3    H1 5295   6.524   2.447   0.259
 1777TIP3    H2 5296   6.554   2.468   0.406
 1778TIP3   OH2 5297   3.638   4.349   1.085
 1778TIP3    H1 5298   3.697   4.292   1.136
 1778TIP3    H2 5299   3.577   4.289   1.044
 1779TIP3   OH2 5300   5.797   5.212   2.864
 1779TIP3    H1 5301   5.805   5.307   2.876
 1779TIP3    H2 5302   5.761   5.202   2.776
 1780TIP3   OH2 5303   2.598   0.709   3.162
 1780TIP3    H1 5304   2.506   0.702   3.188
 1780TIP3    H2 5305   2.599   0.678   3.071
 1781TIP3   OH2 5306   5.867   1.723   1.623
 1781TIP3    H1 5307   5.909   1.639   1.603
 1781TIP3    H2 5308   5.824   1.709   1.707
 1782TIP3   OH2 5309   5.399   3.037   1.061
 1782TIP3    H1 5310   5.435   2.976   0.997
 1782TIP3    H2 5311   5.447   3.119   1.046
 1783TIP3   OH2 5312   3.302   2.141   4.203
 1783TIP3    H1 5313   3.338   2.197   4.134
 1783TIP3    H2 5314   3.228   2.097   4.162
 1784TIP3   OH2 5315   0.677   5.837   5.804
 1784TIP3    H1 5316   0.600   5.804   5.851
 1784TIP3    H2 5317   0.745   5.772   5.819
 1785TIP3   OH2 5318   6.757   0.503   1.595
 1785TIP3    H1 5319   6.726   0.588   1.563
 1785TIP3    H2 5320   6.681   0.465   1.639
 1786TIP3   OH2 5321   4.888   4.869   5.055
 1786TIP3    H1 5322   4.872   4.937   5.120
 1786TIP3    H2 5323   4.803   4.826   5.044
 1787TIP3   OH2 5324   2.712   6.204   0.570
 1787TIP3    H1 5325   2.726   6.143   0.642
 1787TIP3    H2 5326   2.736   6.290   0.606
 1788TIP3   OH2 5327   6.592   5.633   2.333
 1788TIP3    H1 5328   6.535   5.593   2.398
 1788TIP3    H2 5329   6.535   5.649   2.258
 1789TIP3   OH2 5330   6.220   6.150   3.280
 1789TIP3    H1 5331   6.289   6.207   3.313
 1789TIP3    H2 5332   6.239   6.140   3.187
 1790TIP3   OH2 5333   6.654   5.956   4.024
 1790TIP3    H1 5334   6.622   5.965   3.934
 1790TIP3    H2 5335   6.666   6.046   4.054
 1791TIP3   OH2 5336   2.109   5.930   3.997
 1791TIP3    H1 5337   2.020   5.946   3.967
 1791TIP3    H2 5338   2.153   6.015   3.991
 1792TIP3   OH2 5339   7.194   5.017   5.672
 1792TIP3    H1 5340   7.217   4.926   5.657
 1792TIP3    H2 5341   7.139   5.041   5.597
 1793TIP3   OH2 5342   2.903   1.053   0.383
 1793TIP3    H1 5343   2.867   1.120   0.441
 1793TIP3    H2 5344   2.889   0.971   0.431
 1794TIP3   OH2 5345   6.907   0.535   0.700
 1794TIP3    H1 5346   6.986   0.491   0.671
 1794TIP3    H2 5347   6.864   0.564   0.620
 1795TIP3   OH2 5348   3.067   0.418   2.145
 1795TIP3    H1 5349   3.070   0.330   2.180
 1795TIP3    H2 5350   3.159   0.443   2.132
 1796TIP3   OH2 5351   6.638   1.158   1.364
 1796TIP3    H1 5352   6.558   1.110   1.340
 1796TIP3    H2 5353   6.647   1.225   1.297
 1797TIP3   OH2 5354   6.082   6.731   0.769
 1797TIP3    H1 5355   6.156   6.784   0.798
 1797TIP3    H2 5356   6.019   6.795   0.735
 1798TIP3   OH2 5357   7.078   4.796   5.521
 1798TIP3    H1 5358   7.124   4.728   5.471
 1798TIP3    H2 5359   7.090   4.771   5.612
 1799TIP3   OH2 5360   5.486   1.301   4.247
 1799TIP3    H1 5361   5.435   1.228   4.283
 1799TIP3    H2 5362   5.577   1.281   4.269
 1800TIP3   OH2 5363   7.034   0.694   1.490
 1800TIP3    H1 5364   6.991   0.630   1.433
 1800TIP3    H2 5365   6.961   0.743   1.529
 1801TIP3   OH2 5366   2.874   3.719   5.243
 1801TIP3    H1 5367   2.908   3.637   5.277
 1801TIP3    H2 5368   2.805   3.694   5.182
 1802TIP3   OH2 5369   2.279   4.205   4.068
 1802TIP3    H1 5370   2.245   4.147   4.000
 1802TIP3    H2 5371   2.250   4.166   4.151
 1803TIP3   OH2 5372   3.762   5.245   2.417
 1803TIP3    H1 5373   3.701   5.194   2.470
 1803TIP3    H2 5374   3.755   5.207   2.329
 1804TIP3   OH2 5375   6.622   5.243   4.835
 1804TIP3    H1 5376   6.539   5.230   4.881
 1804TIP3    H2 5377   6.631   5.338   4.830
 1805TIP3   OH2 5378   4.768   5.435   1.037
 1805TIP3    H1 5379   4.849   5.464   1.079
 1805TIP3    H2 5380   4.741   5.510   0.984
 1806TIP3   OH2 5381   1.070   4.916   1.946
 1806TIP3    H1 5382   1.103   4.909   2.035
 1806TIP3    H2 5383   1.148   4.932   1.892
 1807TIP3   OH2 5384   1.122   5.995   1.328
 1807TIP3    H1 5385   1.180   5.955   1.393
 1807TIP3    H2 5386   1.175   5.999   1.248
 1808TIP3   OH2 5387   5.186   6.209   4.075
 1808TIP3    H1 5388   5.142   6.143   4.127
 1808TIP3    H2 5389   5.116   6.251   4.024
 1809TIP3   OH2 5390   6.574   3.981   2.679
 1809TIP3    H1 5391   6.511   4.053   2.677
 1809TIP3    H2 5392   6.524   3.907   2.714
 1810TIP3   OH2 5393   2.693   3.040   5.713
 1810TIP3    H1 5394   2.680   3.038   5.808
 1810TIP3    H2 5395   2.605   3.050   5.677
 1811TIP3   OH2 5396   2.002   4.121   5.448
 1811TIP3    H1 5397   2.097   4.122   5.448
 1811TIP3    H2 5398   1.977   4.137   5.539
 1812TIP3   OH2 5399   2.061   0.994   4.374
 1812TIP3    H1 5400   2.012   1.062   4.420
 1812TIP3    H2 5401   2.000   0.920   4.369
 1813TIP3   OH2 5402   6.176   6.644   3.657
 1813TIP3    H1 5403   6.115   6.648   3.731
 1813TIP3    H2 5404   6.247   6.588   3.687
 1814TIP3   OH2 5405   2.350   4.463   4.007
 1814TIP3    H1 5406   2.400   4.471   4.089
 1814TIP3    H2 5407   2.328   4.370   4.001
 1815TIP3   OH2 5408   5.438   4.165   5.422
 1815TIP3    H1 5409   5.435   4.241   5.364
 1815TIP3    H2 5410   5.348   4.154   5.453
 1816TIP3   OH2 5411   2.557   6.437   2.864
 1816TIP3    H1 5412   2.521   6.518   2.900
 1816TIP3    H2 5413   2.590   6.390   2.940
 1817TIP3   OH2 5414   2.157   2.577   0.117
 1817TIP3    H1 5415   2.223   2.508   0.119
 1817TIP3    H2 5416   2.196   2.650   0.163
 1818TIP3   OH2 5417   4.292   2.425   5.488
 1818TIP3    H1 5418   4.213   2.374   5.505
 1818TIP3    H2 5419   4.327   2.389   5.406
 1819TIP3   OH2 5420   2.221   6.726   1.568
 1819TIP3    H1 5421   2.211   6.807   1.518
 1819TIP3    H2 5422   2.313   6.700   1.555
 1820TIP3   OH2 5423   0.004   2.221   2.566
 1820TIP3    H1 5424  -0.074   2.178   2.602
 1820TIP3    H2 5425   0.032   2.163   2.495
 1821TIP3   OH2 5426   0.215   1.618   1.905
 1821TIP3    H1 5427   0.286   1.670   1.867
 1821TIP3    H2 5428   0.205   1.651   1.994
 1822TIP3   OH2 5429   5.922   1.279   2.076
 1822TIP3    H1 5430   6.002   1.270   2.025
 1822TIP3    H2 5431   5.950   1.314   2.160
 1823TIP3   OH2 5432   4.736   6.361   4.384
 1823TIP3    H1 5433   4.714   6.271   4.409
 1823TIP3    H2 5434   4.669   6.414   4.425
 1824TIP3   OH2 5435   1.862   5.270   2.229
 1824TIP3    H1 5436   1.842   5.206   2.161
 1824TIP3    H2 5437   1.958   5.274   2.232
 1825TIP3   OH2 5438   3.924   5.817   3.394
 1825TIP3    H1 5439   3.831   5.805   3.376
 1825TIP3    H2 5440   3.969   5.773   3.322
 1826TIP3   OH2 5441   5.810   2.575   3.468
 1826TIP3    H1 5442   5.802   2.564   3.563
 1826TIP3    H2 5443   5.820   2.669   3.455
 1827TIP3   OH2 5444   4.355   0.922   0.492
 1827TIP3    H1 5445   4.393   0.851   0.439
 1827TIP3    H2 5446   4.386   1.002   0.450
 1828TIP3   OH2 5447   2.027   1.221   4.111
 1828TIP3    H1 5448   2.114   1.194   4.140
 1828TIP3    H2 5449   2.011   1.171   4.031
 1829TIP3   OH2 5450   6.260   1.934   2.443
 1829TIP3    H1 5451   6.341   1.954   2.395
 1829TIP3    H2 5452   6.233   1.849   2.408
 1830TIP3   OH2 5453   3.671   0.998   5.352
 1830TIP3    H1 5454   3.591   0.952   5.378
 1830TIP3    H2 5455   3.683   1.067   5.417
 1831TIP3   OH2 5456   5.309   5.991   2.875
 1831TIP3    H1 5457   5.291   6.080   2.905
 1831TIP3    H2 5458   5.223   5.954   2.855
 1832TIP3   OH2 5459   3.438   5.190   1.680
 1832TIP3    H1 5460   3.345   5.202   1.664
 1832TIP3    H2 5461   3.461   5.110   1.632
 1833TIP3   OH2 5462   5.799   3.472   5.317
 1833TIP3    H1 5463   5.848   3.542   5.361
 1833TIP3    H2 5464   5.765   3.513   5.238
 1834TIP3   OH2 5465   0.700   2.163   4.340
 1834TIP3    H1 5466   0.641   2.113   4.396
 1834TIP3    H2 5467   0.668   2.148   4.251
 1835TIP3   OH2 5468   1.084   1.054   0.306
 1835TIP3    H1 5469   1.142   1.091   0.240
 1835TIP3    H2 5470   1.141   1.034   0.380
 1836TIP3   OH2 5471   0.472   3.613   0.581
 1836TIP3    H1 5472   0.436   3.692   0.541
 1836TIP3    H2 5473   0.402   3.548   0.572
 1837TIP3   OH2 5474   6.264   0.328   3.067
 1837TIP3    H1 5475   6.236   0.265   3.001
 1837TIP3    H2 5476   6.249   0.284   3.150
 1838TIP3   OH2 5477   1.435   3.731   3.114
 1838TIP3    H1 5478   1.480   3.701   3.192
 1838TIP3    H2 5479   1.460   3.823   3.105
 1839TIP3   OH2 5480   1.626   4.171   3.437
 1839TIP3    H1 5481   1.567   4.245   3.423
 1839TIP3    H2 5482   1.616   4.151   3.531
 1840TIP3   OH2 5483   0.222   4.833   2.686
 1840TIP3    H1 5484   0.266   4.818   2.769
 1840TIP3    H2 5485   0.133   4.861   2.710
 1841TIP3   OH2 5486   4.444   3.643   3.869
 1841TIP3    H1 5487   4.428   3.737   3.880
 1841TIP3    H2 5488   4.514   3.623   3.932
 1842TIP3   OH2 5489   5.422   4.452   0.174
 1842TIP3    H1 5490   5.394   4.361   0.179
 1842TIP3    H2 5491   5.341   4.502   0.169
 1843TIP3   OH2 5492   0.427   4.115   3.046
 1843TIP3    H1 5493   0.476   4.105   3.128
 1843TIP3    H2 5494   0.493   4.137   2.981
 1844TIP3   OH2 5495   1.701   5.217   5.591
 1844TIP3    H1 5496   1.762   5.272   5.640
 1844TIP3    H2 5497   1.621   5.218   5.643
 1845TIP3   OH2 5498   7.081   4.811   3.817
 1845TIP3    H1 5499   7.142   4.742   3.791
 1845TIP3    H2 5500   6.997   4.766   3.827
 1846TIP3   OH2 5501   4.096   5.928   2.500
 1846TIP3    H1 5502   4.014   5.946   2.545
 1846TIP3    H2 5503   4.162   5.924   2.570
 1847TIP3   OH2 5504   4.805   1.308   5.249
 1847TIP3    H1 5505   4.807   1.308   5.153
 1847TIP3    H2 5506   4.741   1.241   5.271
 1848TIP3   OH2 5507   4.412   4.263   1.392
 1848TIP3    H1 5508   4.387   4.355   1.382
 1848TIP3    H2 5509   4.502   4.259   1.359
 1849TIP3   OH2 5510   2.361   3.601   3.678
 1849TIP3    H1 5511   2.405   3.647   3.606
 1849TIP3    H2 5512   2.351   3.668   3.746
 1850TIP3   OH2 5513   4.091   1.581   0.893
 1850TIP3    H1 5514   4.166   1.540   0.850
 1850TIP3    H2 5515   4.016   1.553   0.840
 1851TIP3   OH2 5516   3.186   3.191   2.363
 1851TIP3    H1 5517   3.230   3.257   2.308
 1851TIP3    H2 5518   3.258   3.141   2.402
 1852TIP3   OH2 5519   1.872   0.979   5.880
 1852TIP3    H1 5520   1.867   1.058   5.827
 1852TIP3    H2 5521   1.965   0.969   5.901
 1853TIP3   OH2 5522   2.646   4.843   4.951
 1853TIP3    H1 5523   2.624   4.751   4.934
 1853TIP3    H2 5524   2.620   4.858   5.042
 1854TIP3   OH2 5525   4.361   6.479   0.756
 1854TIP3    H1 5526   4.438   6.437   0.719
 1854TIP3    H2 5527   4.387   6.504   0.844
 1855TIP3   OH2 5528   1.247   1.545   1.230
 1855TIP3    H1 5529   1.255   1.625   1.281
 1855TIP3    H2 5530   1.206   1.574   1.148
 1856TIP3   OH2 5531   0.010   2.226   2.132
 1856TIP3    H1 5532   0.061   2.297   2.171
 1856TIP3    H2 5533   0.037   2.224   2.040
 1857TIP3   OH2 5534   2.400   3.611   0.317
 1857TIP3    H1 5535   2.424   3.570   0.400
 1857TIP3    H2 5536   2.324   3.562   0.287
 1858TIP3   OH2 5537   5.702   0.157   0.823
 1858TIP3    H1 5538   5.687   0.073   0.866
 1858TIP3    H2 5539   5.772   0.140   0.760
 1859TIP3   OH2 5540   0.974   3.608   0.278
 1859TIP3    H1 5541   1.009   3.614   0.189
 1859TIP3    H2 5542   0.880   3.590   0.266
 1860TIP3   OH2 5543   2.482   3.508   3.238
 1860TIP3    H1 5544   2.492   3.435   3.299
 1860TIP3    H2 5545   2.507   3.585   3.288
 1861TIP3   OH2 5546   5.685   1.307   5.789
 1861TIP3    H1 5547   5.715   1.386   5.835
 1861TIP3    H2 5548   5.610   1.276   5.840
 1862TIP3   OH2 5549   0.225   3.940   2.001
 1862TIP3    H1 5550   0.258   4.027   1.979
 1862TIP3    H2 5551   0.238   3.889   1.921
 1863TIP3   OH2 5552   2.510   5.841   3.983
 1863TIP3    H1 5553   2.577   5.903   4.012
 1863TIP3    H2 5554   2.473   5.881   3.905
 1864TIP3   OH2 5555   1.380   5.935   3.990
 1864TIP3    H1 5556   1.434   5.863   3.956
 1864TIP3    H2 5557   1.444   6.000   4.019
 1865TIP3   OH2 5558   5.223   4.887   0.893
 1865TIP3    H1 5559   5.265   4.805   0.920
 1865TIP3    H2 5560   5.216   4.938   0.973
 1866TIP3   OH2 5561   6.188  -0.019   2.437
 1866TIP3    H1 5562   6.280   0.008   2.443
 1866TIP3    H2 5563   6.175  -0.038   2.344
 1867TIP3   OH2 5564   7.167   4.710   2.547
 1867TIP3    H1 5565   7.099   4.698   2.613
 1867TIP3    H2 5566   7.163   4.804   2.525
 1868TIP3   OH2 5567   2.629   3.377   4.356
 1868TIP3    H1 5568   2.657   3.305   4.300
 1868TIP3    H2 5569   2.585   3.438   4.297
 1869TIP3   OH2 5570   5.295   2.526   1.619
 1869TIP3    H1 5571   5.353   2.450   1.618
 1869TIP3    H2 5572   5.282   2.545   1.712
 1870TIP3   OH2 5573   2.857   1.406   0.332
 1870TIP3    H1 5574   2.782   1.464   0.322
 1870TIP3    H2 5575   2.899   1.434   0.414
 1871TIP3   OH2 5576   6.975   1.430   0.872
 1871TIP3    H1 5577   6.893   1.427   0.921
 1871TIP3    H2 5578   7.042   1.398   0.933
 1872TIP3   OH2 5579   2.091   3.982   2.671
 1872TIP3    H1 5580   2.113   3.921   2.742
 1872TIP3    H2 5581   2.002   3.956   2.645
 1873TIP3   OH2 5582   6.633   3.991   3.472
 1873TIP3    H1 5583   6.705   3.932   3.496
 1873TIP3    H2 5584   6.561   3.933   3.449
 1874TIP3   OH2 5585   2.546   2.671   2.322
 1874TIP3    H1 5586   2.561   2.577   2.311
 1874TIP3    H2 5587   2.507   2.699   2.238
 1875TIP3   OH2 5588   7.177   0.363   4.563
 1875TIP3    H1 5589   7.140   0.312   4.491
 1875TIP3    H2 5590   7.269   0.376   4.538
 1876TIP3   OH2 5591   5.982   2.104   3.898
 1876TIP3    H1 5592   5.916   2.171   3.879
 1876TIP3    H2 5593   6.063   2.139   3.861
 1877TIP3   OH2 5594   4.914   0.480   5.638
 1877TIP3    H1 5595   4.873   0.540   5.700
 1877TIP3    H2 5596   4.886   0.393   5.666
 1878TIP3   OH2 5597   3.546   6.463   2.165
 1878TIP3    H1 5598   3.621   6.518   2.186
 1878TIP3    H2 5599   3.584   6.388   2.118
 1879TIP3   OH2 5600   0.697   5.250   3.971
 1879TIP3    H1 5601   0.627   5.202   4.015
 1879TIP3    H2 5602   0.674   5.342   3.984
 1880TIP3   OH2 5603   6.763   3.701   3.302
 1880TIP3    H1 5604   6.749   3.692   3.207
 1880TIP3    H2 5605   6.678   3.681   3.341
 1881TIP3   OH2 5606   2.887   4.888   3.843
 1881TIP3    H1 5607   2.817   4.952   3.829
 1881TIP3    H2 5608   2.898   4.884   3.938
 1882TIP3   OH2 5609   5.884   1.756   3.499
 1882TIP3    H1 5610   5.890   1.765   3.594
 1882TIP3    H2 5611   5.849   1.840   3.469
 1883TIP3   OH2 5612   4.070   3.629   2.045
 1883TIP3    H1 5613   4.127   3.620   2.122
 1883TIP3    H2 5614   3.992   3.673   2.077
 1884TIP3   OH2 5615   2.903   3.771   5.543
 1884TIP3    H1 5616   2.934   3.754   5.454
 1884TIP3    H2 5617   2.815   3.807   5.531
 1885TIP3   OH2 5618   0.498   5.112   4.133
 1885TIP3    H1 5619   0.530   5.034   4.180
 1885TIP3    H2 5620   0.406   5.119   4.159
 1886TIP3   OH2 5621   6.902   5.505   3.591
 1886TIP3    H1 5622   6.852   5.539   3.517
 1886TIP3    H2 5623   6.935   5.420   3.561
 1887TIP3   OH2 5624   1.089   3.810   5.562
 1887TIP3    H1 5625   1.097   3.716   5.544
 1887TIP3    H2 5626   1.129   3.821   5.648
 1888TIP3   OH2 5627   2.357   2.880   3.730
 1888TIP3    H1 5628   2.343   2.953   3.671
 1888TIP3    H2 5629   2.308   2.808   3.692
 1889TIP3   OH2 5630   4.722   1.750   4.687
 1889TIP3    H1 5631   4.664   1.738   4.612
 1889TIP3    H2 5632   4.765   1.834   4.671
 1890TIP3   OH2 5633   0.145   1.156   3.045
 1890TIP3    H1 5634   0.086   1.209   3.099
 1890TIP3    H2 5635   0.087   1.107   2.987
 1891TIP3   OH2 5636   4.348   5.737   0.847
 1891TIP3    H1 5637   4.336   5.779   0.933
 1891TIP3    H2 5638   4.259   5.733   0.810
 1892TIP3   OH2 5639   0.422   1.139   4.369
 1892TIP3    H1 5640   0.468   1.080   4.428
 1892TIP3    H2 5641   0.401   1.085   4.293
 1893TIP3   OH2 5642   3.859   0.913   1.228
 1893TIP3    H1 5643   3.899   0.853   1.164
 1893TIP3    H2 5644   3.841   0.858   1.304
 1894TIP3   OH2 5645   5.809   3.256   1.701
 1894TIP3    H1 5646   5.776   3.334   1.746
 1894TIP3    H2 5647   5.832   3.196   1.772
 1895TIP3   OH2 5648   1.766   3.348   4.485
 1895TIP3    H1 5649   1.793   3.439   4.472
 1895TIP3    H2 5650   1.833   3.297   4.439
 1896TIP3   OH2 5651   4.162   5.301   2.403
 1896TIP3    H1 5652   4.230   5.269   2.344
 1896TIP3    H2 5653   4.201   5.377   2.446
 1897TIP3   OH2 5654   3.569   3.626   5.378
 1897TIP3    H1 5655   3.544   3.536   5.357
 1897TIP3    H2 5656   3.499   3.658   5.434
 1898TIP3   OH2 5657   1.566   5.589   5.173
 1898TIP3    H1 5658   1.553   5.619   5.084
 1898TIP3    H2 5659   1.480   5.560   5.202
 1899TIP3   OH2 5660   1.658   6.712   5.312
 1899TIP3    H1 5661   1.615   6.631   5.342
 1899TIP3    H2 5662   1.751   6.698   5.329
 1900TIP3   OH2 5663   5.879   4.807   5.223
 1900TIP3    H1 5664   5.916   4.719   5.219
 1900TIP3    H2 5665   5.950   4.862   5.255
 1901TIP3   OH2 5666   1.116   2.085   2.969
 1901TIP3    H1 5667   1.096   1.993   2.984
 1901TIP3    H2 5668   1.145   2.088   2.878
 1902TIP3   OH2 5669   5.313   1.598   2.433
 1902TIP3    H1 5670   5.234   1.582   2.486
 1902TIP3    H2 5671   5.298   1.549   2.353
 1903TIP3   OH2 5672   6.723   2.852   1.203
 1903TIP3    H1 5673   6.651   2.914   1.217
 1903TIP3    H2 5674   6.763   2.879   1.121
 1904TIP3   OH2 5675   0.410   4.103   1.403
 1904TIP3    H1 5676   0.438   4.050   1.328
 1904TIP3    H2 5677   0.330   4.147   1.374
 1905TIP3   OH2 5678   5.281   4.722   2.928
 1905TIP3    H1 5679   5.212   4.746   2.867
 1905TIP3    H2 5680   5.236   4.714   3.012
 1906TIP3   OH2 5681  -0.001   4.126   2.144
 1906TIP3    H1 5682   0.034   4.039   2.126
 1906TIP3    H2 5683   0.028   4.145   2.233
 1907TIP3   OH2 5684   6.320   2.885   4.914
 1907TIP3    H1 5685   6.389   2.949   4.897
 1907TIP3    H2 5686   6.240   2.929   4.886
 1908TIP3   OH2 5687   6.140   2.516   2.111
 1908TIP3    H1 5688   6.232   2.519   2.087
 1908TIP3    H2 5689   6.098   2.468   2.040
 1909TIP3   OH2 5690   4.619   5.954   2.813
 1909TIP3    H1 5691   4.580   5.969   2.727
 1909TIP3    H2 5692   4.709   5.986   2.806
 1910TIP3   OH2 5693   5.361   0.256   2.081
 1910TIP3    H1 5694   5.408   0.333   2.113
 1910TIP3    H2 5695   5.368   0.193   2.153
 1911TIP3   OH2 5696   0.489   1.423   2.193
 1911TIP3    H1 5697   0.556   1.478   2.235
 1911TIP3    H2 5698   0.539   1.350   2.155
 1912TIP3   OH2 5699   0.650   4.056   5.652
 1912TIP3    H1 5700   0.631   3.981   5.708
 1912TIP3    H2 5701   0.622   4.132   5.704
 1913TIP3   OH2 5702   0.782   6.633   0.390
 1913TIP3    H1 5703   0.794   6.727   0.399
 1913TIP3    H2 5704   0.829   6.611   0.309
 1914TIP3   OH2 5705   4.281   5.654   0.491
 1914TIP3    H1 5706   4.336   5.590   0.537
 1914TIP3    H2 5707   4.343   5.716   0.453
 1915TIP3   OH2 5708   7.145   3.336   1.920
 1915TIP3    H1 5709   7.150   3.426   1.888
 1915TIP3    H2 5710   7.055   3.325   1.950
 1916TIP3   OH2 5711   0.587   0.632   5.851
 1916TIP3    H1 5712   0.545   0.718   5.843
 1916TIP3    H2 5713   0.529   0.584   5.911
 1917TIP3   OH2 5714   4.350   4.745   2.715
 1917TIP3    H1 5715   4.266   4.699   2.711
 1917TIP3    H2 5716   4.415   4.676   2.701
 1918TIP3   OH2 5717   4.383   2.189   4.202
 1918TIP3    H1 5718   4.296   2.211   4.167
 1918TIP3    H2 5719   4.382   2.094   4.208
 1919TIP3   OH2 5720   0.520   3.130   2.356
 1919TIP3    H1 5721   0.581   3.203   2.346
 1919TIP3    H2 5722   0.436   3.166   2.329
 1920TIP3   OH2 5723   0.792   3.883   3.825
 1920TIP3    H1 5724   0.805   3.964   3.776
 1920TIP3    H2 5725   0.769   3.913   3.913
 1921TIP3   OH2 5726   3.744   3.138   0.389
 1921TIP3    H1 5727   3.691   3.212   0.358
 1921TIP3    H2 5728   3.796   3.112   0.313
 1922TIP3   OH2 5729   3.014   4.928   1.052
 1922TIP3    H1 5730   3.103   4.940   1.084
 1922TIP3    H2 5731   2.991   4.839   1.078
 1923TIP3   OH2 5732   0.526   5.234   3.568
 1923TIP3    H1 5733   0.599   5.177   3.594
 1923TIP3    H2 5734   0.489   5.190   3.491
 1924TIP3   OH2 5735   0.711   4.579   3.055
 1924TIP3    H1 5736   0.700   4.644   3.125
 1924TIP3    H2 5737   0.803   4.587   3.030
 1925TIP3   OH2 5738   2.501   0.315   4.314
 1925TIP3    H1 5739   2.471   0.234   4.272
 1925TIP3    H2 5740   2.456   0.385   4.266
 1926TIP3   OH2 5741   5.389   4.298   4.130
 1926TIP3    H1 5742   5.471   4.283   4.179
 1926TIP3    H2 5743   5.332   4.341   4.193
 1927TIP3   OH2 5744   6.015   0.334   2.000
 1927TIP3    H1 5745   6.010   0.412   1.945
 1927TIP3    H2 5746   6.031   0.367   2.088
 1928TIP3   OH2 5747   2.352   5.222   4.153
 1928TIP3    H1 5748   2.304   5.301   4.125
 1928TIP3    H2 5749   2.304   5.192   4.230
 1929TIP3   OH2 5750   0.788   6.086   0.847
 1929TIP3    H1 5751   0.850   6.158   0.840
 1929TIP3    H2 5752   0.702   6.128   0.838
 1930TIP3   OH2 5753   3.786   4.041   3.736
 1930TIP3    H1 5754   3.752   4.131   3.736
 1930TIP3    H2 5755   3.881   4.053   3.740
 1931TIP3   OH2 5756   5.077   3.812   2.761
 1931TIP3    H1 5757   5.105   3.727   2.727
 1931TIP3    H2 5758   5.020   3.791   2.835
 1932TIP3   OH2 5759   6.098   5.414   1.712
 1932TIP3    H1 5760   6.054   5.496   1.691
 1932TIP3    H2 5761   6.070   5.354   1.643
 1933TIP3   OH2 5762   0.798   6.625   3.108
 1933TIP3    H1 5763   0.774   6.666   3.191
 1933TIP3    H2 5764   0.730   6.558   3.094
 1934TIP3   OH2 5765   3.807   4.208   0.803
 1934TIP3    H1 5766   3.837   4.213   0.713
 1934TIP3    H2 5767   3.801   4.299   0.831
 1935TIP3   OH2 5768   5.877   5.775   2.918
 1935TIP3    H1 5769   5.813   5.705   2.923
 1935TIP3    H2 5770   5.828   5.850   2.883
 1936TIP3   OH2 5771   0.059   6.035   0.212
 1936TIP3    H1 5772   0.121   6.091   0.258
 1936TIP3    H2 5773  -0.027   6.072   0.232
 1937TIP3   OH2 5774   1.162   5.183   3.397
 1937TIP3    H1 5775   1.210   5.258   3.363
 1937TIP3    H2 5776   1.072   5.214   3.408
 1938TIP3   OH2 5777   0.159   0.600   0.322
 1938TIP3    H1 5778   0.249   0.594   0.289
 1938TIP3    H2 5779   0.106   0.565   0.250
 1939TIP3   OH2 5780   6.596   0.241   4.114
 1939TIP3    H1 5781   6.516   0.253   4.165
 1939TIP3    H2 5782   6.603   0.321   4.062
 1940TIP3   OH2 5783   6.181   3.605   3.164
 1940TIP3    H1 5784   6.220   3.585   3.249
 1940TIP3    H2 5785   6.102   3.655   3.186
 1941TIP3   OH2 5786   1.195   5.042   3.162
 1941TIP3    H1 5787   1.220   5.134   3.150
 1941TIP3    H2 5788   1.140   5.041   3.239
 1942TIP3   OH2 5789   1.747   1.208   5.405
 1942TIP3    H1 5790   1.828   1.228   5.451
 1942TIP3    H2 5791   1.758   1.248   5.318
 1943TIP3   OH2 5792   1.705   4.853   0.777
 1943TIP3    H1 5793   1.756   4.901   0.711
 1943TIP3    H2 5794   1.671   4.777   0.729
 1944TIP3   OH2 5795   6.239   2.070   0.891
 1944TIP3    H1 5796   6.230   2.052   0.797
 1944TIP3    H2 5797   6.155   2.046   0.929
 1945TIP3   OH2 5798   1.961   5.787   2.457
 1945TIP3    H1 5799   2.009   5.717   2.501
 1945TIP3    H2 5800   1.869   5.772   2.480
 1946TIP3   OH2 5801   1.386   3.870   0.678
 1946TIP3    H1 5802   1.387   3.783   0.639
 1946TIP3    H2 5803   1.314   3.867   0.741
 1947TIP3   OH2 5804   0.502   0.625   3.728
 1947TIP3    H1 5805   0.443   0.650   3.657
 1947TIP3    H2 5806   0.460   0.550   3.770
 1948TIP3   OH2 5807   4.801   3.620   3.604
 1948TIP3    H1 5808   4.813   3.641   3.511
 1948TIP3    H2 5809   4.786   3.525   3.605
 1949TIP3   OH2 5810   2.597   2.151   2.454
 1949TIP3    H1 5811   2.600   2.245   2.436
 1949TIP3    H2 5812   2.688   2.127   2.469
 1950TIP3   OH2 5813   3.953   5.262   3.565
 1950TIP3    H1 5814   3.862   5.233   3.567
 1950TIP3    H2 5815   3.962   5.320   3.640
 1951TIP3   OH2 5816   4.082   2.538   3.142
 1951TIP3    H1 5817   4.017   2.606   3.157
 1951TIP3    H2 5818   4.098   2.500   3.229
 1952TIP3   OH2 5819  -0.024   1.925   4.187
 1952TIP3    H1 5820  -0.022   1.944   4.093
 1952TIP3    H2 5821   0.049   1.864   4.200
 1953TIP3   OH2 5822   5.166   2.236   1.173
 1953TIP3    H1 5823   5.143   2.290   1.249
 1953TIP3    H2 5824   5.187   2.150   1.210
 1954TIP3   OH2 5825   6.224   5.215   5.466
 1954TIP3    H1 5826   6.268   5.155   5.526
 1954TIP3    H2 5827   6.239   5.302   5.502
 1955TIP3   OH2 5828   7.023   3.310   1.360
 1955TIP3    H1 5829   7.032   3.403   1.339
 1955TIP3    H2 5830   7.112   3.277   1.360
 1956TIP3   OH2 5831   4.463   1.916   2.147
 1956TIP3    H1 5832   4.421   1.915   2.061
 1956TIP3    H2 5833   4.542   1.969   2.134
 1957TIP3   OH2 5834   5.881   4.148   1.675
 1957TIP3    H1 5835   5.823   4.100   1.617
 1957TIP3    H2 5836   5.968   4.109   1.661
 1958TIP3   OH2 5837   5.411   0.192   0.267
 1958TIP3    H1 5838   5.500   0.160   0.254
 1958TIP3    H2 5839   5.423   0.282   0.298
 1959TIP3   OH2 5840   5.185   6.748   4.417
 1959TIP3    H1 5841   5.112   6.699   4.453
 1959TIP3    H2 5842   5.261   6.690   4.428
 1960TIP3   OH2 5843   3.036   6.512   1.816
 1960TIP3    H1 5844   2.984   6.432   1.821
 1960TIP3    H2 5845   3.126   6.484   1.834
 1961TIP3   OH2 5846   5.492   1.479   4.838
 1961TIP3    H1 5847   5.475   1.450   4.748
 1961TIP3    H2 5848   5.550   1.411   4.874
 1962TIP3   OH2 5849   6.667   4.047   0.722
 1962TIP3    H1 5850   6.724   4.099   0.779
 1962TIP3    H2 5851   6.620   3.990   0.782
 1963TIP3   OH2 5852   0.510   5.463   5.507
 1963TIP3    H1 5853   0.560   5.545   5.508
 1963TIP3    H2 5854   0.450   5.473   5.433
 1964TIP3   OH2 5855   2.383   5.951   3.742
 1964TIP3    H1 5856   2.440   5.934   3.667
 1964TIP3    H2 5857   2.345   6.037   3.724
 1965TIP3   OH2 5858   5.939   4.249   4.371
 1965TIP3    H1 5859   6.024   4.248   4.415
 1965TIP3    H2 5860   5.878   4.215   4.437
 1966TIP3   OH2 5861   2.757   4.148   5.609
 1966TIP3    H1 5862   2.828   4.158   5.546
 1966TIP3    H2 5863   2.728   4.238   5.627
 1967TIP3   OH2 5864   7.076   6.174   2.373
 1967TIP3    H1 5865   7.154   6.229   2.382
 1967TIP3    H2 5866   7.059   6.172   2.279
 1968TIP3   OH2 5867   4.683   2.786   4.966
 1968TIP3    H1 5868   4.611   2.845   4.987
 1968TIP3    H2 5869   4.674   2.770   4.872
 1969TIP3   OH2 5870   2.240   4.370   3.068
 1969TIP3    H1 5871   2.171   4.369   3.134
 1969TIP3    H2 5872   2.293   4.293   3.087
 1970TIP3   OH2 5873   2.792   1.502   3.782
 1970TIP3    H1 5874   2.724   1.565   3.758
 1970TIP3    H2 5875   2.805   1.516   3.876
 1971TIP3   OH2 5876   3.447   4.068   1.041
 1971TIP3    H1 5877   3.369   4.039   1.088
 1971TIP3    H2 5878   3.423   4.155   1.007
 1972TIP3   OH2 5879   2.694   3.107   5.079
 1972TIP3    H1 5880   2.764   3.071   5.134
 1972TIP3    H2 5881   2.736   3.176   5.029
 1973TIP3   OH2 5882   2.981   1.041   2.849
 1973TIP3    H1 5883   2.926   0.968   2.818
 1973TIP3    H2 5884   2.988   1.028   2.943
 1974TIP3   OH2 5885   5.948   1.115   4.723
 1974TIP3    H1 5886   5.960   1.199   4.765
 1974TIP3    H2 5887   6.004   1.119   4.645
 1975TIP3   OH2 5888   2.879   2.837   3.399
 1975TIP3    H1 5889   2.821   2.793   3.461
 1975TIP3    H2 5890   2.833   2.917   3.375
 1976TIP3   OH2 5891   1.233   1.353   2.915
 1976TIP3    H1 5892   1.240   1.259   2.933
 1976TIP3    H2 5893   1.194   1.357   2.828
 1977TIP3   OH2 5894   1.805   0.931   5.210
 1977TIP3    H1 5895   1.846   0.965   5.289
 1977TIP3    H2 5896   1.721   0.976   5.205
 1978TIP3   OH2 5897   0.750   2.646   0.735
 1978TIP3    H1 5898   0.809   2.720   0.746
 1978TIP3    H2 5899   0.795   2.573   0.778
 1979TIP3   OH2 5900   2.754   1.938   5.337
 1979TIP3    H1 5901   2.823   1.871   5.342
 1979TIP3    H2 5902   2.799   2.016   5.304
 1980TIP3   OH2 5903   1.955   1.316   1.472
 1980TIP3    H1 5904   1.998   1.397   1.443
 1980TIP3    H2 5905   1.863   1.341   1.485
 1981TIP3   OH2 5906   6.649   4.713   3.023
 1981TIP3    H1 5907   6.637   4.682   3.113
 1981TIP3    H2 5908   6.583   4.665   2.972
 1982TIP3   OH2 5909   6.022   6.636   4.574
 1982TIP3    H1 5910   5.974   6.703   4.525
 1982TIP3    H2 5911   6.113   6.662   4.569
 1983TIP3   OH2 5912   3.463   1.747   1.005
 1983TIP3    H1 5913   3.396   1.780   0.945
 1983TIP3    H2 5914   3.537   1.807   0.992
 1984TIP3   OH2 5915   5.483   5.040   1.783
 1984TIP3    H1 5916   5.517   4.984   1.714
 1984TIP3    H2 5917   5.395   5.064   1.753
 1985TIP3   OH2 5918   3.583   1.446   4.021
 1985TIP3    H1 5919   3.501   1.492   4.038
 1985TIP3    H2 5920   3.556   1.356   4.003
 1986TIP3   OH2 5921   0.966   2.807   4.457
 1986TIP3    H1 5922   0.938   2.744   4.523
 1986TIP3    H2 5923   1.046   2.769   4.420
 1987TIP3   OH2 5924   1.222   3.547   4.029
 1987TIP3    H1 5925   1.181   3.555   3.943
 1987TIP3    H2 5926   1.210   3.455   4.053
 1988TIP3   OH2 5927   0.605   3.688   0.944
 1988TIP3    H1 5928   0.592   3.696   1.039
 1988TIP3    H2 5929   0.623   3.595   0.930
 1989TIP3   OH2 5930   5.864   4.539   3.347
 1989TIP3    H1 5931   5.891   4.616   3.297
 1989TIP3    H2 5932   5.899   4.465   3.298
 1990TIP3   OH2 5933   5.275   1.664   4.641
 1990TIP3    H1 5934   5.242   1.654   4.730
 1990TIP3    H2 5935   5.314   1.579   4.620
 1991TIP3   OH2 5936   4.467   4.573   2.998
 1991TIP3    H1 5937   4.372   4.586   2.993
 1991TIP3    H2 5938   4.486   4.508   2.929
 1992TIP3   OH2 5939   5.022   1.372   1.348
 1992TIP3    H1 5940   4.966   1.332   1.280
 1992TIP3    H2 5941   4.981   1.456   1.367
 1993TIP3   OH2 5942   0.261   5.155   1.637
 1993TIP3    H1 5943   0.253   5.228   1.576
 1993TIP3    H2 5944   0.189   5.167   1.699
 1994TIP3   OH2 5945   5.447   6.124   4.176
 1994TIP3    H1 5946   5.381   6.145   4.110
 1994TIP3    H2 5947   5.528   6.160   4.141
 1995TIP3   OH2 5948   6.954   4.152   4.786
 1995TIP3    H1 5949   6.879   4.132   4.729
 1995TIP3    H2 5950   6.955   4.248   4.790
 1996TIP3   OH2 5951   0.377   6.080   3.764
 1996TIP3    H1 5952   0.286   6.055   3.778
 1996TIP3    H2 5953   0.374   6.146   3.694
 1997TIP3   OH2 5954   5.100   4.904   2.789
 1997TIP3    H1 5955   5.069   4.993   2.806
 1997TIP3    H2 5956   5.060   4.851   2.858
 1998TIP3   OH2 5957   3.727   5.526   1.824
 1998TIP3    H1 5958   3.709   5.513   1.731
 1998TIP3    H2 5959   3.642   5.517   1.867
 1999TIP3   OH2 5960   5.647   6.679   2.045
 1999TIP3    H1 5961   5.726   6.710   2.089
 1999TIP3    H2 5962   5.643   6.730   1.964
 2000TIP3   OH2 5963   5.274   1.865   2.327
 2000TIP3    H1 5964   5.289   1.798   2.393
 2000TIP3    H2 5965   5.330   1.839   2.253
 2001TIP3   OH2 5966   4.956   5.124   5.474
 2001TIP3    H1 5967   5.016   5.050   5.466
 2001TIP3    H2 5968   5.011   5.196   5.505
 2002TIP3   OH2 5969   4.863   1.933   0.958
 2002TIP3    H1 5970   4.917   2.009   0.978
 2002TIP3    H2 5971   4.886   1.911   0.867
 2003TIP3   OH2 5972   6.772   5.928   1.894
 2003TIP3    H1 5973   6.740   5.840   1.874
 2003TIP3    H2 5974   6.762   5.936   1.989
 2004TIP3   OH2 5975   0.520   2.182   2.577
 2004TIP3    H1 5976   0.593   2.183   2.638
 2004TIP3    H2 5977   0.509   2.090   2.554
 2005TIP3   OH2 5978  -0.008   2.160   3.314
 2005TIP3    H1 5979  -0.036   2.155   3.223
 2005TIP3    H2 5980   0.068   2.102   3.320
 2006TIP3   OH2 5981   4.120   6.485   3.396
 2006TIP3    H1 5982   4.114   6.536   3.316
 2006TIP3    H2 5983   4.124   6.550   3.466
 2007TIP3   OH2 5984   4.886   0.389   5.203
 2007TIP3    H1 5985   4.845   0.448   5.266
 2007TIP3    H2 5986   4.846   0.304   5.220
 2008TIP3   OH2 5987   7.149   0.621   3.259
 2008TIP3    H1 5988   7.190   0.673   3.328
 2008TIP3    H2 5989   7.183   0.659   3.178
 2009TIP3   OH2 5990   3.365   2.058   3.743
 2009TIP3    H1 5991   3.279   2.068   3.783
 2009TIP3    H2 5992   3.381   1.963   3.747
 2010TIP3   OH2 5993   2.503   6.373   1.968
 2010TIP3    H1 5994   2.561   6.329   2.029
 2010TIP3    H2 5995   2.552   6.450   1.938
 2011TIP3   OH2 5996   3.438   1.066   0.276
 2011TIP3    H1 5997   3.351   1.106   0.279
 2011TIP3    H2 5998   3.461   1.053   0.368
 2012TIP3   OH2 5999   3.782   3.950   5.475
 2012TIP3    H1 6000   3.877   3.951   5.488
 2012TIP3    H2 6001   3.748   4.010   5.541
 2013TIP3   OH2 6002   0.515   3.213   1.268
 2013TIP3    H1 6003   0.554   3.173   1.190
 2013TIP3    H2 6004   0.487   3.138   1.321
 2014TIP3   OH2 6005   4.293   4.543   5.603
 2014TIP3    H1 6006   4.204   4.578   5.598
 2014TIP3    H2 6007   4.332   4.561   5.518
 2015TIP3   OH2 6008   2.752   5.293   5.361
 2015TIP3    H1 6009   2.818   5.288   5.430
 2015TIP3    H2 6010   2.753   5.206   5.320
 2016TIP3   OH2 6011   3.815   6.332   2.770
 2016TIP3    H1 6012   3.878   6.367   2.708
 2016TIP3    H2 6013   3.771   6.409   2.806
 2017TIP3   OH2 6014   5.136   3.408   4.520
 2017TIP3    H1 6015   5.217   3.390   4.568
 2017TIP3    H2 6016   5.091   3.323   4.516
 2018TIP3   OH2 6017   3.748   3.800   3.374
 2018TIP3    H1 6018   3.735   3.817   3.468
 2018TIP3    H2 6019   3.719   3.710   3.362
 2019TIP3   OH2 6020   5.160   2.157   2.979
 2019TIP3    H1 6021   5.122   2.153   2.891
 2019TIP3    H2 6022   5.085   2.147   3.038
 2020TIP3   OH2 6023   2.763   0.963   2.699
 2020TIP3    H1 6024   2.749   0.875   2.734
 2020TIP3    H2 6025   2.711   1.020   2.755
 2021TIP3   OH2 6026   4.957   1.118   0.538
 2021TIP3    H1 6027   5.000   1.175   0.602
 2021TIP3    H2 6028   5.001   1.034   0.547
 2022TIP3   OH2 6029   0.065   5.397   4.875
 2022TIP3    H1 6030   0.053   5.344   4.796
 2022TIP3    H2 6031   0.114   5.340   4.934
 2023TIP3   OH2 6032   5.591   0.172   4.450
 2023TIP3    H1 6033   5.502   0.205   4.465
 2023TIP3    H2 6034   5.641   0.202   4.525
 2024TIP3   OH2 6035   2.563   6.078   0.075
 2024TIP3    H1 6036   2.528   6.043   0.157
 2024TIP3    H2 6037   2.502   6.148   0.051
 2025TIP3   OH2 6038   3.136   0.934   5.628
 2025TIP3    H1 6039   3.166   1.003   5.569
 2025TIP3    H2 6040   3.210   0.917   5.685
 2026TIP3   OH2 6041   5.745   3.745   0.446
 2026TIP3    H1 6042   5.708   3.672   0.495
 2026TIP3    H2 6043   5.674   3.774   0.389
 2027TIP3   OH2 6044   5.814   4.321   5.249
 2027TIP3    H1 6045   5.764   4.374   5.311
 2027TIP3    H2 6046   5.837   4.382   5.178
 2028TIP3   OH2 6047   4.777   4.228   3.730
 2028TIP3    H1 6048   4.724   4.191   3.659
 2028TIP3    H2 6049   4.816   4.307   3.692
 2029TIP3   OH2 6050   0.982   4.543   0.130
 2029TIP3    H1 6051   1.064   4.543   0.079
 2029TIP3    H2 6052   0.987   4.463   0.182
 2030TIP3   OH2 6053   6.642   1.887   0.472
 2030TIP3    H1 6054   6.727   1.904   0.512
 2030TIP3    H2 6055   6.663   1.868   0.380
 2031TIP3   OH2 6056   5.610   3.269   5.404
 2031TIP3    H1 6057   5.691   3.319   5.403
 2031TIP3    H2 6058   5.623   3.200   5.338
 2032TIP3   OH2 6059   0.658   6.005   5.391
 2032TIP3    H1 6060   0.592   6.073   5.406
 2032TIP3    H2 6061   0.666   5.999   5.296
 2033TIP3   OH2 6062   5.977   4.136   0.216
 2033TIP3    H1 6063   6.059   4.174   0.184
 2033TIP3    H2 6064   6.003   4.088   0.295
 2034TIP3   OH2 6065   4.097   1.746   5.280
 2034TIP3    H1 6066   4.003   1.732   5.269
 2034TIP3    H2 6067   4.121   1.808   5.212
 2035TIP3   OH2 6068   6.995   4.036   1.030
 2035TIP3    H1 6069   6.907   4.075   1.028
 2035TIP3    H2 6070   7.027   4.055   1.118
 2036TIP3   OH2 6071   1.125   0.194   4.206
 2036TIP3    H1 6072   1.212   0.231   4.197
 2036TIP3    H2 6073   1.075   0.260   4.253
 2037TIP3   OH2 6074   3.149   6.198   5.193
 2037TIP3    H1 6075   3.238   6.172   5.169
 2037TIP3    H2 6076   3.154   6.217   5.287
 2038TIP3   OH2 6077   7.179   4.445   2.824
 2038TIP3    H1 6078   7.085   4.440   2.807
 2038TIP3    H2 6079   7.219   4.402   2.748
 2039TIP3   OH2 6080   5.866   0.414   2.847
 2039TIP3    H1 6081   5.943   0.449   2.892
 2039TIP3    H2 6082   5.885   0.425   2.754
 2040TIP3   OH2 6083   0.528   6.157   2.588
 2040TIP3    H1 6084   0.580   6.097   2.535
 2040TIP3    H2 6085   0.440   6.119   2.589
 2041TIP3   OH2 6086   2.075   1.991   3.501
 2041TIP3    H1 6087   2.157   1.949   3.475
 2041TIP3    H2 6088   2.024   1.996   3.420
 2042TIP3   OH2 6089   2.175   3.519   0.200
 2042TIP3    H1 6090   2.156   3.442   0.253
 2042TIP3    H2 6091   2.093   3.569   0.201
 2043TIP3   OH2 6092   4.889   2.167   5.314
 2043TIP3    H1 6093   4.856   2.082   5.287
 2043TIP3    H2 6094   4.872   2.225   5.240
 2044TIP3   OH2 6095   6.800   5.263   4.482
 2044TIP3    H1 6096   6.855   5.331   4.444
 2044TIP3    H2 6097   6.712   5.284   4.452
 2045TIP3   OH2 6098   6.243   4.946   4.686
 2045TIP3    H1 6099   6.229   4.854   4.709
 2045TIP3    H2 6100   6.209   4.995   4.761
 2046TIP3   OH2 6101   3.729   2.734   4.685
 2046TIP3    H1 6102   3.727   2.677   4.762
 2046TIP3    H2 6103   3.637   2.750   4.665
 2047TIP3   OH2 6104   5.849   3.603   0.726
 2047TIP3    H1 6105   5.789   3.677   0.718
 2047TIP3    H2 6106   5.923   3.636   0.776
 2048TIP3   OH2 6107   3.770   3.150   1.893
 2048TIP3    H1 6108   3.771   3.177   1.801
 2048TIP3    H2 6109   3.821   3.217   1.938
 2049TIP3   OH2 6110   1.582   0.610   3.080
 2049TIP3    H1 6111   1.490   0.585   3.070
 2049TIP3    H2 6112   1.614   0.553   3.150
 2050TIP3   OH2 6113   6.187   2.858   3.753
 2050TIP3    H1 6114   6.244   2.783   3.768
 2050TIP3    H2 6115   6.165   2.854   3.660
 2051TIP3   OH2 6116   2.799   2.298   0.039
 2051TIP3    H1 6117   2.846   2.322   0.119
 2051TIP3    H2 6118   2.759   2.380   0.010
 2052TIP3   OH2 6119   6.263   4.296   3.059
 2052TIP3    H1 6120   6.311   4.261   3.133
 2052TIP3    H2 6121   6.308   4.262   2.982
 2053TIP3   OH2 6122   5.530   5.405   1.609
 2053TIP3    H1 6123   5.438   5.430   1.596
 2053TIP3    H2 6124   5.552   5.440   1.696
 2054TIP3   OH2 6125   5.099   3.287   3.483
 2054TIP3    H1 6126   5.143   3.342   3.547
 2054TIP3    H2 6127   5.031   3.342   3.445
 2055TIP3   OH2 6128   2.830   5.057   0.869
 2055TIP3    H1 6129   2.892   5.002   0.917
 2055TIP3    H2 6130   2.778   5.099   0.937
 2056TIP3   OH2 6131   5.210   4.604   1.405
 2056TIP3    H1 6132   5.180   4.538   1.468
 2056TIP3    H2 6133   5.156   4.591   1.328
 2057TIP3   OH2 6134   5.158   4.676   2.362
 2057TIP3    H1 6135   5.168   4.762   2.322
 2057TIP3    H2 6136   5.210   4.680   2.443
 2058TIP3   OH2 6137   2.367   6.668   4.520
 2058TIP3    H1 6138   2.358   6.752   4.564
 2058TIP3    H2 6139   2.279   6.648   4.489
 2059TIP3   OH2 6140   5.798   2.998   0.296
 2059TIP3    H1 6141   5.742   2.925   0.271
 2059TIP3    H2 6142   5.860   2.960   0.359
 2060TIP3   OH2 6143   6.222   0.971   1.686
 2060TIP3    H1 6144   6.281   0.938   1.754
 2060TIP3    H2 6145   6.196   1.058   1.717
 2061TIP3   OH2 6146   6.219   1.673   4.915
 2061TIP3    H1 6147   6.281   1.726   4.965
 2061TIP3    H2 6148   6.134   1.689   4.957
 2062TIP3   OH2 6149   0.815   0.303   5.255
 2062TIP3    H1 6150   0.809   0.398   5.260
 2062TIP3    H2 6151   0.750   0.271   5.318
 2063TIP3   OH2 6152   6.815   0.969   0.738
 2063TIP3    H1 6153   6.743   1.029   0.754
 2063TIP3    H2 6154   6.822   0.918   0.819
 2064TIP3   OH2 6155   1.817   2.696   0.605
 2064TIP3    H1 6156   1.906   2.731   0.611
 2064TIP3    H2 6157   1.828   2.601   0.610
 2065TIP3   OH2 6158   6.788   5.335   2.031
 2065TIP3    H1 6159   6.841   5.262   1.999
 2065TIP3    H2 6160   6.738   5.297   2.104
 2066TIP3   OH2 6161   5.930   4.045   3.407
 2066TIP3    H1 6162   6.004   4.082   3.454
 2066TIP3    H2 6163   5.866   4.117   3.402
 2067TIP3   OH2 6164   7.227   0.774   5.165
 2067TIP3    H1 6165   7.224   0.859   5.208
 2067TIP3    H2 6166   7.178   0.787   5.084
 2068TIP3   OH2 6167   5.479   0.313   2.714
 2068TIP3    H1 6168   5.469   0.262   2.634
 2068TIP3    H2 6169   5.551   0.270   2.761
 2069TIP3   OH2 6170   1.571   4.745   5.264
 2069TIP3    H1 6171   1.654   4.792   5.275
 2069TIP3    H2 6172   1.563   4.733   5.170
 2070TIP3   OH2 6173   1.347   2.424   1.592
 2070TIP3    H1 6174   1.305   2.458   1.513
 2070TIP3    H2 6175   1.304   2.472   1.664
 2071TIP3   OH2 6176   3.550   6.686   1.643
 2071TIP3    H1 6177   3.462   6.669   1.677
 2071TIP3    H2 6178   3.553   6.641   1.559
 2072TIP3   OH2 6179   6.350   5.871   3.486
 2072TIP3    H1 6180   6.333   5.811   3.559
 2072TIP3    H2 6181   6.326   5.820   3.408
 2073TIP3   OH2 6182   1.633   1.935   1.895
 2073TIP3    H1 6183   1.724   1.964   1.895
 2073TIP3    H2 6184   1.582   2.016   1.905
 2074TIP3   OH2 6185   5.946   0.505   5.907
 2074TIP3    H1 6186   5.867   0.556   5.924
 2074TIP3    H2 6187   5.969   0.526   5.817
 2075TIP3   OH2 6188   6.311   2.350   1.120
 2075TIP3    H1 6189   6.240   2.344   1.057
 2075TIP3    H2 6190   6.299   2.275   1.177
 2076TIP3   OH2 6191   6.716   4.147   3.845
 2076TIP3    H1 6192   6.764   4.161   3.764
 2076TIP3    H2 6193   6.743   4.219   3.903
 2077TIP3   OH2 6194   5.669   1.757  -0.004
 2077TIP3    H1 6195   5.736   1.740   0.061
 2077TIP3    H2 6196   5.589   1.770   0.047
 2078TIP3   OH2 6197   0.421   2.137   0.100
 2078TIP3    H1 6198   0.398   2.146   0.193
 2078TIP3    H2 6199   0.485   2.207   0.085
 2079TIP3   OH2 6200   4.735   4.423   2.150
 2079TIP3    H1 6201   4.671   4.366   2.108
 2079TIP3    H2 6202   4.709   4.425   2.243
 2080TIP3   OH2 6203   5.040   6.653   2.774
 2080TIP3    H1 6204   5.069   6.590   2.840
 2080TIP3    H2 6205   5.015   6.598   2.699
 2081TIP3   OH2 6206   2.928   5.275   1.980
 2081TIP3    H1 6207   2.917   5.264   1.886
 2081TIP3    H2 6208   2.993   5.210   2.005
 2082TIP3   OH2 6209   2.010   5.119   3.997
 2082TIP3    H1 6210   1.955   5.051   3.957
 2082TIP3    H2 6211   1.957   5.156   4.067
 2083TIP3   OH2 6212   5.771   0.386   0.607
 2083TIP3    H1 6213   5.836   0.456   0.615
 2083TIP3    H2 6214   5.815   0.309   0.643
 2084TIP3   OH2 6215   3.742   0.759   4.642
 2084TIP3    H1 6216   3.761   0.850   4.616
 2084TIP3    H2 6217   3.800   0.706   4.586
 2085TIP3   OH2 6218   1.111   3.353   1.089
 2085TIP3    H1 6219   1.073   3.418   1.030
 2085TIP3    H2 6220   1.040   3.331   1.149
 2086TIP3   OH2 6221   3.939   4.830   0.135
 2086TIP3    H1 6222   3.895   4.843   0.051
 2086TIP3    H2 6223   3.889   4.882   0.197
 2087TIP3   OH2 6224   3.534   0.437   5.596
 2087TIP3    H1 6225   3.442   0.451   5.619
 2087TIP3    H2 6226   3.559   0.516   5.547
 2088TIP3   OH2 6227   1.964   2.825   3.238
 2088TIP3    H1 6228   1.901   2.780   3.294
 2088TIP3    H2 6229   2.049   2.810   3.280
 2089TIP3   OH2 6230   0.598   6.405   1.510
 2089TIP3    H1 6231   0.538   6.469   1.472
 2089TIP3    H2 6232   0.599   6.333   1.448
 2090TIP3   OH2 6233   3.797   5.407   1.189
 2090TIP3    H1 6234   3.833   5.495   1.196
 2090TIP3    H2 6235   3.706   5.417   1.217
 2091TIP3   OH2 6236   5.674   4.627   2.079
 2091TIP3    H1 6237   5.645   4.677   2.003
 2091TIP3    H2 6238   5.750   4.578   2.048
 2092TIP3   OH2 6239   4.036   1.343   1.207
 2092TIP3    H1 6240   4.024   1.272   1.270
 2092TIP3    H2 6241   3.951   1.353   1.165
 2093TIP3   OH2 6242   1.166   3.777   1.318
 2093TIP3    H1 6243   1.075   3.804   1.303
 2093TIP3    H2 6244   1.159   3.685   1.343
 2094TIP3   OH2 6245   7.201   2.224   1.839
 2094TIP3    H1 6246   7.161   2.307   1.814
 2094TIP3    H2 6247   7.183   2.165   1.766
 2095TIP3   OH2 6248   1.878   5.290   0.567
 2095TIP3    H1 6249   1.920   5.371   0.538
 2095TIP3    H2 6250   1.791   5.316   0.597
 2096TIP3   OH2 6251   5.418   2.587   1.354
 2096TIP3    H1 6252   5.359   2.560   1.285
 2096TIP3    H2 6253   5.385   2.542   1.433
 2097TIP3   OH2 6254   4.997   0.818   4.402
 2097TIP3    H1 6255   5.022   0.890   4.345
 2097TIP3    H2 6256   4.930   0.855   4.459
 2098TIP3   OH2 6257   1.696   3.753   2.155
 2098TIP3    H1 6258   1.617   3.758   2.100
 2098TIP3    H2 6259   1.753   3.822   2.121
 2099TIP3   OH2 6260   3.647   0.048   0.954
 2099TIP3    H1 6261   3.586   0.120   0.936
 2099TIP3    H2 6262   3.613   0.008   1.034
 2100TIP3   OH2 6263   4.395   1.173   0.855
 2100TIP3    H1 6264   4.426   1.113   0.788
 2100TIP3    H2 6265   4.406   1.126   0.938
 2101TIP3   OH2 6266   1.375   3.603   2.198
 2101TIP3    H1 6267   1.311   3.638   2.136
 2101TIP3    H2 6268   1.404   3.521   2.159
 2102TIP3   OH2 6269   1.292   0.676   1.609
 2102TIP3    H1 6270   1.209   0.711   1.578
 2102TIP3    H2 6271   1.334   0.750   1.654
 2103TIP3   OH2 6272   0.395   3.293   4.847
 2103TIP3    H1 6273   0.367   3.244   4.770
 2103TIP3    H2 6274   0.322   3.353   4.865
 2104TIP3   OH2 6275   6.516   2.019   0.903
 2104TIP3    H1 6276   6.423   2.039   0.913
 2104TIP3    H2 6277   6.538   2.050   0.815
 2105TIP3   OH2 6278   0.822   5.297   2.545
 2105TIP3    H1 6279   0.905   5.344   2.539
 2105TIP3    H2 6280   0.847   5.205   2.552
 2106TIP3   OH2 6281   1.082   1.326   3.935
 2106TIP3    H1 6282   1.045   1.247   3.975
 2106TIP3    H2 6283   1.010   1.365   3.887
 2107TIP3   OH2 6284   2.195   5.566   1.802
 2107TIP3    H1 6285   2.254   5.529   1.867
 2107TIP3    H2 6286   2.116   5.588   1.851
 2108TIP3   OH2 6287   3.345   2.961   1.250
 2108TIP3    H1 6288   3.316   3.042   1.207
 2108TIP3    H2 6289   3.356   2.899   1.179
 2109TIP3   OH2 6290   2.426   3.809   4.510
 2109TIP3    H1 6291   2.357   3.874   4.492
 2109TIP3    H2 6292   2.379   3.733   4.543
 2110TIP3   OH2 6293   4.409   5.444   0.046
 2110TIP3    H1 6294   4.486   5.412   0.092
 2110TIP3    H2 6295   4.439   5.523   0.001
 2111TIP3   OH2 6296   3.060   1.841   2.457
 2111TIP3    H1 6297   3.063   1.809   2.547
 2111TIP3    H2 6298   3.079   1.934   2.464
 2112TIP3   OH2 6299   0.573   0.981   0.253
 2112TIP3    H1 6300   0.534   1.053   0.304
 2112TIP3    H2 6301   0.660   0.969   0.292
 2113TIP3   OH2 6302   1.295   4.481   0.490
 2113TIP3    H1 6303   1.277   4.444   0.576
 2113TIP3    H2 6304   1.324   4.406   0.437
 2114TIP3   OH2 6305   4.770   2.491   0.840
 2114TIP3    H1 6306   4.833   2.431   0.798
 2114TIP3    H2 6307   4.775   2.470   0.933
 2115TIP3   OH2 6308   1.479   1.997   1.455
 2115TIP3    H1 6309   1.524   2.076   1.486
 2115TIP3    H2 6310   1.462   1.947   1.535
 2116TIP3   OH2 6311   1.033   2.937   2.900
 2116TIP3    H1 6312   1.004   2.969   2.814
 2116TIP3    H2 6313   1.111   2.885   2.881
 2117TIP3   OH2 6314   3.907   1.531   0.694
 2117TIP3    H1 6315   3.864   1.459   0.739
 2117TIP3    H2 6316   3.918   1.501   0.604
 2118TIP3   OH2 6317   3.147   4.832   2.866
 2118TIP3    H1 6318   3.173   4.784   2.945
 2118TIP3    H2 6319   3.221   4.821   2.806
 2119TIP3   OH2 6320   6.840   6.583   0.988
 2119TIP3    H1 6321   6.758   6.586   1.037
 2119TIP3    H2 6322   6.905   6.557   1.053
 2120TIP3   OH2 6323   3.319   3.909   4.124
 2120TIP3    H1 6324   3.300   3.898   4.217
 2120TIP3    H2 6325   3.278   3.991   4.100
 2121TIP3   OH2 6326   6.097   5.840   5.362
 2121TIP3    H1 6327   6.026   5.811   5.304
 2121TIP3    H2 6328   6.069   5.814   5.449
 2122TIP3   OH2 6329   3.482   4.520   0.165
 2122TIP3    H1 6330   3.551   4.505   0.099
 2122TIP3    H2 6331   3.401   4.524   0.114
 2123TIP3   OH2 6332   2.513   3.171   0.917
 2123TIP3    H1 6333   2.607   3.177   0.901
 2123TIP3    H2 6334   2.505   3.159   1.012
 2124TIP3   OH2 6335   4.716   1.590   1.590
 2124TIP3    H1 6336   4.757   1.598   1.676
 2124TIP3    H2 6337   4.732   1.674   1.548
 2125TIP3   OH2 6338   4.087   1.028   2.971
 2125TIP3    H1 6339   4.035   0.951   2.945
 2125TIP3    H2 6340   4.145   1.044   2.898
 2126TIP3   OH2 6341   2.554   5.409   1.124
 2126TIP3    H1 6342   2.540   5.455   1.206
 2126TIP3    H2 6343   2.569   5.479   1.059
 2127TIP3   OH2 6344   3.418   4.846   1.774
 2127TIP3    H1 6345   3.420   4.754   1.748
 2127TIP3    H2 6346   3.427   4.895   1.692
 2128TIP3   OH2 6347   3.159   6.664   5.038
 2128TIP3    H1 6348   3.120   6.702   4.960
 2128TIP3    H2 6349   3.229   6.725   5.062
 2129TIP3   OH2 6350   2.262   5.875   5.537
 2129TIP3    H1 6351   2.286   5.935   5.608
 2129TIP3    H2 6352   2.285   5.923   5.457
 2130TIP3   OH2 6353   0.796   3.352   5.555
 2130TIP3    H1 6354   0.761   3.338   5.643
 2130TIP3    H2 6355   0.735   3.414   5.514
 2131TIP3   OH2 6356   3.151   0.338   1.597
 2131TIP3    H1 6357   3.238   0.350   1.559
 2131TIP3    H2 6358   3.145   0.407   1.664
 2132TIP3   OH2 6359   5.823   1.663   4.397
 2132TIP3    H1 6360   5.730   1.645   4.408
 2132TIP3    H2 6361   5.865   1.618   4.470
 2133TIP3   OH2 6362   2.729   1.463   5.694
 2133TIP3    H1 6363   2.750   1.378   5.732
 2133TIP3    H2 6364   2.800   1.521   5.725
 2134TIP3   OH2 6365   7.179   0.916   1.499
 2134TIP3    H1 6366   7.122   0.980   1.456
 2134TIP3    H2 6367   7.125   0.838   1.507
 2135TIP3   OH2 6368   7.047   2.027   2.719
 2135TIP3    H1 6369   7.024   1.943   2.680
 2135TIP3    H2 6370   7.090   2.003   2.802
 2136TIP3   OH2 6371   1.956   0.907   4.982
 2136TIP3    H1 6372   1.889   0.925   5.048
 2136TIP3    H2 6373   2.029   0.870   5.031
 2137TIP3   OH2 6374   1.575   5.656   4.266
 2137TIP3    H1 6375   1.537   5.610   4.191
 2137TIP3    H2 6376   1.527   5.739   4.269
 2138TIP3   OH2 6377   0.619   4.112   0.948
 2138TIP3    H1 6378   0.635   4.155   0.864
 2138TIP3    H2 6379   0.594   4.023   0.925
 2139TIP3   OH2 6380   4.373   0.752   4.968
 2139TIP3    H1 6381   4.327   0.670   4.950
 2139TIP3    H2 6382   4.406   0.743   5.057
 2140TIP3   OH2 6383   2.613   2.611   4.163
 2140TIP3    H1 6384   2.682   2.552   4.194
 2140TIP3    H2 6385   2.532   2.568   4.189
 2141TIP3   OH2 6386   6.278   5.656   1.722
 2141TIP3    H1 6387   6.228   5.685   1.798
 2141TIP3    H2 6388   6.218   5.598   1.675
 2142TIP3   OH2 6389   3.715   6.024   2.864
 2142TIP3    H1 6390   3.703   5.962   2.936
 2142TIP3    H2 6391   3.658   6.098   2.888
 2143TIP3   OH2 6392   6.428   0.784   4.832
 2143TIP3    H1 6393   6.449   0.766   4.740
 2143TIP3    H2 6394   6.420   0.879   4.836
 2144TIP3   OH2 6395   0.282   2.107   4.430
 2144TIP3    H1 6396   0.196   2.122   4.390
 2144TIP3    H2 6397   0.331   2.188   4.411
 2145TIP3   OH2 6398   1.772   6.028   5.714
 2145TIP3    H1 6399   1.770   5.933   5.702
 2145TIP3    H2 6400   1.799   6.062   5.629
 2146TIP3   OH2 6401   5.904   3.834   2.011
 2146TIP3    H1 6402   5.836   3.884   2.055
 2146TIP3    H2 6403   5.859   3.759   1.972
 2147TIP3   OH2 6404   4.383   1.137   5.072
 2147TIP3    H1 6405   4.339   1.089   5.002
 2147TIP3    H2 6406   4.349   1.099   5.153
 2148TIP3   OH2 6407   6.845   0.238   3.360
 2148TIP3    H1 6408   6.924   0.290   3.344
 2148TIP3    H2 6409   6.781   0.301   3.393
 2149TIP3   OH2 6410   3.378   0.010   3.488
 2149TIP3    H1 6411   3.424  -0.009   3.570
 2149TIP3    H2 6412   3.402   0.100   3.467
 2150TIP3   OH2 6413   0.146   2.311   5.555
 2150TIP3    H1 6414   0.234   2.274   5.553
 2150TIP3    H2 6415   0.152   2.385   5.616
 2151TIP3   OH2 6416   0.501   5.972   0.150
 2151TIP3    H1 6417   0.533   6.047   0.100
 2151TIP3    H2 6418   0.482   5.906   0.083
 2152TIP3   OH2 6419   6.445   2.268   2.350
 2152TIP3    H1 6420   6.520   2.328   2.353
 2152TIP3    H2 6421   6.440   2.231   2.439
 2153TIP3   OH2 6422   2.773   5.706   3.417
 2153TIP3    H1 6423   2.851   5.732   3.465
 2153TIP3    H2 6424   2.804   5.685   3.329
 2154TIP3   OH2 6425   6.669   5.377   3.744
 2154TIP3    H1 6426   6.625   5.407   3.665
 2154TIP3    H2 6427   6.751   5.427   3.746
 2155TIP3   OH2 6428   4.036   4.052   0.871
 2155TIP3    H1 6429   4.021   3.957   0.870
 2155TIP3    H2 6430   3.949   4.090   0.871
 2156TIP3   OH2 6431   3.360   2.691   4.422
 2156TIP3    H1 6432   3.388   2.613   4.374
 2156TIP3    H2 6433   3.301   2.736   4.362
 2157TIP3   OH2 6434   3.349   1.238   4.493
 2157TIP3    H1 6435   3.384   1.152   4.516
 2157TIP3    H2 6436   3.424   1.297   4.501
 2158TIP3   OH2 6437   3.572   6.582   5.084
 2158TIP3    H1 6438   3.648   6.529   5.106
 2158TIP3    H2 6439   3.517   6.525   5.030
 2159TIP3   OH2 6440   1.565   5.444   2.103
 2159TIP3    H1 6441   1.590   5.397   2.183
 2159TIP3    H2 6442   1.475   5.416   2.086
 2160TIP3   OH2 6443   3.175   1.804   3.463
 2160TIP3    H1 6444   3.115   1.841   3.527
 2160TIP3    H2 6445   3.176   1.710   3.482
 2161TIP3   OH2 6446   3.287   1.620   3.206
 2161TIP3    H1 6447   3.309   1.673   3.129
 2161TIP3    H2 6448   3.301   1.530   3.177
 2162TIP3   OH2 6449   2.192   4.774   0.314
 2162TIP3    H1 6450   2.131   4.763   0.387
 2162TIP3    H2 6451   2.211   4.868   0.311
 2163TIP3   OH2 6452   5.089   2.497   3.716
 2163TIP3    H1 6453   5.165   2.547   3.687
 2163TIP3    H2 6454   5.125   2.419   3.757
 2164TIP3   OH2 6455   5.932   6.631   1.503
 2164TIP3    H1 6456   5.862   6.627   1.438
 2164TIP3    H2 6457   5.899   6.582   1.578
 2165TIP3   OH2 6458   2.152   6.503   5.241
 2165TIP3    H1 6459   2.205   6.429   5.210
 2165TIP3    H2 6460   2.090   6.464   5.302
 2166TIP3   OH2 6461   0.678   1.208   5.473
 2166TIP3    H1 6462   0.611   1.276   5.460
 2166TIP3    H2 6463   0.710   1.189   5.384
 2167TIP3   OH2 6464   0.751   5.228   1.613
 2167TIP3    H1 6465   0.843   5.214   1.639
 2167TIP3    H2 6466   0.757   5.269   1.527
 2168TIP3   OH2 6467   6.077   4.771   0.373
 2168TIP3    H1 6468   6.026   4.769   0.454
 2168TIP3    H2 6469   6.011   4.769   0.303
 2169TIP3   OH2 6470   3.000   5.270   5.502
 2169TIP3    H1 6471   3.081   5.225   5.478
 2169TIP3    H2 6472   3.016   5.362   5.480
 2170TIP3   OH2 6473   6.384   2.764   0.128
 2170TIP3    H1 6474   6.346   2.721   0.051
 2170TIP3    H2 6475   6.333   2.844   0.138
 2171TIP3   OH2 6476   3.054   3.397   1.744
 2171TIP3    H1 6477   3.117   3.325   1.740
 2171TIP3    H2 6478   3.040   3.412   1.837
 2172TIP3   OH2 6479   0.339   5.334   3.760
 2172TIP3    H1 6480   0.400   5.317   3.688
 2172TIP3    H2 6481   0.325   5.248   3.800
 2173TIP3   OH2 6482   5.250   0.814   4.583
 2173TIP3    H1 6483   5.175   0.770   4.542
 2173TIP3    H2 6484   5.323   0.795   4.524
 2174TIP3   OH2 6485   5.444   2.981   4.047
 2174TIP3    H1 6486   5.535   2.971   4.018
 2174TIP3    H2 6487   5.412   3.058   4.000
 2175TIP3   OH2 6488   2.794   0.273   1.635
 2175TIP3    H1 6489   2.831   0.287   1.722
 2175TIP3    H2 6490   2.870   0.271   1.577
 2176TIP3   OH2 6491   5.618   4.349   3.148
 2176TIP3    H1 6492   5.673   4.295   3.091
 2176TIP3    H2 6493   5.579   4.413   3.089
 2177TIP3   OH2 6494   6.403   6.779   2.374
 2177TIP3    H1 6495   6.419   6.781   2.469
 2177TIP3    H2 6496   6.481   6.736   2.339
 2178TIP3   OH2 6497   5.111   3.357   0.769
 2178TIP3    H1 6498   5.108   3.287   0.704
 2178TIP3    H2 6499   5.176   3.328   0.833
 2179TIP3   OH2 6500   6.338   4.357   4.661
 2179TIP3    H1 6501   6.406   4.306   4.618
 2179TIP3    H2 6502   6.335   4.440   4.613
 2180TIP3   OH2 6503   5.418   0.802   2.284
 2180TIP3    H1 6504   5.502   0.844   2.267
 2180TIP3    H2 6505   5.420   0.780   2.377
 2181TIP3   OH2 6506   2.612   2.622   1.840
 2181TIP3    H1 6507   2.529   2.577   1.860
 2181TIP3    H2 6508   2.638   2.662   1.923
 2182TIP3   OH2 6509   0.465   5.922   5.642
 2182TIP3    H1 6510   0.524   5.868   5.694
 2182TIP3    H2 6511   0.416   5.860   5.588
 2183TIP3   OH2 6512   5.716   2.867   3.064
 2183TIP3    H1 6513   5.760   2.782   3.053
 2183TIP3    H2 6514   5.625   2.849   3.040
 2184TIP3   OH2 6515   7.224   3.825   4.131
 2184TIP3    H1 6516   7.229   3.748   4.075
 2184TIP3    H2 6517   7.170   3.798   4.205
 2185TIP3   OH2 6518   4.959   3.562   1.688
 2185TIP3    H1 6519   4.883   3.614   1.713
 2185TIP3    H2 6520   4.931   3.471   1.701
 2186TIP3   OH2 6521   2.836   6.727   1.737
 2186TIP3    H1 6522   2.909   6.665   1.737
 2186TIP3    H2 6523   2.871   6.805   1.779
 2187TIP3   OH2 6524   4.270   6.145   4.699
 2187TIP3    H1 6525   4.296   6.075   4.639
 2187TIP3    H2 6526   4.241   6.216   4.641
 2188TIP3   OH2 6527   3.660   0.404   0.716
 2188TIP3    H1 6528   3.755   0.414   0.717
 2188TIP3    H2 6529   3.626   0.488   0.687
 2189TIP3   OH2 6530   4.558   3.267   2.702
 2189TIP3    H1 6531   4.473   3.270   2.658
 2189TIP3    H2 6532   4.537   3.264   2.796
 2190TIP3   OH2 6533   3.550   0.288   3.524
 2190TIP3    H1 6534   3.499   0.327   3.596
 2190TIP3    H2 6535   3.507   0.321   3.445
 2191TIP3   OH2 6536   1.680   3.025   4.567
 2191TIP3    H1 6537   1.685   3.079   4.646
 2191TIP3    H2 6538   1.678   2.935   4.599
 2192TIP3   OH2 6539   6.728   0.022   1.802
 2192TIP3    H1 6540   6.707  -0.052   1.858
 2192TIP3    H2 6541   6.764  -0.018   1.722
 2193TIP3   OH2 6542   0.200   1.289   1.298
 2193TIP3    H1 6543   0.125   1.234   1.274
 2193TIP3    H2 6544   0.245   1.305   1.216
 2194TIP3   OH2 6545   1.126   0.556   4.388
 2194TIP3    H1 6546   1.175   0.479   4.360
 2194TIP3    H2 6547   1.034   0.532   4.376
 2195TIP3   OH2 6548   6.285   6.723   4.505
 2195TIP3    H1 6549   6.309   6.704   4.596
 2195TIP3    H2 6550   6.312   6.814   4.492
 2196TIP3   OH2 6551   0.916   3.212   3.493
 2196TIP3    H1 6552   0.883   3.209   3.403
 2196TIP3    H2 6553   1.000   3.256   3.487
 2197TIP3   OH2 6554   6.128   1.975   5.791
 2197TIP3    H1 6555   6.055   2.035   5.778
 2197TIP3    H2 6556   6.087   1.892   5.816
 2198TIP3   OH2 6557   1.370   4.003   4.031
 2198TIP3    H1 6558   1.357   4.056   4.110
 2198TIP3    H2 6559   1.384   3.914   4.064
 2199TIP3   OH2 6560   5.755   5.593   0.636
 2199TIP3    H1 6561   5.747   5.667   0.696
 2199TIP3    H2 6562   5.670   5.550   0.639
 2200TIP3   OH2 6563   1.252   3.443   2.848
 2200TIP3    H1 6564   1.213   3.528   2.826
 2200TIP3    H2 6565   1.341   3.464   2.874
 2201TIP3   OH2 6566   7.154   1.040   2.906
 2201TIP3    H1 6567   7.151   1.000   2.819
 2201TIP3    H2 6568   7.079   1.002   2.953
 2202TIP3   OH2 6569   3.164   6.722   1.135
 2202TIP3    H1 6570   3.213   6.686   1.060
 2202TIP3    H2 6571   3.219   6.793   1.167
 2203TIP3   OH2 6572   0.555   5.462   0.528
 2203TIP3    H1 6573   0.468   5.498   0.509
 2203TIP3    H2 6574   0.549   5.370   0.504
 2204TIP3   OH2 6575   0.178   1.122   0.415
 2204TIP3    H1 6576   0.185   1.163   0.328
 2204TIP3    H2 6577   0.131   1.040   0.399
 2205TIP3   OH2 6578   4.357   0.371   2.288
 2205TIP3    H1 6579   4.352   0.403   2.378
 2205TIP3    H2 6580   4.429   0.307   2.290
 2206TIP3   OH2 6581   0.157   4.893   3.362
 2206TIP3    H1 6582   0.167   4.798   3.352
 2206TIP3    H2 6583   0.117   4.921   3.279
 2207TIP3   OH2 6584   1.136   3.232   2.733
 2207TIP3    H1 6585   1.212   3.176   2.719
 2207TIP3    H2 6586   1.171   3.309   2.777
 2208TIP3   OH2 6587   0.966   0.455   1.023
 2208TIP3    H1 6588   0.928   0.511   1.091
 2208TIP3    H2 6589   0.962   0.509   0.944
 2209TIP3   OH2 6590   4.469   0.276   3.095
 2209TIP3    H1 6591   4.414   0.261   3.172
 2209TIP3    H2 6592   4.480   0.189   3.057
 2210TIP3   OH2 6593   3.419   3.770   5.535
 2210TIP3    H1 6594   3.459   3.758   5.621
 2210TIP3    H2 6595   3.369   3.851   5.543
 2211TIP3   OH2 6596   2.651   5.926   2.911
 2211TIP3    H1 6597   2.634   5.903   3.002
 2211TIP3    H2 6598   2.565   5.952   2.877
 2212TIP3   OH2 6599   2.026   1.364   5.211
 2212TIP3    H1 6600   1.992   1.288   5.163
 2212TIP3    H2 6601   2.003   1.439   5.157
 2213TIP3   OH2 6602   6.043   6.712   0.305
 2213TIP3    H1 6603   6.128   6.730   0.344
 2213TIP3    H2 6604   6.014   6.630   0.347
 2214TIP3   OH2 6605   3.472   5.486   1.743
 2214TIP3    H1 6606   3.432   5.419   1.687
 2214TIP3    H2 6607   3.409   5.558   1.743
 2215TIP3   OH2 6608   4.829   3.017   4.586
 2215TIP3    H1 6609   4.899   3.067   4.545
 2215TIP3    H2 6610   4.874   2.959   4.648
 2216TIP3   OH2 6611   5.765   3.141   2.939
 2216TIP3    H1 6612   5.855   3.152   2.910
 2216TIP3    H2 6613   5.751   3.046   2.939
 2217TIP3   OH2 6614   1.391   1.603   0.136
 2217TIP3    H1 6615   1.342   1.660   0.077
 2217TIP3    H2 6616   1.464   1.657   0.167
 2218TIP3   OH2 6617   6.114   2.472   5.778
 2218TIP3    H1 6618   6.035   2.522   5.756
 2218TIP3    H2 6619   6.147   2.441   5.694
 2219TIP3   OH2 6620   4.225   2.268   2.075
 2219TIP3    H1 6621   4.311   2.298   2.046
 2219TIP3    H2 6622   4.207   2.191   2.021
 2220TIP3   OH2 6623   7.056   0.347   1.197
 2220TIP3    H1 6624   7.052   0.420   1.258
 2220TIP3    H2 6625   7.129   0.369   1.138
 2221TIP3   OH2 6626   5.050   3.852   5.089
 2221TIP3    H1 6627   4.973   3.795   5.095
 2221TIP3    H2 6628   5.032   3.924   5.150
 2222TIP3   OH2 6629   6.708   2.059   3.883
 2222TIP3    H1 6630   6.798   2.066   3.853
 2222TIP3    H2 6631   6.702   1.972   3.924
 2223TIP3   OH2 6632   6.357   1.849   1.544
 2223TIP3    H1 6633   6.335   1.941   1.527
 2223TIP3    H2 6634   6.350   1.806   1.459
 2224TIP3   OH2 6635   1.203   0.752   1.110
 2224TIP3    H1 6636   1.168   0.765   1.198
 2224TIP3    H2 6637   1.248   0.668   1.115
 2225TIP3   OH2 6638   3.286   3.564   1.916
 2225TIP3    H1 6639   3.307   3.471   1.921
 2225TIP3    H2 6640   3.198   3.567   1.878
 2226TIP3   OH2 6641   3.137   1.415   4.883
 2226TIP3    H1 6642   3.090   1.481   4.934
 2226TIP3    H2 6643   3.087   1.405   4.803
 2227TIP3   OH2 6644   1.231   6.323   2.544
 2227TIP3    H1 6645   1.247   6.328   2.450
 2227TIP3    H2 6646   1.300   6.266   2.577
 2228TIP3   OH2 6647   7.050   5.540   4.822
 2228TIP3    H1 6648   7.134   5.504   4.852
 2228TIP3    H2 6649   7.017   5.476   4.760
 2229TIP3   OH2 6650   6.993   6.274   0.576
 2229TIP3    H1 6651   7.046   6.348   0.605
 2229TIP3    H2 6652   7.056   6.203   0.559
 2230TIP3   OH2 6653   0.999   3.901   2.062
 2230TIP3    H1 6654   0.949   3.920   2.142
 2230TIP3    H2 6655   0.988   3.980   2.009
 2231TIP3   OH2 6656   2.122   0.180   1.109
 2231TIP3    H1 6657   2.054   0.242   1.083
 2231TIP3    H2 6658   2.176   0.227   1.172
 2232TIP3   OH2 6659   2.139   1.200   3.624
 2232TIP3    H1 6660   2.108   1.277   3.577
 2232TIP3    H2 6661   2.114   1.126   3.568
 2233TIP3   OH2 6662   2.388   4.467   3.740
 2233TIP3    H1 6663   2.397   4.456   3.834
 2233TIP3    H2 6664   2.355   4.557   3.730
 2234TIP3   OH2 6665   2.343   6.819   5.554
 2234TIP3    H1 6666   2.313   6.814   5.463
 2234TIP3    H2 6667   2.295   6.750   5.599
 2235TIP3   OH2 6668   7.021   5.164   2.878
 2235TIP3    H1 6669   6.956   5.137   2.812
 2235TIP3    H2 6670   6.998   5.254   2.900
 2236TIP3   OH2 6671   3.651   0.447   2.713
 2236TIP3    H1 6672   3.652   0.361   2.671
 2236TIP3    H2 6673   3.564   0.482   2.692
 2237TIP3   OH2 6674   5.002   4.338   0.299
 2237TIP3    H1 6675   5.055   4.395   0.244
 2237TIP3    H2 6676   4.962   4.396   0.363
 2238TIP3   OH2 6677   2.623   0.449   3.482
 2238TIP3    H1 6678   2.537   0.491   3.493
 2238TIP3    H2 6679   2.665   0.498   3.412
 2239TIP3   OH2 6680   4.625   6.015   0.539
 2239TIP3    H1 6681   4.542   6.030   0.495
 2239TIP3    H2 6682   4.691   6.045   0.476
 2240TIP3   OH2 6683   5.959   1.486   4.209
 2240TIP3    H1 6684   5.911   1.539   4.273
 2240TIP3    H2 6685   5.892   1.430   4.169
 2241TIP3   OH2 6686   6.361   1.564   1.645
 2241TIP3    H1 6687   6.400   1.506   1.580
 2241TIP3    H2 6688   6.401   1.649   1.628
 2242TIP3   OH2 6689   4.670   1.886   3.636
 2242TIP3    H1 6690   4.702   1.798   3.657
 2242TIP3    H2 6691   4.699   1.940   3.710
 2243TIP3   OH2 6692   2.022   2.891   2.705
 2243TIP3    H1 6693   2.109   2.861   2.730
 2243TIP3    H2 6694   2.038   2.972   2.655
 2244TIP3   OH2 6695   2.878   6.138   2.384
 2244TIP3    H1 6696   2.912   6.056   2.348
 2244TIP3    H2 6697   2.821   6.111   2.456
 2245TIP3   OH2 6698   4.492   1.481   1.739
 2245TIP3    H1 6699   4.585   1.498   1.722
 2245TIP3    H2 6700   4.447   1.525   1.667
 2246TIP3   OH2 6701   2.157   0.664   0.348
 2246TIP3    H1 6702   2.244   0.704   0.342
 2246TIP3    H2 6703   2.097   0.738   0.356
 2247TIP3   OH2 6704   5.970   1.770   5.593
 2247TIP3    H1 6705   5.949   1.813   5.676
 2247TIP3    H2 6706   5.937   1.681   5.603
 2248TIP3   OH2 6707   1.712   6.031   2.378
 2248TIP3    H1 6708   1.732   5.938   2.369
 2248TIP3    H2 6709   1.655   6.050   2.303
 2249TIP3   OH2 6710   2.743   2.741   2.704
 2249TIP3    H1 6711   2.791   2.731   2.786
 2249TIP3    H2 6712   2.767   2.828   2.673
 2250TIP3   OH2 6713   3.550   6.479   2.730
 2250TIP3    H1 6714   3.477   6.530   2.765
 2250TIP3    H2 6715   3.541   6.485   2.635
 2251TIP3   OH2 6716   5.925   3.732   3.802
 2251TIP3    H1 6717   5.856   3.746   3.866
 2251TIP3    H2 6718   5.994   3.685   3.849
 2252TIP3   OH2 6719   6.019   5.612   4.736
 2252TIP3    H1 6720   6.067   5.533   4.759
 2252TIP3    H2 6721   6.086   5.670   4.699
 2253TIP3   OH2 6722   2.780   6.728   3.329
 2253TIP3    H1 6723   2.739   6.813   3.313
 2253TIP3    H2 6724   2.857   6.728   3.272
 2254TIP3   OH2 6725   2.672   1.652   5.038
 2254TIP3    H1 6726   2.665   1.746   5.056
 2254TIP3    H2 6727   2.595   1.614   5.080
 2255TIP3   OH2 6728   3.118   2.666   5.483
 2255TIP3    H1 6729   3.192   2.612   5.454
 2255TIP3    H2 6730   3.139   2.689   5.573
 2256TIP3   OH2 6731   2.262   5.706   4.019
 2256TIP3    H1 6732   2.345   5.752   4.031
 2256TIP3    H2 6733   2.199   5.776   3.999
 2257TIP3   OH2 6734   4.326   2.878   0.342
 2257TIP3    H1 6735   4.368   2.920   0.266
 2257TIP3    H2 6736   4.382   2.902   0.416
 2258TIP3   OH2 6737   3.678   6.496   4.159
 2258TIP3    H1 6738   3.760   6.538   4.186
 2258TIP3    H2 6739   3.704   6.436   4.089
 2259TIP3   OH2 6740   6.588   3.590   3.675
 2259TIP3    H1 6741   6.557   3.681   3.677
 2259TIP3    H2 6742   6.663   3.589   3.735
 2260TIP3   OH2 6743   2.671   4.170   2.081
 2260TIP3    H1 6744   2.621   4.242   2.118
 2260TIP3    H2 6745   2.743   4.156   2.143
 2261TIP3   OH2 6746   5.214   0.559   2.040
 2261TIP3    H1 6747   5.247   0.484   2.089
 2261TIP3    H2 6748   5.124   0.536   2.017
 2262TIP3   OH2 6749   3.095   3.874   3.636
 2262TIP3    H1 6750   3.061   3.963   3.630
 2262TIP3    H2 6751   3.134   3.857   3.550
 2263TIP3   OH2 6752   4.360   0.688   0.890
 2263TIP3    H1 6753   4.286   0.635   0.917
 2263TIP3    H2 6754   4.384   0.739   0.967
 2264TIP3   OH2 6755   1.881   5.885   3.432
 2264TIP3    H1 6756   1.906   5.825   3.502
 2264TIP3    H2 6757   1.793   5.856   3.406
 2265TIP3   OH2 6758   0.915   4.529   5.151
 2265TIP3    H1 6759   0.933   4.493   5.238
 2265TIP3    H2 6760   0.846   4.593   5.166
 2266TIP3   OH2 6761   2.927   5.380   0.407
 2266TIP3    H1 6762   2.843   5.409   0.372
 2266TIP3    H2 6763   2.919   5.392   0.502
 2267TIP3   OH2 6764   6.848   3.807   4.204
 2267TIP3    H1 6765   6.784   3.835   4.139
 2267TIP3    H2 6766   6.902   3.742   4.159
 2268TIP3   OH2 6767   1.628   6.212   2.156
 2268TIP3    H1 6768   1.658   6.224   2.066
 2268TIP3    H2 6769   1.574   6.133   2.152
 2269TIP3   OH2 6770   5.519   5.687   0.974
 2269TIP3    H1 6771   5.556   5.731   1.050
 2269TIP3    H2 6772   5.558   5.731   0.898
 2270TIP3   OH2 6773   0.809   4.050   5.068
 2270TIP3    H1 6774   0.840   4.048   4.978
 2270TIP3    H2 6775   0.764   3.966   5.080
 2271TIP3   OH2 6776   4.856   2.547   2.749
 2271TIP3    H1 6777   4.827   2.471   2.698
 2271TIP3    H2 6778   4.854   2.620   2.687
 2272TIP3   OH2 6779   4.211   2.636   0.279
 2272TIP3    H1 6780   4.263   2.560   0.256
 2272TIP3    H2 6781   4.271   2.710   0.274
 2273TIP3   OH2 6782   4.343   1.025   4.370
 2273TIP3    H1 6783   4.312   0.971   4.443
 2273TIP3    H2 6784   4.350   0.964   4.297
 2274TIP3   OH2 6785   6.616   4.530   5.832
 2274TIP3    H1 6786   6.668   4.509   5.910
 2274TIP3    H2 6787   6.633   4.459   5.771
 2275TIP3   OH2 6788   3.876   4.291   1.679
 2275TIP3    H1 6789   3.830   4.368   1.714
 2275TIP3    H2 6790   3.825   4.266   1.602
 2276TIP3   OH2 6791   7.200   3.577   2.535
 2276TIP3    H1 6792   7.129   3.633   2.503
 2276TIP3    H2 6793   7.185   3.570   2.629
 2277TIP3   OH2 6794   1.303   6.645   4.769
 2277TIP3    H1 6795   1.307   6.550   4.756
 2277TIP3    H2 6796   1.337   6.659   4.857
 2278TIP3   OH2 6797   4.020   2.941   2.838
 2278TIP3    H1 6798   3.949   2.997   2.871
 2278TIP3    H2 6799   4.079   3.001   2.793
 2279TIP3   OH2 6800   2.891   5.626   1.788
 2279TIP3    H1 6801   2.837   5.698   1.756
 2279TIP3    H2 6802   2.980   5.661   1.791
 2280TIP3   OH2 6803   3.404   0.990   4.156
 2280TIP3    H1 6804   3.480   0.970   4.100
 2280TIP3    H2 6805   3.330   0.949   4.112
 2281TIP3   OH2 6806   2.948   4.044   2.601
 2281TIP3    H1 6807   3.010   3.994   2.548
 2281TIP3    H2 6808   2.863   4.027   2.561
 2282TIP3   OH2 6809   5.492   1.039   2.105
 2282TIP3    H1 6810   5.571   1.039   2.051
 2282TIP3    H2 6811   5.435   0.975   2.063
 2283TIP3   OH2 6812   2.271   1.576   0.607
 2283TIP3    H1 6813   2.274   1.580   0.703
 2283TIP3    H2 6814   2.310   1.658   0.578
 2284TIP3   OH2 6815   4.826   6.101   5.051
 2284TIP3    H1 6816   4.767   6.145   5.112
 2284TIP3    H2 6817   4.861   6.027   5.100
 2285TIP3   OH2 6818   4.003   3.325   3.087
 2285TIP3    H1 6819   4.075   3.333   3.024
 2285TIP3    H2 6820   4.045   3.300   3.169
 2286TIP3   OH2 6821   1.392   2.833   2.370
 2286TIP3    H1 6822   1.479   2.806   2.400
 2286TIP3    H2 6823   1.332   2.772   2.414
 2287TIP3   OH2 6824   0.762   5.172   5.529
 2287TIP3    H1 6825   0.707   5.095   5.539
 2287TIP3    H2 6826   0.762   5.191   5.435
 2288TIP3   OH2 6827   4.285   0.013   0.319
 2288TIP3    H1 6828   4.355   0.003   0.255
 2288TIP3    H2 6829   4.321  -0.026   0.399
 2289TIP3   OH2 6830   4.913   6.629   4.280
 2289TIP3    H1 6831   4.819   6.644   4.288
 2289TIP3    H2 6832   4.935   6.571   4.353
 2290TIP3   OH2 6833   7.033   5.214   2.246
 2290TIP3    H1 6834   7.020   5.168   2.329
 2290TIP3    H2 6835   7.001   5.302   2.262
 2291TIP3   OH2 6836   2.310   0.664   5.330
 2291TIP3    H1 6837   2.361   0.728   5.279
 2291TIP3    H2 6838   2.365   0.644   5.405
 2292TIP3   OH2 6839   4.868   0.688   2.717
 2292TIP3    H1 6840   4.860   0.642   2.800
 2292TIP3    H2 6841   4.914   0.627   2.660
 2293TIP3   OH2 6842   4.321   5.191   4.113
 2293TIP3    H1 6843   4.276   5.198   4.029
 2293TIP3    H2 6844   4.313   5.099   4.137
 2294TIP3   OH2 6845   4.534   2.907   1.859
 2294TIP3    H1 6846   4.578   2.821   1.857
 2294TIP3    H2 6847   4.563   2.950   1.779
 2295TIP3   OH2 6848   0.133   0.034   2.980
 2295TIP3    H1 6849   0.190  -0.023   2.927
 2295TIP3    H2 6850   0.070   0.069   2.917
 2296TIP3   OH2 6851   2.388   2.089   1.611
 2296TIP3    H1 6852   2.357   2.175   1.585
 2296TIP3    H2 6853   2.361   2.031   1.539
 2297TIP3   OH2 6854   5.875   0.887   1.138
 2297TIP3    H1 6855   5.811   0.885   1.209
 2297TIP3    H2 6856   5.930   0.810   1.153
 2298TIP3   OH2 6857   0.923   6.141   1.475
 2298TIP3    H1 6858   0.989   6.071   1.477
 2298TIP3    H2 6859   0.860   6.111   1.410
 2299TIP3   OH2 6860   4.624   4.756   3.317
 2299TIP3    H1 6861   4.608   4.849   3.301
 2299TIP3    H2 6862   4.670   4.725   3.238
 2300TIP3   OH2 6863   1.716   6.116   2.986
 2300TIP3    H1 6864   1.692   6.200   3.025
 2300TIP3    H2 6865   1.807   6.128   2.958
 2301TIP3   OH2 6866   2.192   5.443   0.223
 2301TIP3    H1 6867   2.245   5.465   0.147
 2301TIP3    H2 6868   2.150   5.360   0.200
 2302TIP3   OH2 6869   3.809   5.601   4.792
 2302TIP3    H1 6870   3.904   5.603   4.803
 2302TIP3    H2 6871   3.790   5.514   4.758
 2303TIP3   OH2 6872   5.808   2.567   5.294
 2303TIP3    H1 6873   5.747   2.506   5.252
 2303TIP3    H2 6874   5.884   2.514   5.316
 2304TIP3   OH2 6875   3.393   4.956   2.371
 2304TIP3    H1 6876   3.323   5.014   2.401
 2304TIP3    H2 6877   3.348   4.874   2.347
 2305TIP3   OH2 6878   3.040   6.389   0.332
 2305TIP3    H1 6879   3.076   6.383   0.420
 2305TIP3    H2 6880   2.953   6.426   0.344
 2306TIP3   OH2 6881   1.341   5.294   2.005
 2306TIP3    H1 6882   1.390   5.278   1.925
 2306TIP3    H2 6883   1.348   5.213   2.055
 2307TIP3   OH2 6884   4.185   3.138   5.765
 2307TIP3    H1 6885   4.222   3.083   5.834
 2307TIP3    H2 6886   4.100   3.099   5.746
 2308TIP3   OH2 6887   5.736   6.624   1.286
 2308TIP3    H1 6888   5.765   6.689   1.222
 2308TIP3    H2 6889   5.641   6.632   1.286
 2309TIP3   OH2 6890   6.049   4.822   1.843
 2309TIP3    H1 6891   6.029   4.851   1.932
 2309TIP3    H2 6892   6.097   4.740   1.854
 2310TIP3   OH2 6893   5.514   5.067   0.367
 2310TIP3    H1 6894   5.543   5.127   0.435
 2310TIP3    H2 6895   5.593   5.020   0.341
 2311TIP3   OH2 6896   6.321   6.741   1.380
 2311TIP3    H1 6897   6.409   6.766   1.353
 2311TIP3    H2 6898   6.271   6.823   1.375
 2312TIP3   OH2 6899   2.228   2.325   5.237
 2312TIP3    H1 6900   2.147   2.284   5.206
 2312TIP3    H2 6901   2.252   2.386   5.167
 2313TIP3   OH2 6902   6.100   4.374   2.821
 2313TIP3    H1 6903   6.088   4.328   2.738
 2313TIP3    H2 6904   6.176   4.332   2.861
 2314TIP3   OH2 6905   0.497   4.659   2.242
 2314TIP3    H1 6906   0.510   4.698   2.156
 2314TIP3    H2 6907   0.429   4.712   2.283
 2315TIP3   OH2 6908   0.737   5.522   0.705
 2315TIP3    H1 6909   0.765   5.431   0.720
 2315TIP3    H2 6910   0.662   5.514   0.646
 2316TIP3   OH2 6911   3.857   4.955   2.166
 2316TIP3    H1 6912   3.769   4.989   2.176
 2316TIP3    H2 6913   3.893   4.954   2.255
 2317TIP3   OH2 6914   6.907   3.058   3.009
 2317TIP3    H1 6915   6.846   3.099   3.070
 2317TIP3    H2 6916   6.895   2.964   3.024
 2318TIP3   OH2 6917   4.127   0.017   1.603
 2318TIP3    H1 6918   4.175  -0.065   1.594
 2318TIP3    H2 6919   4.166   0.060   1.679
 2319TIP3   OH2 6920   5.964   1.458   1.672
 2319TIP3    H1 6921   5.905   1.384   1.661
 2319TIP3    H2 6922   6.013   1.437   1.752
 2320TIP3   OH2 6923   1.084   1.679   1.013
 2320TIP3    H1 6924   0.990   1.683   1.028
 2320TIP3    H2 6925   1.113   1.770   1.012
 2321TIP3   OH2 6926   4.901   6.425   3.738
 2321TIP3    H1 6927   4.856   6.459   3.815
 2321TIP3    H2 6928   4.888   6.491   3.670
 2322TIP3   OH2 6929   6.470   2.416   3.668
 2322TIP3    H1 6930   6.514   2.438   3.750
 2322TIP3    H2 6931   6.527   2.350   3.628
 2323TIP3   OH2 6932   1.684   5.192   3.925
 2323TIP3    H1 6933   1.625   5.140   3.980
 2323TIP3    H2 6934   1.665   5.162   3.836
 2324TIP3   OH2 6935   7.149   0.899   2.641
 2324TIP3    H1 6936   7.095   0.852   2.705
 2324TIP3    H2 6937   7.098   0.897   2.560
 2325TIP3   OH2 6938   3.889   5.904   1.922
 2325TIP3    H1 6939   3.964   5.867   1.875
 2325TIP3    H2 6940   3.893   5.864   2.009
 2326TIP3   OH2 6941   4.269   0.399   2.550
 2326TIP3    H1 6942   4.238   0.435   2.633
 2326TIP3    H2 6943   4.271   0.305   2.564
 2327TIP3   OH2 6944   5.673   3.226   1.970
 2327TIP3    H1 6945   5.623   3.191   1.896
 2327TIP3    H2 6946   5.614   3.216   2.045
 2328TIP3   OH2 6947   1.632   0.163   4.257
 2328TIP3    H1 6948   1.716   0.193   4.223
 2328TIP3    H2 6949   1.586   0.129   4.180
 2329TIP3   OH2 6950   1.110   1.514   1.957
 2329TIP3    H1 6951   1.068   1.431   1.980
 2329TIP3    H2 6952   1.039   1.579   1.960
 2330TIP3   OH2 6953   2.137   0.416   2.740
 2330TIP3    H1 6954   2.191   0.344   2.709
 2330TIP3    H2 6955   2.116   0.393   2.830
 2331TIP3   OH2 6956   2.985   0.929   4.514
 2331TIP3    H1 6957   3.004   0.980   4.593
 2331TIP3    H2 6958   2.904   0.968   4.480
 2332TIP3   OH2 6959   4.597   5.417   2.142
 2332TIP3    H1 6960   4.613   5.335   2.096
 2332TIP3    H2 6961   4.550   5.472   2.078
 2333TIP3   OH2 6962   2.343   2.100   2.905
 2333TIP3    H1 6963   2.307   2.053   2.831
 2333TIP3    H2 6964   2.422   2.051   2.929
 2334TIP3   OH2 6965   1.572   1.527   4.749
 2334TIP3    H1 6966   1.539   1.455   4.694
 2334TIP3    H2 6967   1.579   1.601   4.688
 2335TIP3   OH2 6968   3.212   6.080   1.930
 2335TIP3    H1 6969   3.280   6.015   1.913
 2335TIP3    H2 6970   3.236   6.119   2.013
 2336TIP3   OH2 6971   3.950   5.703   1.516
 2336TIP3    H1 6972   3.880   5.638   1.516
 2336TIP3    H2 6973   4.014   5.669   1.578
 2337TIP3   OH2 6974   6.417   5.210   5.017
 2337TIP3    H1 6975   6.337   5.190   4.969
 2337TIP3    H2 6976   6.389   5.267   5.088
 2338TIP3   OH2 6977   1.961   5.379   3.277
 2338TIP3    H1 6978   1.933   5.461   3.236
 2338TIP3    H2 6979   1.921   5.380   3.364
 2339TIP3   OH2 6980   1.274   1.225   2.138
 2339TIP3    H1 6981   1.345   1.277   2.101
 2339TIP3    H2 6982   1.313   1.139   2.154
 2340TIP3   OH2 6983   3.321   2.134   1.358
 2340TIP3    H1 6984   3.382   2.063   1.337
 2340TIP3    H2 6985   3.346   2.206   1.300
 2341TIP3   OH2 6986   6.732   1.985   1.341
 2341TIP3    H1 6987   6.708   1.943   1.258
 2341TIP3    H2 6988   6.820   1.952   1.359
 2342TIP3   OH2 6989   1.716   0.388   5.121
 2342TIP3    H1 6990   1.802   0.417   5.154
 2342TIP3    H2 6991   1.730   0.374   5.027
 2343TIP3   OH2 6992   4.683   2.107   2.100
 2343TIP3    H1 6993   4.734   2.066   2.170
 2343TIP3    H2 6994   4.666   2.196   2.132
 2344TIP3   OH2 6995   2.387   4.199   1.908
 2344TIP3    H1 6996   2.455   4.199   1.975
 2344TIP3    H2 6997   2.428   4.157   1.832
 2345TIP3   OH2 6998   1.495   0.417   2.194
 2345TIP3    H1 6999   1.499   0.323   2.207
 2345TIP3    H2 7000   1.417   0.431   2.141
 2346TIP3   OH2 7001   5.435   4.472   2.104
 2346TIP3    H1 7002   5.450   4.384   2.138
 2346TIP3    H2 7003   5.523   4.511   2.098
 2347TIP3   OH2 7004   4.405   5.034   1.861
 2347TIP3    H1 7005   4.351   5.081   1.924
 2347TIP3    H2 7006   4.348   5.020   1.785
 2348TIP3   OH2 7007   3.916   6.266   0.627
 2348TIP3    H1 7008   4.002   6.291   0.661
 2348TIP3    H2 7009   3.898   6.181   0.668
 2349TIP3   OH2 7010   5.967   3.149   3.482
 2349TIP3    H1 7011   5.881   3.126   3.516
 2349TIP3    H2 7012   5.971   3.107   3.396
 2350TIP3   OH2 7013   1.038   3.439   1.845
 2350TIP3    H1 7014   1.015   3.391   1.766
 2350TIP3    H2 7015   1.017   3.530   1.825
 2351TIP3   OH2 7016   5.344   1.199   1.139
 2351TIP3    H1 7017   5.294   1.118   1.130
 2351TIP3    H2 7018   5.368   1.222   1.049
 2352TIP3   OH2 7019   4.639   1.151   3.740
 2352TIP3    H1 7020   4.632   1.141   3.835
 2352TIP3    H2 7021   4.551   1.177   3.712
 2353TIP3   OH2 7022   6.555   4.534   4.536
 2353TIP3    H1 7023   6.526   4.443   4.531
 2353TIP3    H2 7024   6.474   4.585   4.535
 2354TIP3   OH2 7025   6.812   3.013   2.116
 2354TIP3    H1 7026   6.904   2.996   2.094
 2354TIP3    H2 7027   6.815   3.091   2.171
 2355TIP3   OH2 7028   6.823   4.163   3.306
 2355TIP3    H1 7029   6.803   4.101   3.376
 2355TIP3    H2 7030   6.917   4.153   3.292
 2356TIP3   OH2 7031   4.982   4.619   1.242
 2356TIP3    H1 7032   4.945   4.548   1.294
 2356TIP3    H2 7033   4.954   4.601   1.152
 2357TIP3   OH2 7034   3.703   5.534   1.514
 2357TIP3    H1 7035   3.680   5.444   1.534
 2357TIP3    H2 7036   3.622   5.573   1.480
 2358TIP3   OH2 7037   0.450   0.507   5.268
 2358TIP3    H1 7038   0.376   0.457   5.304
 2358TIP3    H2 7039   0.409   0.578   5.220
 2359TIP3   OH2 7040   3.284   0.193   3.843
 2359TIP3    H1 7041   3.297   0.279   3.803
 2359TIP3    H2 7042   3.196   0.166   3.817
 2360TIP3   OH2 7043   4.043   6.209   3.435
 2360TIP3    H1 7044   3.962   6.221   3.485
 2360TIP3    H2 7045   4.068   6.297   3.407
 2361TIP3   OH2 7046   6.876   4.526   3.073
 2361TIP3    H1 7047   6.954   4.554   3.121
 2361TIP3    H2 7048   6.802   4.562   3.122
 2362TIP3   OH2 7049   1.859   4.862   0.152
 2362TIP3    H1 7050   1.851   4.778   0.196
 2362TIP3    H2 7051   1.879   4.925   0.221
 2363TIP3   OH2 7052   2.100   4.047   2.989
 2363TIP3    H1 7053   2.187   4.087   2.981
 2363TIP3    H2 7054   2.114   3.955   2.967
 2364TIP3   OH2 7055   3.778   1.347   1.144
 2364TIP3    H1 7056   3.682   1.354   1.142
 2364TIP3    H2 7057   3.798   1.271   1.089
 2365TIP3   OH2 7058   2.960   0.258   5.567
 2365TIP3    H1 7059   2.942   0.308   5.647
 2365TIP3    H2 7060   3.027   0.195   5.593
 2366TIP3   OH2 7061   4.205   1.056   1.696
 2366TIP3    H1 7062   4.185   0.969   1.661
 2366TIP3    H2 7063   4.204   1.045   1.791
 2367TIP3   OH2 7064   1.728   5.362   5.101
 2367TIP3    H1 7065   1.682   5.279   5.092
 2367TIP3    H2 7066   1.678   5.410   5.168
 2368TIP3   OH2 7067   5.521   0.534   1.814
 2368TIP3    H1 7068   5.603   0.492   1.840
 2368TIP3    H2 7069   5.472   0.545   1.896
 2369TIP3   OH2 7070   0.527   4.551   0.690
 2369TIP3    H1 7071   0.538   4.596   0.774
 2369TIP3    H2 7072   0.491   4.618   0.632
 2370TIP3   OH2 7073   2.002   0.361   0.848
 2370TIP3    H1 7074   2.057   0.437   0.865
 2370TIP3    H2 7075   1.988   0.363   0.753
 2371TIP3   OH2 7076   3.017   2.190   5.493
 2371TIP3    H1 7077   3.095   2.136   5.502
 2371TIP3    H2 7078   2.977   2.161   5.411
 2372TIP3   OH2 7079   4.316   1.913   5.636
 2372TIP3    H1 7080   4.276   1.968   5.569
 2372TIP3    H2 7081   4.307   1.963   5.717
 2373TIP3   OH2 7082   3.719   2.839   2.377
 2373TIP3    H1 7083   3.790   2.872   2.321
 2373TIP3    H2 7084   3.694   2.914   2.430
 2374TIP3   OH2 7085   1.990   2.084   3.256
 2374TIP3    H1 7086   1.998   2.141   3.180
 2374TIP3    H2 7087   1.899   2.095   3.285
 2375TIP3   OH2 7088   2.475   3.714   3.435
 2375TIP3    H1 7089   2.422   3.794   3.447
 2375TIP3    H2 7090   2.560   3.736   3.471
 2376TIP3   OH2 7091   0.834   2.419   1.583
 2376TIP3    H1 7092   0.904   2.397   1.522
 2376TIP3    H2 7093   0.878   2.434   1.667
 2377TIP3   OH2 7094   3.458   0.770   5.272
 2377TIP3    H1 7095   3.452   0.714   5.194
 2377TIP3    H2 7096   3.511   0.720   5.334
 2378TIP3   OH2 7097   3.628   2.516   1.734
 2378TIP3    H1 7098   3.642   2.611   1.735
 2378TIP3    H2 7099   3.669   2.486   1.653
 2379TIP3   OH2 7100   4.281   0.835   4.569
 2379TIP3    H1 7101   4.287   0.740   4.570
 2379TIP3    H2 7102   4.370   0.864   4.593
 2380TIP3   OH2 7103   2.236   0.823   1.873
 2380TIP3    H1 7104   2.173   0.850   1.939
 2380TIP3    H2 7105   2.227   0.888   1.803
 2381TIP3   OH2 7106   0.462   5.284   5.185
 2381TIP3    H1 7107   0.452   5.377   5.202
 2381TIP3    H2 7108   0.438   5.241   5.268
 2382TIP3   OH2 7109   5.844   2.666   2.759
 2382TIP3    H1 7110   5.864   2.669   2.665
 2382TIP3    H2 7111   5.791   2.587   2.770
 2383TIP3   OH2 7112   5.226   1.956   3.588
 2383TIP3    H1 7113   5.242   1.918   3.674
 2383TIP3    H2 7114   5.132   1.945   3.574
 2384TIP3   OH2 7115   3.336   0.240   1.860
 2384TIP3    H1 7116   3.374   0.239   1.772
 2384TIP3    H2 7117   3.344   0.331   1.888
 2385TIP3   OH2 7118   5.551   0.137   1.751
 2385TIP3    H1 7119   5.465   0.159   1.786
 2385TIP3    H2 7120   5.607   0.210   1.777
 2386TIP3   OH2 7121   4.813   5.082   5.235
 2386TIP3    H1 7122   4.848   5.145   5.298
 2386TIP3    H2 7123   4.722   5.068   5.264
 2387TIP3   OH2 7124   6.848   1.233   4.851
 2387TIP3    H1 7125   6.807   1.254   4.935
 2387TIP3    H2 7126   6.877   1.318   4.817
 2388TIP3   OH2 7127   2.103   6.024   0.680
 2388TIP3    H1 7128   2.179   6.041   0.624
 2388TIP3    H2 7129   2.084   5.931   0.666
 2389TIP3   OH2 7130   2.205   5.500   2.282
 2389TIP3    H1 7131   2.160   5.507   2.366
 2389TIP3    H2 7132   2.239   5.588   2.265
 2390TIP3   OH2 7133   0.107   6.399   3.398
 2390TIP3    H1 7134   0.109   6.484   3.353
 2390TIP3    H2 7135   0.028   6.403   3.452
 2391TIP3   OH2 7136   0.156   2.386   0.111
 2391TIP3    H1 7137   0.171   2.474   0.075
 2391TIP3    H2 7138   0.244   2.353   0.132
 2392TIP3   OH2 7139   5.168   1.234   5.509
 2392TIP3    H1 7140   5.155   1.239   5.414
 2392TIP3    H2 7141   5.184   1.325   5.536
 2393TIP3   OH2 7142   5.853   5.786   1.116
 2393TIP3    H1 7143   5.844   5.784   1.021
 2393TIP3    H2 7144   5.774   5.831   1.146
 2394TIP3   OH2 7145   2.128   4.503   5.519
 2394TIP3    H1 7146   2.102   4.537   5.434
 2394TIP3    H2 7147   2.049   4.462   5.554
 2395TIP3   OH2 7148   1.581   2.560   0.444
 2395TIP3    H1 7149   1.647   2.539   0.511
 2395TIP3    H2 7150   1.571   2.478   0.395
 2396TIP3   OH2 7151   0.150   3.880   3.378
 2396TIP3    H1 7152   0.170   3.851   3.289
 2396TIP3    H2 7153   0.226   3.853   3.430
 2397TIP3   OH2 7154   5.588   4.483   1.461
 2397TIP3    H1 7155   5.661   4.508   1.518
 2397TIP3    H2 7156   5.518   4.457   1.521
 2398TIP3   OH2 7157   3.605   2.794   2.989
 2398TIP3    H1 7158   3.675   2.768   2.929
 2398TIP3    H2 7159   3.530   2.812   2.932
 2399TIP3   OH2 7160   1.153   4.865   2.975
 2399TIP3    H1 7161   1.239   4.852   2.936
 2399TIP3    H2 7162   1.164   4.939   3.035
 2400TIP3   OH2 7163   2.383   5.631   5.839
 2400TIP3    H1 7164   2.433   5.674   5.908
 2400TIP3    H2 7165   2.441   5.561   5.808
 2401TIP3   OH2 7166   5.731   5.451   3.271
 2401TIP3    H1 7167   5.648   5.404   3.272
 2401TIP3    H2 7168   5.780   5.416   3.346
 2402TIP3   OH2 7169   6.739   4.825   0.667
 2402TIP3    H1 7170   6.808   4.776   0.712
 2402TIP3    H2 7171   6.703   4.882   0.735
 2403TIP3   OH2 7172   1.707   0.311   4.847
 2403TIP3    H1 7173   1.620   0.275   4.867
 2403TIP3    H2 7174   1.698   0.348   4.759
 2404TIP3   OH2 7175   3.212   5.078   3.889
 2404TIP3    H1 7176   3.276   5.123   3.834
 2404TIP3    H2 7177   3.161   5.149   3.930
 2405TIP3   OH2 7178   4.923   4.405   5.082
 2405TIP3    H1 7179   4.904   4.444   5.168
 2405TIP3    H2 7180   4.902   4.474   5.019
 2406TIP3   OH2 7181   6.874   6.735   0.772
 2406TIP3    H1 7182   6.939   6.804   0.786
 2406TIP3    H2 7183   6.888   6.675   0.845
 2407TIP3   OH2 7184   1.436   4.132   5.497
 2407TIP3    H1 7185   1.415   4.039   5.500
 2407TIP3    H2 7186   1.531   4.135   5.491
 2408TIP3   OH2 7187   6.304   5.905   2.998
 2408TIP3    H1 7188   6.245   5.848   3.048
 2408TIP3    H2 7189   6.254   5.985   2.984
 2409TIP3   OH2 7190   0.263   6.140   4.783
 2409TIP3    H1 7191   0.230   6.212   4.729
 2409TIP3    H2 7192   0.258   6.173   4.873
 2410TIP3   OH2 7193   4.152   5.470   1.186
 2410TIP3    H1 7194   4.181   5.391   1.140
 2410TIP3    H2 7195   4.143   5.535   1.117
 2411TIP3   OH2 7196   3.714   5.240   0.505
 2411TIP3    H1 7197   3.772   5.169   0.533
 2411TIP3    H2 7198   3.769   5.297   0.452
 2412TIP3   OH2 7199   4.586   5.270   3.894
 2412TIP3    H1 7200   4.505   5.300   3.854
 2412TIP3    H2 7201   4.618   5.201   3.835
 2413TIP3   OH2 7202   5.362   2.791   2.344
 2413TIP3    H1 7203   5.353   2.833   2.258
 2413TIP3    H2 7204   5.294   2.724   2.345
 2414TIP3   OH2 7205   4.055   1.674   4.249
 2414TIP3    H1 7206   4.071   1.768   4.248
 2414TIP3    H2 7207   4.065   1.647   4.158
 2415TIP3   OH2 7208   7.053   3.426   2.348
 2415TIP3    H1 7209   7.109   3.452   2.422
 2415TIP3    H2 7210   7.058   3.331   2.345
 2416TIP3   OH2 7211   0.744   4.587   2.376
 2416TIP3    H1 7212   0.677   4.606   2.310
 2416TIP3    H2 7213   0.699   4.599   2.459
 2417TIP3   OH2 7214   3.909   4.574   1.196
 2417TIP3    H1 7215   4.000   4.548   1.212
 2417TIP3    H2 7216   3.891   4.544   1.107
 2418TIP3   OH2 7217   5.263   6.508   3.703
 2418TIP3    H1 7218   5.217   6.580   3.746
 2418TIP3    H2 7219   5.308   6.463   3.775
 2419TIP3   OH2 7220   2.964   6.436   5.594
 2419TIP3    H1 7221   2.920   6.504   5.644
 2419TIP3    H2 7222   3.019   6.484   5.532
 2420TIP3   OH2 7223   4.413   1.570   5.783
 2420TIP3    H1 7224   4.477   1.539   5.719
 2420TIP3    H2 7225   4.335   1.517   5.767
 2421TIP3   OH2 7226   3.211   4.335   4.257
 2421TIP3    H1 7227   3.253   4.319   4.342
 2421TIP3    H2 7228   3.255   4.413   4.223
 2422TIP3   OH2 7229   2.339   0.701   3.230
 2422TIP3    H1 7230   2.309   0.758   3.301
 2422TIP3    H2 7231   2.260   0.684   3.178
 2423TIP3   OH2 7232   6.750   1.819   0.233
 2423TIP3    H1 7233   6.796   1.888   0.185
 2423TIP3    H2 7234   6.818   1.753   0.250
 2424TIP3   OH2 7235   6.536   0.986   2.659
 2424TIP3    H1 7236   6.447   0.998   2.691
 2424TIP3    H2 7237   6.557   0.895   2.680
 2425TIP3   OH2 7238   5.857   3.812   1.260
 2425TIP3    H1 7239   5.811   3.731   1.282
 2425TIP3    H2 7240   5.890   3.798   1.172
 2426TIP3   OH2 7241   2.577   0.206   2.175
 2426TIP3    H1 7242   2.525   0.224   2.254
 2426TIP3    H2 7243   2.640   0.278   2.172
 2427TIP3   OH2 7244   0.110   3.548   0.342
 2427TIP3    H1 7245   0.148   3.478   0.289
 2427TIP3    H2 7246   0.144   3.532   0.430
 2428TIP3   OH2 7247   3.210   1.990   0.156
 2428TIP3    H1 7248   3.260   2.053   0.105
 2428TIP3    H2 7249   3.180   1.925   0.093
 2429TIP3   OH2 7250   3.302   1.241   4.202
 2429TIP3    H1 7251   3.298   1.233   4.297
 2429TIP3    H2 7252   3.356   1.167   4.173
 2430TIP3   OH2 7253   3.508   5.881   4.515
 2430TIP3    H1 7254   3.525   5.973   4.495
 2430TIP3    H2 7255   3.555   5.866   4.597
 2431TIP3   OH2 7256   5.655   6.686   3.228
 2431TIP3    H1 7257   5.648   6.772   3.187
 2431TIP3    H2 7258   5.615   6.697   3.314
 2432TIP3   OH2 7259   2.241   3.336   4.151
 2432TIP3    H1 7260   2.265   3.423   4.120
 2432TIP3    H2 7261   2.251   3.340   4.246
 2433TIP3   OH2 7262   4.534   4.532   4.322
 2433TIP3    H1 7263   4.608   4.572   4.367
 2433TIP3    H2 7264   4.502   4.465   4.382
 2434TIP3   OH2 7265   0.335   6.321   2.772
 2434TIP3    H1 7266   0.297   6.312   2.860
 2434TIP3    H2 7267   0.297   6.250   2.721
 2435TIP3   OH2 7268   6.758   4.786   5.515
 2435TIP3    H1 7269   6.756   4.835   5.433
 2435TIP3    H2 7270   6.849   4.795   5.545
 2436TIP3   OH2 7271   1.419   3.200   4.664
 2436TIP3    H1 7272   1.512   3.184   4.645
 2436TIP3    H2 7273   1.393   3.127   4.720
 2437TIP3   OH2 7274   1.516   5.633   4.905
 2437TIP3    H1 7275   1.431   5.613   4.866
 2437TIP3    H2 7276   1.528   5.726   4.889
 2438TIP3   OH2 7277   2.107   5.311   1.418
 2438TIP3    H1 7278   2.194   5.311   1.457
 2438TIP3    H2 7279   2.105   5.389   1.363
 2439TIP3   OH2 7280   1.649   3.842   5.370
 2439TIP3    H1 7281   1.724   3.841   5.310
 2439TIP3    H2 7282   1.655   3.758   5.416
 2440TIP3   OH2 7283   0.506   6.793   0.183
 2440TIP3    H1 7284   0.594   6.769   0.152
 2440TIP3    H2 7285   0.465   6.710   0.206
 2441TIP3   OH2 7286   6.868   0.341   0.395
 2441TIP3    H1 7287   6.802   0.401   0.430
 2441TIP3    H2 7288   6.873   0.362   0.302
 2442TIP3   OH2 7289   2.774   0.235   0.166
 2442TIP3    H1 7290   2.815   0.150   0.155
 2442TIP3    H2 7291   2.682   0.215   0.185
 2443TIP3   OH2 7292   0.557   0.160   3.721
 2443TIP3    H1 7293   0.521   0.077   3.752
 2443TIP3    H2 7294   0.650   0.143   3.711
 2444TIP3   OH2 7295   3.773   2.678   0.675
 2444TIP3    H1 7296   3.766   2.589   0.711
 2444TIP3    H2 7297   3.824   2.726   0.740
 2445TIP3   OH2 7298   5.974   4.792   4.428
 2445TIP3    H1 7299   5.999   4.882   4.448
 2445TIP3    H2 7300   6.022   4.771   4.348
 2446TIP3   OH2 7301   0.663   6.097   4.957
 2446TIP3    H1 7302   0.568   6.105   4.970
 2446TIP3    H2 7303   0.688   6.021   5.011
 2447TIP3   OH2 7304   4.944   3.856   1.569
 2447TIP3    H1 7305   4.964   3.924   1.504
 2447TIP3    H2 7306   4.929   3.904   1.650
 2448TIP3   OH2 7307   2.095   6.588   4.354
 2448TIP3    H1 7308   2.015   6.547   4.388
 2448TIP3    H2 7309   2.147   6.516   4.319
 2449TIP3   OH2 7310   7.187   3.846   3.849
 2449TIP3    H1 7311   7.200   3.753   3.833
 2449TIP3    H2 7312   7.092   3.856   3.860
 2450TIP3   OH2 7313   0.679   2.000   0.096
 2450TIP3    H1 7314   0.606   2.048   0.136
 2450TIP3    H2 7315   0.744   2.067   0.075
 2451TIP3   OH2 7316   3.684   5.537   3.501
 2451TIP3    H1 7317   3.726   5.510   3.420
 2451TIP3    H2 7318   3.681   5.633   3.496
 2452TIP3   OH2 7319   5.814   5.216   2.248
 2452TIP3    H1 7320   5.790   5.138   2.198
 2452TIP3    H2 7321   5.792   5.194   2.339
 2453TIP3   OH2 7322   0.802   0.994   0.626
 2453TIP3    H1 7323   0.715   1.033   0.621
 2453TIP3    H2 7324   0.806   0.933   0.552
 2454TIP3   OH2 7325   5.530   4.018   5.632
 2454TIP3    H1 7326   5.511   4.059   5.548
 2454TIP3    H2 7327   5.519   4.089   5.696
 2455TIP3   OH2 7328   3.250   3.666   5.010
 2455TIP3    H1 7329   3.282   3.655   5.100
 2455TIP3    H2 7330   3.259   3.760   4.993
 2456TIP3   OH2 7331   4.793   6.130   2.944
 2456TIP3    H1 7332   4.710   6.178   2.946
 2456TIP3    H2 7333   4.790   6.075   3.022
 2457TIP3   OH2 7334   0.955   4.303   4.794
 2457TIP3    H1 7335   0.998   4.266   4.871
 2457TIP3    H2 7336   0.905   4.230   4.756
 2458TIP3   OH2 7337   1.590   5.215   0.165
 2458TIP3    H1 7338   1.681   5.232   0.189
 2458TIP3    H2 7339   1.551   5.302   0.153
 2459TIP3   OH2 7340   1.166   3.146   1.663
 2459TIP3    H1 7341   1.199   3.233   1.683
 2459TIP3    H2 7342   1.076   3.146   1.695
 2460TIP3   OH2 7343   5.272   0.122   0.635
 2460TIP3    H1 7344   5.333   0.195   0.641
 2460TIP3    H2 7345   5.327   0.046   0.613
 2461TIP3   OH2 7346   5.703   3.541   4.111
 2461TIP3    H1 7347   5.635   3.603   4.085
 2461TIP3    H2 7348   5.776   3.596   4.141
 2462TIP3   OH2 7349   0.330   0.036   0.313
 2462TIP3    H1 7350   0.384   0.080   0.379
 2462TIP3    H2 7351   0.373  -0.048   0.299
 2463TIP3   OH2 7352   0.122   6.674   4.347
 2463TIP3    H1 7353   0.051   6.736   4.329
 2463TIP3    H2 7354   0.169   6.712   4.421
 2464TIP3   OH2 7355   4.810   3.735   1.180
 2464TIP3    H1 7356   4.839   3.745   1.090
 2464TIP3    H2 7357   4.763   3.651   1.181
 2465TIP3   OH2 7358   0.606   2.564   3.704
 2465TIP3    H1 7359   0.611   2.651   3.744
 2465TIP3    H2 7360   0.686   2.557   3.653
 2466TIP3   OH2 7361   4.796   0.774   5.293
 2466TIP3    H1 7362   4.817   0.753   5.202
 2466TIP3    H2 7363   4.855   0.845   5.316
 2467TIP3   OH2 7364   6.630   5.201   0.793
 2467TIP3    H1 7365   6.714   5.246   0.799
 2467TIP3    H2 7366   6.565   5.270   0.785
 2468TIP3   OH2 7367   4.627   0.475   0.770
 2468TIP3    H1 7368   4.540   0.510   0.751
 2468TIP3    H2 7369   4.686   0.530   0.719
 2469TIP3   OH2 7370   1.216   6.592   0.404
 2469TIP3    H1 7371   1.274   6.574   0.477
 2469TIP3    H2 7372   1.274   6.618   0.332
 2470TIP3   OH2 7373   0.560   5.363   2.110
 2470TIP3    H1 7374   0.503   5.433   2.142
 2470TIP3    H2 7375   0.563   5.299   2.182
 2471TIP3   OH2 7376   7.060   4.093   3.705
 2471TIP3    H1 7377   7.037   4.018   3.759
 2471TIP3    H2 7378   7.085   4.056   3.621
 2472TIP3   OH2 7379   2.750   3.014   1.453
 2472TIP3    H1 7380   2.734   3.059   1.536
 2472TIP3    H2 7381   2.710   3.070   1.386
 2473TIP3   OH2 7382   1.877   2.426   0.528
 2473TIP3    H1 7383   1.900   2.447   0.438
 2473TIP3    H2 7384   1.949   2.371   0.559
 2474TIP3   OH2 7385   5.646   3.345   3.388
 2474TIP3    H1 7386   5.692   3.284   3.446
 2474TIP3    H2 7387   5.695   3.427   3.396
 2475TIP3   OH2 7388   4.625   2.651   2.167
 2475TIP3    H1 7389   4.559   2.711   2.132
 2475TIP3    H2 7390   4.628   2.671   2.261
 2476TIP3   OH2 7391   6.603   3.891   3.785
 2476TIP3    H1 7392   6.653   3.971   3.803
 2476TIP3    H2 7393   6.534   3.919   3.724
 2477TIP3   OH2 7394   4.058   4.651   5.578
 2477TIP3    H1 7395   4.024   4.667   5.490
 2477TIP3    H2 7396   4.021   4.721   5.631
 2478TIP3   OH2 7397   6.310   3.589   4.944
 2478TIP3    H1 7398   6.271   3.612   5.028
 2478TIP3    H2 7399   6.237   3.553   4.893
 2479TIP3   OH2 7400   2.101   2.538   1.436
 2479TIP3    H1 7401   2.060   2.534   1.349
 2479TIP3    H2 7402   2.065   2.616   1.476
 2480TIP3   OH2 7403   4.833   6.239   1.841
 2480TIP3    H1 7404   4.744   6.236   1.806
 2480TIP3    H2 7405   4.881   6.294   1.779
 2481TIP3   OH2 7406   5.735   4.091   3.660
 2481TIP3    H1 7407   5.725   4.002   3.626
 2481TIP3    H2 7408   5.709   4.148   3.588
 2482TIP3   OH2 7409   7.222   1.340   3.205
 2482TIP3    H1 7410   7.243   1.432   3.185
 2482TIP3    H2 7411   7.128   1.341   3.224
 2483TIP3   OH2 7412   3.675   5.821   5.585
 2483TIP3    H1 7413   3.723   5.762   5.527
 2483TIP3    H2 7414   3.691   5.787   5.673
 2484TIP3   OH2 7415   3.134   1.252   1.755
 2484TIP3    H1 7416   3.134   1.260   1.850
 2484TIP3    H2 7417   3.070   1.183   1.737
 2485TIP3   OH2 7418   3.901   5.830   2.184
 2485TIP3    H1 7419   3.909   5.904   2.245
 2485TIP3    H2 7420   3.942   5.757   2.230
 2486TIP3   OH2 7421   6.141   1.491   0.954
 2486TIP3    H1 7422   6.159   1.397   0.944
 2486TIP3    H2 7423   6.045   1.497   0.950
 2487TIP3   OH2 7424   1.017   3.064   4.054
 2487TIP3    H1 7425   1.008   2.974   4.085
 2487TIP3    H2 7426   1.019   3.056   3.959
 2488TIP3   OH2 7427   0.164   0.870   3.872
 2488TIP3    H1 7428   0.139   0.933   3.939
 2488TIP3    H2 7429   0.219   0.921   3.812
 2489TIP3   OH2 7430   0.101   5.721   5.090
 2489TIP3    H1 7431   0.038   5.666   5.136
 2489TIP3    H2 7432   0.049   5.791   5.051
 2490TIP3   OH2 7433   1.012   4.688   4.162
 2490TIP3    H1 7434   1.068   4.663   4.088
 2490TIP3    H2 7435   1.072   4.693   4.237
 2491TIP3   OH2 7436   3.637   5.150   0.153
 2491TIP3    H1 7437   3.683   5.229   0.124
 2491TIP3    H2 7438   3.705   5.095   0.193
 2492TIP3   OH2 7439   5.333   4.062   3.980
 2492TIP3    H1 7440   5.257   4.084   3.926
 2492TIP3    H2 7441   5.339   4.134   4.043
 2493TIP3   OH2 7442   7.077   4.735   0.379
 2493TIP3    H1 7443   6.982   4.728   0.371
 2493TIP3    H2 7444   7.108   4.645   0.391
 2494TIP3   OH2 7445   0.997   4.754   0.590
 2494TIP3    H1 7446   1.070   4.726   0.534
 2494TIP3    H2 7447   1.039   4.807   0.658
 2495TIP3   OH2 7448   2.405   1.225   1.749
 2495TIP3    H1 7449   2.327   1.266   1.712
 2495TIP3    H2 7450   2.470   1.295   1.752
 2496TIP3   OH2 7451   5.758   4.266   3.382
 2496TIP3    H1 7452   5.797   4.340   3.429
 2496TIP3    H2 7453   5.721   4.305   3.303
 2497TIP3   OH2 7454   6.630   0.542   2.912
 2497TIP3    H1 7455   6.568   0.530   2.984
 2497TIP3    H2 7456   6.601   0.479   2.845
 2498TIP3   OH2 7457   1.545   6.451   5.071
 2498TIP3    H1 7458   1.482   6.379   5.068
 2498TIP3    H2 7459   1.626   6.411   5.103
 2499TIP3   OH2 7460   6.932   1.579   1.957
 2499TIP3    H1 7461   6.944   1.537   2.042
 2499TIP3    H2 7462   6.850   1.542   1.923
 2500TIP3   OH2 7463   5.809   6.662   0.500
 2500TIP3    H1 7464   5.763   6.690   0.420
 2500TIP3    H2 7465   5.740   6.658   0.566
 2501TIP3   OH2 7466   3.797   2.996   5.074
 2501TIP3    H1 7467   3.738   2.997   4.998
 2501TIP3    H2 7468   3.880   3.028   5.039
 2502TIP3   OH2 7469   6.360   3.656   2.481
 2502TIP3    H1 7470   6.341   3.684   2.571
 2502TIP3    H2 7471   6.280   3.677   2.432
 2503TIP3   OH2 7472   3.316   6.734   4.557
 2503TIP3    H1 7473   3.395   6.787   4.564
 2503TIP3    H2 7474   3.256   6.787   4.504
 2504TIP3   OH2 7475   1.884   2.811   5.262
 2504TIP3    H1 7476   1.930   2.757   5.197
 2504TIP3    H2 7477   1.926   2.896   5.257
 2505TIP3   OH2 7478   0.247   4.624   2.537
 2505TIP3    H1 7479   0.304   4.568   2.590
 2505TIP3    H2 7480   0.225   4.697   2.595
 2506TIP3   OH2 7481   0.105   5.475   1.607
 2506TIP3    H1 7482   0.127   5.566   1.626
 2506TIP3    H2 7483   0.032   5.456   1.665
 2507TIP3   OH2 7484   5.967   3.216   1.936
 2507TIP3    H1 7485   5.898   3.250   1.994
 2507TIP3    H2 7486   5.963   3.121   1.949
 2508TIP3   OH2 7487   4.478   0.705   0.379
 2508TIP3    H1 7488   4.428   0.676   0.303
 2508TIP3    H2 7489   4.570   0.701   0.351
 2509TIP3   OH2 7490   7.001   1.688   4.461
 2509TIP3    H1 7491   7.073   1.640   4.420
 2509TIP3    H2 7492   7.032   1.710   4.548
 2510TIP3   OH2 7493   5.927   0.568   4.956
 2510TIP3    H1 7494   5.917   0.606   5.044
 2510TIP3    H2 7495   5.850   0.511   4.946
 2511TIP3   OH2 7496   2.345   5.877   0.807
 2511TIP3    H1 7497   2.289   5.954   0.798
 2511TIP3    H2 7498   2.405   5.882   0.734
 2512TIP3   OH2 7499   1.588   1.713   4.515
 2512TIP3    H1 7500   1.639   1.675   4.443
 2512TIP3    H2 7501   1.525   1.770   4.471
 2513TIP3   OH2 7502   1.223   4.730   0.453
 2513TIP3    H1 7503   1.239   4.756   0.362
 2513TIP3    H2 7504   1.245   4.637   0.456
 2514TIP3   OH2 7505   4.109   2.555   5.221
 2514TIP3    H1 7506   4.041   2.585   5.281
 2514TIP3    H2 7507   4.078   2.581   5.134
 2515TIP3   OH2 7508   6.550   6.344   1.294
 2515TIP3    H1 7509   6.458   6.347   1.318
 2515TIP3    H2 7510   6.569   6.251   1.283
 2516TIP3   OH2 7511   6.903   6.644   4.959
 2516TIP3    H1 7512   6.877   6.725   4.915
 2516TIP3    H2 7513   6.952   6.674   5.036
 2517TIP3   OH2 7514   3.371   3.459   0.901
 2517TIP3    H1 7515   3.461   3.428   0.893
 2517TIP3    H2 7516   3.363   3.525   0.833
 2518TIP3   OH2 7517   3.400   0.886   0.769
 2518TIP3    H1 7518   3.438   0.945   0.835
 2518TIP3    H2 7519   3.377   0.943   0.696
 2519TIP3   OH2 7520   5.101   0.169   4.642
 2519TIP3    H1 7521   5.130   0.128   4.723
 2519TIP3    H2 7522   5.129   0.108   4.573
 2520TIP3   OH2 7523   2.392   5.384   4.960
 2520TIP3    H1 7524   2.431   5.356   4.877
 2520TIP3    H2 7525   2.464   5.384   5.022
 2521TIP3   OH2 7526   2.795   5.867   2.265
 2521TIP3    H1 7527   2.731   5.809   2.305
 2521TIP3    H2 7528   2.781   5.859   2.171
 2522TIP3   OH2 7529   1.261   0.483   0.763
 2522TIP3    H1 7530   1.183   0.447   0.722
 2522TIP3    H2 7531   1.236   0.570   0.792
 2523TIP3   OH2 7532   6.810   0.965   4.281
 2523TIP3    H1 7533   6.718   0.938   4.284
 2523TIP3    H2 7534   6.806   1.060   4.275
 2524TIP3   OH2 7535   4.984   4.934   3.165
 2524TIP3    H1 7536   4.892   4.939   3.192
 2524TIP3    H2 7537   4.990   4.850   3.118
 2525TIP3   OH2 7538   2.926   4.818   0.601
 2525TIP3    H1 7539   2.840   4.825   0.642
 2525TIP3    H2 7540   2.920   4.871   0.521
 2526TIP3   OH2 7541   1.623   2.798   2.560
 2526TIP3    H1 7542   1.602   2.821   2.651
 2526TIP3    H2 7543   1.610   2.704   2.555
 2527TIP3   OH2 7544   1.561   2.135   5.350
 2527TIP3    H1 7545   1.567   2.092   5.265
 2527TIP3    H2 7546   1.650   2.131   5.385
 2528TIP3   OH2 7547   3.691   1.784   4.634
 2528TIP3    H1 7548   3.729   1.776   4.721
 2528TIP3    H2 7549   3.764   1.767   4.574
 2529TIP3   OH2 7550   5.502   0.077   2.575
 2529TIP3    H1 7551   5.493   0.004   2.514
 2529TIP3    H2 7552   5.593   0.072   2.605
 2530TIP3   OH2 7553   0.879   2.244   4.537
 2530TIP3    H1 7554   0.814   2.258   4.607
 2530TIP3    H2 7555   0.830   2.200   4.468
 2531TIP3   OH2 7556   4.140   0.781   1.724
 2531TIP3    H1 7557   4.127   0.690   1.750
 2531TIP3    H2 7558   4.054   0.811   1.697
 2532TIP3   OH2 7559   2.952   5.556   4.698
 2532TIP3    H1 7560   2.921   5.625   4.640
 2532TIP3    H2 7561   3.035   5.588   4.731
 2533TIP3   OH2 7562   3.045   3.719   0.308
 2533TIP3    H1 7563   3.124   3.719   0.363
 2533TIP3    H2 7564   3.077   3.737   0.220
 2534TIP3   OH2 7565   0.500   0.335   3.910
 2534TIP3    H1 7566   0.535   0.292   3.832
 2534TIP3    H2 7567   0.422   0.381   3.879
 2535TIP3   OH2 7568   2.419   5.267   2.952
 2535TIP3    H1 7569   2.493   5.304   2.905
 2535TIP3    H2 7570   2.390   5.337   3.011
 2536TIP3   OH2 7571   6.910   3.476   2.762
 2536TIP3    H1 7572   6.898   3.420   2.686
 2536TIP3    H2 7573   6.831   3.531   2.763
 2537TIP3   OH2 7574   3.849   0.962   0.054
 2537TIP3    H1 7575   3.933   0.966   0.100
 2537TIP3    H2 7576   3.791   1.018   0.105
 2538TIP3   OH2 7577   5.043   1.934   1.204
 2538TIP3    H1 7578   5.055   1.842   1.179
 2538TIP3    H2 7579   5.056   1.982   1.123
 2539TIP3   OH2 7580   3.442   3.793   2.923
 2539TIP3    H1 7581   3.391   3.772   3.002
 2539TIP3    H2 7582   3.493   3.869   2.948
 2540TIP3   OH2 7583   5.169   2.414   2.092
 2540TIP3    H1 7584   5.234   2.345   2.108
 2540TIP3    H2 7585   5.189   2.481   2.157
 2541TIP3   OH2 7586   2.499   2.116   3.956
 2541TIP3    H1 7587   2.404   2.112   3.967
 2541TIP3    H2 7588   2.519   2.210   3.957
 2542TIP3   OH2 7589   1.430   2.724   4.215
 2542TIP3    H1 7590   1.372   2.682   4.153
 2542TIP3    H2 7591   1.382   2.724   4.298
 2543TIP3   OH2 7592   2.452   6.364   5.467
 2543TIP3    H1 7593   2.520   6.424   5.438
 2543TIP3    H2 7594   2.398   6.416   5.526
 2544TIP3   OH2 7595   5.725   0.772   2.194
 2544TIP3    H1 7596   5.735   0.833   2.268
 2544TIP3    H2 7597   5.735   0.827   2.116
 2545TIP3   OH2 7598   0.671   3.505   2.740
 2545TIP3    H1 7599   0.760   3.469   2.741
 2545TIP3    H2 7600   0.675   3.577   2.677
 2546TIP3   OH2 7601   3.998   0.311   5.762
 2546TIP3    H1 7602   3.927   0.375   5.756
 2546TIP3    H2 7603   3.965   0.235   5.713
 2547TIP3   OH2 7604   1.555   6.342   0.729
 2547TIP3    H1 7605   1.582   6.401   0.799
 2547TIP3    H2 7606   1.475   6.300   0.762
 2548TIP3   OH2 7607   1.082   6.155   5.065
 2548TIP3    H1 7608   1.070   6.060   5.074
 2548TIP3    H2 7609   1.062   6.173   4.973
 2549TIP3   OH2 7610   0.162   3.300   0.226
 2549TIP3    H1 7611   0.141   3.286   0.319
 2549TIP3    H2 7612   0.243   3.252   0.212
 2550TIP3   OH2 7613   0.426   4.378   2.548
 2550TIP3    H1 7614   0.502   4.386   2.605
 2550TIP3    H2 7615   0.365   4.322   2.596
 2551TIP3   OH2 7616   6.172   6.714   2.868
 2551TIP3    H1 7617   6.208   6.650   2.929
 2551TIP3    H2 7618   6.186   6.674   2.781
 2552TIP3   OH2 7619   1.486   1.345   4.571
 2552TIP3    H1 7620   1.442   1.393   4.500
 2552TIP3    H2 7621   1.555   1.295   4.527
 2553TIP3   OH2 7622   5.835   3.739   3.120
 2553TIP3    H1 7623   5.866   3.754   3.210
 2553TIP3    H2 7624   5.823   3.827   3.085
 2554TIP3   OH2 7625   2.492   6.678   1.487
 2554TIP3    H1 7626   2.528   6.604   1.536
 2554TIP3    H2 7627   2.562   6.744   1.487
 2555TIP3   OH2 7628   0.550   3.770   1.225
 2555TIP3    H1 7629   0.541   3.837   1.293
 2555TIP3    H2 7630   0.624   3.717   1.254
 2556TIP3   OH2 7631   3.441   5.810   0.153
 2556TIP3    H1 7632   3.387   5.799   0.232
 2556TIP3    H2 7633   3.400   5.753   0.088
 2557TIP3   OH2 7634   4.598   6.031   3.797
 2557TIP3    H1 7635   4.620   5.955   3.850
 2557TIP3    H2 7636   4.509   6.054   3.824
 2558TIP3   OH2 7637   1.630   3.805   3.392
 2558TIP3    H1 7638   1.643   3.714   3.365
 2558TIP3    H2 7639   1.548   3.802   3.443
 2559TIP3   OH2 7640   2.053   0.002   1.297
 2559TIP3    H1 7641   2.072   0.041   1.212
 2559TIP3    H2 7642   2.057   0.076   1.358
 2560TIP3   OH2 7643   0.369   5.499   1.238
 2560TIP3    H1 7644   0.463   5.507   1.255
 2560TIP3    H2 7645   0.340   5.590   1.223
 2561TIP3   OH2 7646   1.349   1.556   5.674
 2561TIP3    H1 7647   1.429   1.505   5.685
 2561TIP3    H2 7648   1.362   1.604   5.592
 2562TIP3   OH2 7649   6.607   3.267   4.236
 2562TIP3    H1 7650   6.664   3.226   4.300
 2562TIP3    H2 7651   6.518   3.242   4.263
 2563TIP3   OH2 7652   0.888   4.735   2.857
 2563TIP3    H1 7653   0.939   4.802   2.903
 2563TIP3    H2 7654   0.948   4.700   2.792
 2564TIP3   OH2 7655   3.939   5.239   3.099
 2564TIP3    H1 7656   3.914   5.150   3.073
 2564TIP3    H2 7657   3.944   5.287   3.017
 2565TIP3   OH2 7658   3.586   5.523   0.480
 2565TIP3    H1 7659   3.663   5.472   0.506
 2565TIP3    H2 7660   3.565   5.491   0.392
 2566TIP3   OH2 7661   1.964   1.669   1.053
 2566TIP3    H1 7662   1.965   1.582   1.012
 2566TIP3    H2 7663   1.980   1.652   1.145
 2567TIP3   OH2 7664   4.315   5.949   5.537
 2567TIP3    H1 7665   4.246   6.007   5.571
 2567TIP3    H2 7666   4.335   5.891   5.610
 2568TIP3   OH2 7667   3.285   0.401   5.265
 2568TIP3    H1 7668   3.323   0.381   5.350
 2568TIP3    H2 7669   3.265   0.316   5.227
 2569TIP3   OH2 7670   6.146   1.374   0.547
 2569TIP3    H1 7671   6.234   1.398   0.516
 2569TIP3    H2 7672   6.157   1.286   0.584
 2570TIP3   OH2 7673   1.914   4.207   4.188
 2570TIP3    H1 7674   1.854   4.163   4.249
 2570TIP3    H2 7675   1.989   4.231   4.242
 2571TIP3   OH2 7676   3.155   3.111   4.621
 2571TIP3    H1 7677   3.109   3.132   4.539
 2571TIP3    H2 7678   3.241   3.151   4.612
 2572TIP3   OH2 7679   1.127   2.208   0.700
 2572TIP3    H1 7680   1.216   2.222   0.732
 2572TIP3    H2 7681   1.110   2.115   0.717
 2573TIP3   OH2 7682   2.114   6.270   5.638
 2573TIP3    H1 7683   2.162   6.352   5.633
 2573TIP3    H2 7684   2.164   6.215   5.698
 2574TIP3   OH2 7685   3.675   6.300   0.472
 2574TIP3    H1 7686   3.700   6.350   0.395
 2574TIP3    H2 7687   3.754   6.298   0.526
 2575TIP3   OH2 7688   5.168   2.347   5.540
 2575TIP3    H1 7689   5.073   2.339   5.535
 2575TIP3    H2 7690   5.190   2.414   5.475
 2576TIP3   OH2 7691   4.328   5.810   1.109
 2576TIP3    H1 7692   4.266   5.861   1.161
 2576TIP3    H2 7693   4.397   5.786   1.171
 2577TIP3   OH2 7694   4.445   0.566   3.642
 2577TIP3    H1 7695   4.377   0.598   3.582
 2577TIP3    H2 7696   4.397   0.539   3.720
 2578TIP3   OH2 7697   6.004   3.882   0.375
 2578TIP3    H1 7698   5.926   3.848   0.417
 2578TIP3    H2 7699   6.073   3.874   0.441
 2579TIP3   OH2 7700   2.179   3.408   4.929
 2579TIP3    H1 7701   2.271   3.384   4.923
 2579TIP3    H2 7702   2.161   3.412   5.023
 2580TIP3   OH2 7703   0.435   6.707   2.304
 2580TIP3    H1 7704   0.344   6.689   2.280
 2580TIP3    H2 7705   0.432   6.720   2.399
 2581TIP3   OH2 7706   0.969   1.913   1.356
 2581TIP3    H1 7707   0.952   1.982   1.291
 2581TIP3    H2 7708   0.920   1.837   1.325
 2582TIP3   OH2 7709   6.464   5.958   5.152
 2582TIP3    H1 7710   6.510   5.974   5.069
 2582TIP3    H2 7711   6.396   5.895   5.130
 2583TIP3   OH2 7712   2.514   5.008   0.523
 2583TIP3    H1 7713   2.453   5.064   0.476
 2583TIP3    H2 7714   2.485   4.918   0.505
 2584TIP3   OH2 7715   6.540   0.959   3.655
 2584TIP3    H1 7716   6.495   0.968   3.571
 2584TIP3    H2 7717   6.482   1.002   3.718
 2585TIP3   OH2 7718   6.377   4.548   3.143
 2585TIP3    H1 7719   6.308   4.514   3.200
 2585TIP3    H2 7720   6.332   4.573   3.063
 2586TIP3   OH2 7721   2.880   6.475   3.948
 2586TIP3    H1 7722   2.948   6.535   3.979
 2586TIP3    H2 7723   2.804   6.531   3.931
 2587TIP3   OH2 7724   6.293   0.487   0.190
 2587TIP3    H1 7725   6.296   0.462   0.098
 2587TIP3    H2 7726   6.292   0.583   0.188
 2588TIP3   OH2 7727   4.512   5.385   5.284
 2588TIP3    H1 7728   4.451   5.459   5.278
 2588TIP3    H2 7729   4.598   5.425   5.286
 2589TIP3   OH2 7730   1.632   4.732   2.496
 2589TIP3    H1 7731   1.709   4.780   2.466
 2589TIP3    H2 7732   1.602   4.684   2.419
 2590TIP3   OH2 7733   6.807   0.603   5.545
 2590TIP3    H1 7734   6.899   0.577   5.554
 2590TIP3    H2 7735   6.767   0.580   5.629
 2591TIP3   OH2 7736   3.145   2.515   3.479
 2591TIP3    H1 7737   3.055   2.493   3.504
 2591TIP3    H2 7738   3.179   2.435   3.439
 2592TIP3   OH2 7739   0.220   5.771   3.650
 2592TIP3    H1 7740   0.184   5.714   3.582
 2592TIP3    H2 7741   0.183   5.857   3.632
 2593TIP3   OH2 7742   6.435   1.132   1.896
 2593TIP3    H1 7743   6.494   1.180   1.837
 2593TIP3    H2 7744   6.350   1.176   1.885
 2594TIP3   OH2 7745   4.978   5.130   0.659
 2594TIP3    H1 7746   5.064   5.110   0.623
 2594TIP3    H2 7747   4.961   5.060   0.722
 2595TIP3   OH2 7748   4.353   4.022   5.375
 2595TIP3    H1 7749   4.433   4.058   5.412
 2595TIP3    H2 7750   4.382   3.958   5.311
 2596TIP3   OH2 7751   0.544   0.443   0.963
 2596TIP3    H1 7752   0.599   0.521   0.971
 2596TIP3    H2 7753   0.523   0.437   0.870
 2597TIP3   OH2 7754   7.177   1.201   4.227
 2597TIP3    H1 7755   7.171   1.185   4.322
 2597TIP3    H2 7756   7.089   1.181   4.194
 2598TIP3   OH2 7757   4.051   3.744   4.063
 2598TIP3    H1 7758   4.034   3.732   3.970
 2598TIP3    H2 7759   4.039   3.656   4.101
 2599TIP3   OH2 7760   1.002   3.221   1.404
 2599TIP3    H1 7761   0.986   3.287   1.472
 2599TIP3    H2 7762   1.082   3.177   1.432
 2600TIP3   OH2 7763   3.115   0.499   1.817
 2600TIP3    H1 7764   3.095   0.586   1.851
 2600TIP3    H2 7765   3.193   0.471   1.866
 2601TIP3   OH2 7766   3.902   1.585   5.567
 2601TIP3    H1 7767   3.806   1.589   5.576
 2601TIP3    H2 7768   3.916   1.555   5.477
 2602TIP3   OH2 7769   0.877   3.138   2.512
 2602TIP3    H1 7770   0.917   3.225   2.515
 2602TIP3    H2 7771   0.864   3.121   2.419
 2603TIP3   OH2 7772   3.333   0.257   0.400
 2603TIP3    H1 7773   3.251   0.210   0.383
 2603TIP3    H2 7774   3.402   0.193   0.384
 2604TIP3   OH2 7775   5.610   5.474   1.874
 2604TIP3    H1 7776   5.560   5.440   1.948
 2604TIP3    H2 7777   5.696   5.434   1.883
 2605TIP3   OH2 7778   5.823   0.666   5.450
 2605TIP3    H1 7779   5.782   0.652   5.364
 2605TIP3    H2 7780   5.818   0.580   5.492
 2606TIP3   OH2 7781   4.419   5.367   2.771
 2606TIP3    H1 7782   4.419   5.351   2.865
 2606TIP3    H2 7783   4.357   5.303   2.735
 2607TIP3   OH2 7784   4.394   5.240   2.252
 2607TIP3    H1 7785   4.458   5.311   2.256
 2607TIP3    H2 7786   4.438   5.170   2.204
 2608TIP3   OH2 7787   3.027   3.036   0.100
 2608TIP3    H1 7788   2.976   3.039   0.181
 2608TIP3    H2 7789   3.118   3.049   0.128
 2609TIP3   OH2 7790   6.450   4.654   2.069
 2609TIP3    H1 7791   6.494   4.723   2.117
 2609TIP3    H2 7792   6.368   4.639   2.117
 2610TIP3   OH2 7793   2.585   2.075   4.235
 2610TIP3    H1 7794   2.519   2.103   4.172
 2610TIP3    H2 7795   2.630   2.003   4.192
 2611TIP3   OH2 7796   4.158   0.484   5.228
 2611TIP3    H1 7797   4.125   0.397   5.249
 2611TIP3    H2 7798   4.120   0.505   5.143
 2612TIP3   OH2 7799   6.439   3.792   3.404
 2612TIP3    H1 7800   6.456   3.698   3.399
 2612TIP3    H2 7801   6.408   3.816   3.317
 2613TIP3   OH2 7802   3.516   6.529   0.629
 2613TIP3    H1 7803   3.540   6.567   0.713
 2613TIP3    H2 7804   3.595   6.484   0.599
 2614TIP3   OH2 7805   0.756   1.648   1.794
 2614TIP3    H1 7806   0.743   1.632   1.701
 2614TIP3    H2 7807   0.696   1.587   1.837
 2615TIP3   OH2 7808   2.012   1.324   5.513
 2615TIP3    H1 7809   2.004   1.406   5.563
 2615TIP3    H2 7810   2.067   1.347   5.439
 2616TIP3   OH2 7811   5.910   0.055   3.290
 2616TIP3    H1 7812   5.851  -0.013   3.258
 2616TIP3    H2 7813   5.933   0.105   3.212
 2617TIP3   OH2 7814   1.453   6.626   1.940
 2617TIP3    H1 7815   1.482   6.558   1.880
 2617TIP3    H2 7816   1.406   6.580   2.009
 2618TIP3   OH2 7817   4.186   3.188   2.771
 2618TIP3    H1 7818   4.211   3.231   2.853
 2618TIP3    H2 7819   4.249   3.219   2.707
 2619TIP3   OH2 7820   4.520   0.397   1.386
 2619TIP3    H1 7821   4.438   0.357   1.359
 2619TIP3    H2 7822   4.517   0.486   1.350
 2620TIP3   OH2 7823   6.560   0.218   1.854
 2620TIP3    H1 7824   6.618   0.142   1.857
 2620TIP3    H2 7825   6.578   0.265   1.936
 2621TIP3   OH2 7826   5.879   5.377   0.299
 2621TIP3    H1 7827   5.839   5.419   0.223
 2621TIP3    H2 7828   5.965   5.349   0.268
 2622TIP3   OH2 7829   6.766   4.737   2.149
 2622TIP3    H1 7830   6.857   4.751   2.173
 2622TIP3    H2 7831   6.721   4.817   2.177
 2623TIP3   OH2 7832   0.651   2.160   2.013
 2623TIP3    H1 7833   0.742   2.185   1.997
 2623TIP3    H2 7834   0.640   2.169   2.107
 2624TIP3   OH2 7835   1.349   0.094   5.206
 2624TIP3    H1 7836   1.272   0.138   5.243
 2624TIP3    H2 7837   1.325   0.078   5.115
 2625TIP3   OH2 7838   3.163   3.789   0.059
 2625TIP3    H1 7839   3.244   3.838   0.074
 2625TIP3    H2 7840   3.102   3.852   0.022
 2626TIP3   OH2 7841   1.880   2.972   3.543
 2626TIP3    H1 7842   1.954   2.997   3.487
 2626TIP3    H2 7843   1.915   2.980   3.632
 2627TIP3   OH2 7844   1.373   5.810   2.436
 2627TIP3    H1 7845   1.338   5.890   2.474
 2627TIP3    H2 7846   1.299   5.772   2.387
 2628TIP3   OH2 7847   1.983   0.859   2.000
 2628TIP3    H1 7848   1.922   0.834   2.070
 2628TIP3    H2 7849   2.032   0.932   2.036
 2629TIP3   OH2 7850   1.335   3.359   5.652
 2629TIP3    H1 7851   1.272   3.372   5.722
 2629TIP3    H2 7852   1.294   3.295   5.594
 2630TIP3   OH2 7853   1.778  -0.001   1.326
 2630TIP3    H1 7854   1.782   0.094   1.315
 2630TIP3    H2 7855   1.869  -0.029   1.325
 2631TIP3   OH2 7856   6.668   1.585   5.312
 2631TIP3    H1 7857   6.585   1.604   5.356
 2631TIP3    H2 7858   6.665   1.491   5.296
 2632TIP3   OH2 7859   6.451   3.602   2.995
 2632TIP3    H1 7860   6.444   3.673   2.932
 2632TIP3    H2 7861   6.364   3.563   2.997
 2633TIP3   OH2 7862   0.695   1.160   5.764
 2633TIP3    H1 7863   0.782   1.161   5.803
 2633TIP3    H2 7864   0.712   1.153   5.670
 2634TIP3   OH2 7865   6.347   0.092   5.861
 2634TIP3    H1 7866   6.399   0.132   5.931
 2634TIP3    H2 7867   6.367  -0.002   5.867
 2635TIP3   OH2 7868   5.698   6.718   4.868
 2635TIP3    H1 7869   5.705   6.813   4.875
 2635TIP3    H2 7870   5.617   6.703   4.819
 2636TIP3   OH2 7871   3.132   6.275   4.702
 2636TIP3    H1 7872   3.181   6.350   4.668
 2636TIP3    H2 7873   3.183   6.199   4.674
 2637TIP3   OH2 7874   2.801   0.888   5.732
 2637TIP3    H1 7875   2.787   0.811   5.677
 2637TIP3    H2 7876   2.858   0.857   5.803
 2638TIP3   OH2 7877   6.848   1.532   5.807
 2638TIP3    H1 7878   6.785   1.525   5.878
 2638TIP3    H2 7879   6.846   1.625   5.782
 2639TIP3   OH2 7880   4.030   4.954   5.186
 2639TIP3    H1 7881   4.043   5.049   5.190
 2639TIP3    H2 7882   4.004   4.938   5.095
 2640TIP3   OH2 7883   5.873   0.515   3.725
 2640TIP3    H1 7884   5.870   0.605   3.756
 2640TIP3    H2 7885   5.914   0.466   3.796
 2641TIP3   OH2 7886   2.062   3.156   4.007
 2641TIP3    H1 7887   2.087   3.085   4.067
 2641TIP3    H2 7888   2.107   3.233   4.040
 2642TIP3   OH2 7889   4.848   3.425   5.736
 2642TIP3    H1 7890   4.813   3.410   5.824
 2642TIP3    H2 7891   4.943   3.420   5.746
 2643TIP3   OH2 7892   6.521   1.508   3.991
 2643TIP3    H1 7893   6.587   1.484   3.926
 2643TIP3    H2 7894   6.487   1.424   4.023
 2644TIP3   OH2 7895   6.883   6.318   1.601
 2644TIP3    H1 7896   6.844   6.403   1.577
 2644TIP3    H2 7897   6.934   6.293   1.524
 2645TIP3   OH2 7898   2.758   0.853   1.139
 2645TIP3    H1 7899   2.780   0.891   1.054
 2645TIP3    H2 7900   2.836   0.805   1.164
 2646TIP3   OH2 7901   5.213   2.631   0.624
 2646TIP3    H1 7902   5.203   2.722   0.653
 2646TIP3    H2 7903   5.212   2.636   0.528
 2647TIP3   OH2 7904   5.966   4.093   4.136
 2647TIP3    H1 7905   5.966   4.147   4.056
 2647TIP3    H2 7906   5.954   4.155   4.207
 2648TIP3   OH2 7907   5.584   2.186   4.495
 2648TIP3    H1 7908   5.492   2.209   4.483
 2648TIP3    H2 7909   5.632   2.265   4.468
 2649TIP3   OH2 7910   5.480   5.828   0.627
 2649TIP3    H1 7911   5.547   5.894   0.610
 2649TIP3    H2 7912   5.431   5.822   0.545
 2650TIP3   OH2 7913   5.516   3.773   0.308
 2650TIP3    H1 7914   5.422   3.759   0.296
 2650TIP3    H2 7915   5.556   3.738   0.229
 2651TIP3   OH2 7916   4.422   6.339   3.849
 2651TIP3    H1 7917   4.374   6.256   3.853
 2651TIP3    H2 7918   4.356   6.406   3.867
 2652TIP3   OH2 7919   4.791   4.761   2.379
 2652TIP3    H1 7920   4.826   4.697   2.441
 2652TIP3    H2 7921   4.840   4.841   2.397
 2653TIP3   OH2 7922   2.644   1.089   0.595
 2653TIP3    H1 7923   2.583   1.139   0.541
 2653TIP3    H2 7924   2.607   1.002   0.601
 2654TIP3   OH2 7925   5.867   5.376   2.639
 2654TIP3    H1 7926   5.869   5.472   2.642
 2654TIP3    H2 7927   5.932   5.348   2.703
 2655TIP3   OH2 7928   0.064   3.389   3.485
 2655TIP3    H1 7929   0.005   3.460   3.462
 2655TIP3    H2 7930   0.034   3.315   3.433
 2656TIP3   OH2 7931   6.187   5.889   0.998
 2656TIP3    H1 7932   6.155   5.926   1.080
 2656TIP3    H2 7933   6.134   5.811   0.985
 2657TIP3   OH2 7934   5.737   5.471   2.949
 2657TIP3    H1 7935   5.660   5.443   2.898
 2657TIP3    H2 7936   5.705   5.478   3.039
 2658TIP3   OH2 7937   4.956   3.315   1.797
 2658TIP3    H1 7938   4.984   3.224   1.802
 2658TIP3    H2 7939   4.870   3.316   1.840
 2659TIP3   OH2 7940   2.293   1.746   4.621
 2659TIP3    H1 7941   2.238   1.803   4.676
 2659TIP3    H2 7942   2.232   1.707   4.559
 2660TIP3   OH2 7943   4.416   1.247   4.188
 2660TIP3    H1 7944   4.382   1.208   4.269
 2660TIP3    H2 7945   4.357   1.215   4.119
 2661TIP3   OH2 7946   6.625   2.650   5.504
 2661TIP3    H1 7947   6.565   2.577   5.498
 2661TIP3    H2 7948   6.712   2.610   5.507
 2662TIP3   OH2 7949   5.991   2.066   1.980
 2662TIP3    H1 7950   6.070   2.064   2.034
 2662TIP3    H2 7951   6.023   2.065   1.890
 2663TIP3   OH2 7952   7.184   4.833   4.081
 2663TIP3    H1 7953   7.107   4.872   4.122
 2663TIP3    H2 7954   7.174   4.852   3.988
 2664TIP3   OH2 7955   1.166   0.768   4.560
 2664TIP3    H1 7956   1.145   0.853   4.522
 2664TIP3    H2 7957   1.120   0.705   4.504
 2665TIP3   OH2 7958   7.062   5.079   3.986
 2665TIP3    H1 7959   7.083   5.164   3.949
 2665TIP3    H2 7960   6.966   5.076   3.987
 2666TIP3   OH2 7961   4.796   0.224   5.729
 2666TIP3    H1 7962   4.771   0.145   5.683
 2666TIP3    H2 7963   4.713   0.260   5.761
 2667TIP3   OH2 7964   1.017   6.522   4.643
 2667TIP3    H1 7965   1.076   6.535   4.717
 2667TIP3    H2 7966   0.996   6.428   4.646
 2668TIP3   OH2 7967   4.521   1.121   5.586
 2668TIP3    H1 7968   4.451   1.181   5.559
 2668TIP3    H2 7969   4.599   1.152   5.539
 2669TIP3   OH2 7970   5.025   2.304   4.728
 2669TIP3    H1 7971   4.953   2.365   4.744
 2669TIP3    H2 7972   5.062   2.333   4.644
 2670TIP3   OH2 7973   0.803   1.626   3.099
 2670TIP3    H1 7974   0.897   1.620   3.115
 2670TIP3    H2 7975   0.770   1.538   3.118
 2671TIP3   OH2 7976   4.917   1.113   4.490
 2671TIP3    H1 7977   4.854   1.043   4.510
 2671TIP3    H2 7978   4.871   1.169   4.427
 2672TIP3   OH2 7979   1.247   0.318   1.034
 2672TIP3    H1 7980   1.153   0.338   1.029
 2672TIP3    H2 7981   1.269   0.285   0.946
 2673TIP3   OH2 7982   3.189   0.944   3.489
 2673TIP3    H1 7983   3.123   1.004   3.523
 2673TIP3    H2 7984   3.234   0.911   3.568
 2674TIP3   OH2 7985   4.075   0.925   3.979
 2674TIP3    H1 7986   4.050   0.958   3.893
 2674TIP3    H2 7987   4.025   0.844   3.990
 2675TIP3   OH2 7988   5.428   4.307   3.334
 2675TIP3    H1 7989   5.499   4.318   3.270
 2675TIP3    H2 7990   5.469   4.322   3.419
 2676TIP3   OH2 7991   1.390   1.172   1.874
 2676TIP3    H1 7992   1.435   1.254   1.893
 2676TIP3    H2 7993   1.433   1.107   1.931
 2677TIP3   OH2 7994   2.749   2.055   5.785
 2677TIP3    H1 7995   2.701   2.050   5.867
 2677TIP3    H2 7996   2.702   1.996   5.726
 2678TIP3   OH2 7997   3.618   1.075   3.606
 2678TIP3    H1 7998   3.558   1.148   3.596
 2678TIP3    H2 7999   3.574   1.016   3.667
 2679TIP3   OH2 8000   3.792   6.664   2.738
 2679TIP3    H1 8001   3.724   6.660   2.670
 2679TIP3    H2 8002   3.872   6.635   2.694
 2680TIP3   OH2 8003   5.709   6.677   4.564
 2680TIP3    H1 8004   5.763   6.698   4.487
 2680TIP3    H2 8005   5.768   6.629   4.622
 2681TIP3   OH2 8006   4.128   5.854   1.771
 2681TIP3    H1 8007   4.167   5.914   1.708
 2681TIP3    H2 8008   4.171   5.771   1.755
 2682TIP3   OH2 8009   0.180   6.681   2.221
 2682TIP3    H1 8010   0.095   6.639   2.207
 2682TIP3    H2 8011   0.183   6.752   2.156
 2683TIP3   OH2 8012   0.858   0.658   1.560
 2683TIP3    H1 8013   0.871   0.721   1.630
 2683TIP3    H2 8014   0.805   0.705   1.495
 2684TIP3   OH2 8015   5.184   4.422   3.655
 2684TIP3    H1 8016   5.252   4.364   3.623
 2684TIP3    H2 8017   5.211   4.445   3.744
 2685TIP3   OH2 8018   4.246   6.463   5.406
 2685TIP3    H1 8019   4.267   6.370   5.417
 2685TIP3    H2 8020   4.246   6.477   5.312
 2686TIP3   OH2 8021   0.109   5.600   5.531
 2686TIP3    H1 8022   0.096   5.509   5.503
 2686TIP3    H2 8023   0.021   5.632   5.551
 2687TIP3   OH2 8024   5.706   0.874   1.362
 2687TIP3    H1 8025   5.636   0.832   1.411
 2687TIP3    H2 8026   5.679   0.966   1.355
 2688TIP3   OH2 8027   6.559   3.537   3.413
 2688TIP3    H1 8028   6.555   3.444   3.388
 2688TIP3    H2 8029   6.569   3.536   3.508
 2689TIP3   OH2 8030   3.780   0.899   3.774
 2689TIP3    H1 8031   3.739   0.936   3.696
 2689TIP3    H2 8032   3.839   0.832   3.740
 2690TIP3   OH2 8033   6.521   4.342   1.713
 2690TIP3    H1 8034   6.575   4.287   1.657
 2690TIP3    H2 8035   6.581   4.380   1.777
 2691TIP3   OH2 8036   2.846   0.490   3.672
 2691TIP3    H1 8037   2.780   0.490   3.603
 2691TIP3    H2 8038   2.808   0.436   3.742
 2692TIP3   OH2 8039   2.380   4.839   1.460
 2692TIP3    H1 8040   2.386   4.932   1.442
 2692TIP3    H2 8041   2.470   4.807   1.452
 2693TIP3   OH2 8042   3.048   1.102   4.743
 2693TIP3    H1 8043   3.137   1.068   4.758
 2693TIP3    H2 8044   2.995   1.062   4.812
 2694TIP3   OH2 8045   4.019   4.760   3.199
 2694TIP3    H1 8046   4.108   4.738   3.228
 2694TIP3    H2 8047   3.981   4.807   3.274
 2695TIP3   OH2 8048   6.618   6.601   3.380
 2695TIP3    H1 8049   6.568   6.569   3.456
 2695TIP3    H2 8050   6.550   6.628   3.318
 2696TIP3   OH2 8051   3.525   6.383   1.146
 2696TIP3    H1 8052   3.514   6.288   1.139
 2696TIP3    H2 8053   3.436   6.417   1.156
 2697TIP3   OH2 8054   1.611   0.138   3.210
 2697TIP3    H1 8055   1.521   0.114   3.189
 2697TIP3    H2 8056   1.664   0.067   3.175
 2698TIP3   OH2 8057   3.594   2.931   4.905
 2698TIP3    H1 8058   3.569   2.922   4.813
 2698TIP3    H2 8059   3.521   2.980   4.945
 2699TIP3   OH2 8060   5.718   3.985   5.254
 2699TIP3    H1 8061   5.745   4.077   5.261
 2699TIP3    H2 8062   5.637   3.988   5.204
 2700TIP3   OH2 8063   5.061   1.352   0.359
 2700TIP3    H1 8064   5.046   1.360   0.454
 2700TIP3    H2 8065   5.109   1.431   0.336
 2701TIP3   OH2 8066   1.472   5.958   4.305
 2701TIP3    H1 8067   1.433   6.044   4.320
 2701TIP3    H2 8068   1.398   5.897   4.306
 2702TIP3   OH2 8069   4.099   4.072   0.590
 2702TIP3    H1 8070   4.064   4.041   0.673
 2702TIP3    H2 8071   4.111   4.166   0.602
 2703TIP3   OH2 8072   2.363   2.843   4.004
 2703TIP3    H1 8073   2.355   2.838   3.908
 2703TIP3    H2 8074   2.409   2.926   4.020
 2704TIP3   OH2 8075   6.158   4.196   1.343
 2704TIP3    H1 8076   6.252   4.206   1.356
 2704TIP3    H2 8077   6.145   4.210   1.249
 2705TIP3   OH2 8078   6.270   1.612   4.658
 2705TIP3    H1 8079   6.256   1.642   4.748
 2705TIP3    H2 8080   6.194   1.644   4.610
 2706TIP3   OH2 8081   1.989   1.961   3.995
 2706TIP3    H1 8082   1.942   1.891   4.043
 2706TIP3    H2 8083   1.930   2.036   4.001
 2707TIP3   OH2 8084   3.388   1.439   0.777
 2707TIP3    H1 8085   3.380   1.345   0.762
 2707TIP3    H2 8086   3.474   1.450   0.817
 2708TIP3   OH2 8087   6.152   0.756   1.200
 2708TIP3    H1 8088   6.168   0.696   1.273
 2708TIP3    H2 8089   6.223   0.739   1.139
 2709TIP3   OH2 8090   3.603   3.826   4.317
 2709TIP3    H1 8091   3.662   3.817   4.242
 2709TIP3    H2 8092   3.538   3.758   4.306
 2710TIP3   OH2 8093   3.078   5.059   0.714
 2710TIP3    H1 8094   3.097   5.030   0.625
 2710TIP3    H2 8095   2.988   5.032   0.730
 2711TIP3   OH2 8096   1.496   5.867   5.314
 2711TIP3    H1 8097   1.498   5.805   5.242
 2711TIP3    H2 8098   1.588   5.880   5.337
 2712TIP3   OH2 8099   4.734   1.111   2.751
 2712TIP3    H1 8100   4.749   1.095   2.658
 2712TIP3    H2 8101   4.721   1.205   2.758
 2713TIP3   OH2 8102   0.825   3.364   0.153
 2713TIP3    H1 8103   0.876   3.298   0.198
 2713TIP3    H2 8104   0.869   3.375   0.068
 2714TIP3   OH2 8105   0.453   1.524   2.993
 2714TIP3    H1 8106   0.377   1.581   2.984
 2714TIP3    H2 8107   0.417   1.437   3.007
 2715TIP3   OH2 8108   4.624   5.372   3.529
 2715TIP3    H1 8109   4.692   5.380   3.596
 2715TIP3    H2 8110   4.543   5.394   3.576
 2716TIP3   OH2 8111   2.556   3.980   0.228
 2716TIP3    H1 8112   2.482   3.920   0.228
 2716TIP3    H2 8113   2.534   4.046   0.162
 2717TIP3   OH2 8114   1.023   4.660   2.610
 2717TIP3    H1 8115   1.115   4.636   2.624
 2717TIP3    H2 8116   0.979   4.577   2.593
 2718TIP3   OH2 8117   7.226   3.567   2.104
 2718TIP3    H1 8118   7.135   3.542   2.116
 2718TIP3    H2 8119   7.270   3.539   2.184
 2719TIP3   OH2 8120   5.508   4.064   5.107
 2719TIP3    H1 8121   5.517   4.149   5.151
 2719TIP3    H2 8122   5.423   4.068   5.064
 2720TIP3   OH2 8123   3.643   2.678   5.010
 2720TIP3    H1 8124   3.630   2.765   4.973
 2720TIP3    H2 8125   3.665   2.694   5.102
 2721TIP3   OH2 8126   3.896   6.348   2.415
 2721TIP3    H1 8127   3.909   6.406   2.341
 2721TIP3    H2 8128   3.923   6.399   2.491
 2722TIP3   OH2 8129   5.060   2.824   3.583
 2722TIP3    H1 8130   5.080   2.786   3.498
 2722TIP3    H2 8131   5.031   2.750   3.636
 2723TIP3   OH2 8132   6.324   6.663   4.766
 2723TIP3    H1 8133   6.285   6.721   4.832
 2723TIP3    H2 8134   6.417   6.659   4.789
 2724TIP3   OH2 8135   4.232   2.843   0.742
 2724TIP3    H1 8136   4.185   2.770   0.701
 2724TIP3    H2 8137   4.235   2.820   0.835
 2725TIP3   OH2 8138   3.369   0.210   2.533
 2725TIP3    H1 8139   3.273   0.209   2.533
 2725TIP3    H2 8140   3.393   0.117   2.542
 2726TIP3   OH2 8141   4.715   0.674   1.135
 2726TIP3    H1 8142   4.711   0.770   1.125
 2726TIP3    H2 8143   4.808   0.656   1.149
 2727TIP3   OH2 8144   2.280   2.091   4.817
 2727TIP3    H1 8145   2.201   2.143   4.804
 2727TIP3    H2 8146   2.265   2.012   4.764
 2728TIP3   OH2 8147   3.538   5.026   4.416
 2728TIP3    H1 8148   3.586   5.092   4.365
 2728TIP3    H2 8149   3.563   5.043   4.507
 2729TIP3   OH2 8150   5.624   2.696   1.677
 2729TIP3    H1 8151   5.654   2.757   1.744
 2729TIP3    H2 8152   5.551   2.741   1.635
 2730TIP3   OH2 8153   3.006   2.426   3.072
 2730TIP3    H1 8154   2.940   2.441   3.005
 2730TIP3    H2 8155   3.050   2.345   3.045
 2731TIP3   OH2 8156   2.467   2.575   4.718
 2731TIP3    H1 8157   2.388   2.606   4.675
 2731TIP3    H2 8158   2.507   2.514   4.656
 2732TIP3   OH2 8159   1.458   1.775   5.812
 2732TIP3    H1 8160   1.450   1.842   5.744
 2732TIP3    H2 8161   1.390   1.712   5.791
 2733TIP3   OH2 8162   6.582   6.575   2.437
 2733TIP3    H1 8163   6.512   6.530   2.391
 2733TIP3    H2 8164   6.598   6.523   2.515
 2734TIP3   OH2 8165   4.136   1.565   4.021
 2734TIP3    H1 8166   4.160   1.493   3.962
 2734TIP3    H2 8167   4.130   1.641   3.965
 2735TIP3   OH2 8168   5.991   0.719   3.944
 2735TIP3    H1 8169   6.071   0.765   3.917
 2735TIP3    H2 8170   6.019   0.629   3.960
 2736TIP3   OH2 8171   5.286   3.325   1.998
 2736TIP3    H1 8172   5.313   3.255   1.939
 2736TIP3    H2 8173   5.287   3.404   1.944
 2737TIP3   OH2 8174   6.276   6.363   2.522
 2737TIP3    H1 8175   6.310   6.421   2.453
 2737TIP3    H2 8176   6.233   6.292   2.474
 2738TIP3   OH2 8177   5.594   5.577   1.237
 2738TIP3    H1 8178   5.602   5.657   1.289
 2738TIP3    H2 8179   5.665   5.521   1.268
 2739TIP3   OH2 8180   2.733   3.334   5.297
 2739TIP3    H1 8181   2.806   3.372   5.345
 2739TIP3    H2 8182   2.726   3.244   5.329
 2740TIP3   OH2 8183   7.150   1.381   1.694
 2740TIP3    H1 8184   7.095   1.342   1.626
 2740TIP3    H2 8185   7.088   1.409   1.761
 2741TIP3   OH2 8186   6.385   0.158   5.174
 2741TIP3    H1 8187   6.339   0.228   5.127
 2741TIP3    H2 8188   6.319   0.090   5.186
 2742TIP3   OH2 8189   4.258   3.803   2.690
 2742TIP3    H1 8190   4.242   3.876   2.749
 2742TIP3    H2 8191   4.290   3.843   2.609
 2743TIP3   OH2 8192   1.551   5.712   3.909
 2743TIP3    H1 8193   1.508   5.632   3.941
 2743TIP3    H2 8194   1.627   5.722   3.967
 2744TIP3   OH2 8195   5.034   0.295   4.964
 2744TIP3    H1 8196   5.000   0.339   5.042
 2744TIP3    H2 8197   5.111   0.248   4.995
 2745TIP3   OH2 8198   6.860   2.385   5.879
 2745TIP3    H1 8199   6.910   2.354   5.804
 2745TIP3    H2 8200   6.852   2.480   5.866
 2746TIP3   OH2 8201   6.835   4.490   5.599
 2746TIP3    H1 8202   6.770   4.422   5.581
 2746TIP3    H2 8203   6.812   4.561   5.540
 2747TIP3   OH2 8204   1.329   4.568   4.734
 2747TIP3    H1 8205   1.418   4.540   4.715
 2747TIP3    H2 8206   1.274   4.506   4.686
 2748TIP3   OH2 8207   1.193   4.127   2.613
 2748TIP3    H1 8208   1.160   4.091   2.530
 2748TIP3    H2 8209   1.268   4.182   2.587
 2749TIP3   OH2 8210   4.247   5.496   3.504
 2749TIP3    H1 8211   4.248   5.592   3.511
 2749TIP3    H2 8212   4.171   5.469   3.555
 2750TIP3   OH2 8213   6.205   4.699   3.589
 2750TIP3    H1 8214   6.288   4.667   3.553
 2750TIP3    H2 8215   6.171   4.758   3.522
 2751TIP3   OH2 8216   6.389   4.752   0.756
 2751TIP3    H1 8217   6.356   4.803   0.683
 2751TIP3    H2 8218   6.471   4.795   0.781
 2752TIP3   OH2 8219   2.835   6.761   0.178
 2752TIP3    H1 8220   2.858   6.851   0.203
 2752TIP3    H2 8221   2.915   6.711   0.195
 2753TIP3   OH2 8222   4.219   5.996   3.164
 2753TIP3    H1 8223   4.277   5.993   3.088
 2753TIP3    H2 8224   4.131   5.988   3.127
 2754TIP3   OH2 8225   4.517   4.328   1.023
 2754TIP3    H1 8226   4.548   4.401   0.970
 2754TIP3    H2 8227   4.530   4.356   1.113
 2755TIP3   OH2 8228   5.442   2.310   1.231
 2755TIP3    H1 8229   5.352   2.285   1.208
 2755TIP3    H2 8230   5.482   2.230   1.263
 2756TIP3   OH2 8231  -0.010   5.003   2.203
 2756TIP3    H1 8232  -0.051   5.089   2.210
 2756TIP3    H2 8233   0.067   5.018   2.148
 2757TIP3   OH2 8234   6.040   0.803   2.785
 2757TIP3    H1 8235   5.946   0.804   2.766
 2757TIP3    H2 8236   6.070   0.717   2.756
 2758TIP3   OH2 8237   6.181   0.750   1.989
 2758TIP3    H1 8238   6.215   0.741   2.079
 2758TIP3    H2 8239   6.135   0.834   1.990
 2759TIP3   OH2 8240   0.771   2.219   5.594
 2759TIP3    H1 8241   0.712   2.273   5.541
 2759TIP3    H2 8242   0.712   2.166   5.648
 2760TIP3   OH2 8243   1.139   1.951   1.061
 2760TIP3    H1 8244   1.224   1.987   1.084
 2760TIP3    H2 8245   1.076   2.006   1.108
 2761TIP3   OH2 8246   4.301   1.069   4.012
 2761TIP3    H1 8247   4.345   1.026   3.939
 2761TIP3    H2 8248   4.214   1.029   4.015
 2762TIP3   OH2 8249   5.944   0.165   3.576
 2762TIP3    H1 8250   5.883   0.128   3.640
 2762TIP3    H2 8251   5.962   0.093   3.516
 2763TIP3   OH2 8252   1.881   1.935   1.686
 2763TIP3    H1 8253   1.795   1.965   1.657
 2763TIP3    H2 8254   1.938   2.011   1.674
 2764TIP3   OH2 8255   6.564   5.856   0.165
 2764TIP3    H1 8256   6.643   5.803   0.159
 2764TIP3    H2 8257   6.557   5.880   0.257
 2765TIP3   OH2 8258   2.254   2.646   4.528
 2765TIP3    H1 8259   2.305   2.700   4.468
 2765TIP3    H2 8260   2.204   2.588   4.471
 2766TIP3   OH2 8261   3.549   0.460   1.063
 2766TIP3    H1 8262   3.517   0.370   1.063
 2766TIP3    H2 8263   3.471   0.513   1.072
 2767TIP3   OH2 8264   2.829   3.743   3.620
 2767TIP3    H1 8265   2.917   3.781   3.629
 2767TIP3    H2 8266   2.779   3.782   3.691
 2768TIP3   OH2 8267   1.888   3.720   2.582
 2768TIP3    H1 8268   1.863   3.655   2.649
 2768TIP3    H2 8269   1.806   3.763   2.559
 2769TIP3   OH2 8270   0.396   4.967   0.820
 2769TIP3    H1 8271   0.404   5.059   0.846
 2769TIP3    H2 8272   0.344   4.927   0.890
 2770TIP3   OH2 8273   5.010   5.331   3.099
 2770TIP3    H1 8274   5.102   5.320   3.075
 2770TIP3    H2 8275   4.980   5.403   3.043
 2771TIP3   OH2 8276   4.003   2.882   0.173
 2771TIP3    H1 8277   4.005   2.865   0.267
 2771TIP3    H2 8278   3.969   2.972   0.166
 2772TIP3   OH2 8279   1.186   1.627   0.322
 2772TIP3    H1 8280   1.177   1.678   0.403
 2772TIP3    H2 8281   1.272   1.651   0.289
 2773TIP3   OH2 8282   3.827   4.917   2.463
 2773TIP3    H1 8283   3.854   4.872   2.543
 2773TIP3    H2 8284   3.883   4.995   2.459
 2774TIP3   OH2 8285   1.730   0.477   0.943
 2774TIP3    H1 8286   1.768   0.392   0.967
 2774TIP3    H2 8287   1.771   0.499   0.860
 2775TIP3   OH2 8288   3.638   3.523   1.771
 2775TIP3    H1 8289   3.732   3.537   1.761
 2775TIP3    H2 8290   3.629   3.482   1.857
 2776TIP3   OH2 8291   6.611   2.861   4.461
 2776TIP3    H1 8292   6.544   2.929   4.465
 2776TIP3    H2 8293   6.602   2.823   4.374
 2777TIP3   OH2 8294   2.134   5.807   4.650
 2777TIP3    H1 8295   2.057   5.834   4.699
 2777TIP3    H2 8296   2.104   5.801   4.559
 2778TIP3   OH2 8297   5.326   5.283   0.035
 2778TIP3    H1 8298   5.350   5.339   0.109
 2778TIP3    H2 8299   5.240   5.316   0.006
 2779TIP3   OH2 8300   3.921   4.670   0.419
 2779TIP3    H1 8301   3.975   4.722   0.478
 2779TIP3    H2 8302   3.974   4.594   0.398
 2780TIP3   OH2 8303   3.774   2.209   1.542
 2780TIP3    H1 8304   3.736   2.131   1.582
 2780TIP3    H2 8305   3.817   2.177   1.463
 2781TIP3   OH2 8306   5.178   4.089   5.547
 2781TIP3    H1 8307   5.103   4.075   5.605
 2781TIP3    H2 8308   5.220   4.003   5.541
 2782TIP3   OH2 8309   0.441   0.159   0.537
 2782TIP3    H1 8310   0.361   0.211   0.529
 2782TIP3    H2 8311   0.511   0.222   0.520
 2783TIP3   OH2 8312   4.251   5.316   1.729
 2783TIP3    H1 8313   4.161   5.347   1.742
 2783TIP3    H2 8314   4.242   5.235   1.680
 2784TIP3   OH2 8315   7.098   0.400   5.115
 2784TIP3    H1 8316   7.027   0.438   5.063
 2784TIP3    H2 8317   7.059   0.323   5.157
 2785TIP3   OH2 8318   1.911   2.200   2.405
 2785TIP3    H1 8319   2.005   2.182   2.391
 2785TIP3    H2 8320   1.868   2.158   2.331
 2786TIP3   OH2 8321   5.830   0.229   5.893
 2786TIP3    H1 8322   5.858   0.320   5.879
 2786TIP3    H2 8323   5.889   0.178   5.837
 2787TIP3   OH2 8324   7.189   5.349   5.448
 2787TIP3    H1 8325   7.110   5.327   5.399
 2787TIP3    H2 8326   7.218   5.266   5.485
 2788TIP3   OH2 8327   4.724   1.572   2.060
 2788TIP3    H1 8328   4.670   1.613   2.127
 2788TIP3    H2 8329   4.807   1.553   2.103
 2789TIP3   OH2 8330   6.562   4.366   3.040
 2789TIP3    H1 8331   6.479   4.413   3.047
 2789TIP3    H2 8332   6.558   4.299   3.108
 2790TIP3   OH2 8333   3.305   0.886   2.083
 2790TIP3    H1 8334   3.377   0.833   2.116
 2790TIP3    H2 8335   3.334   0.977   2.097
 2791TIP3   OH2 8336   4.428   0.474   5.790
 2791TIP3    H1 8337   4.377   0.521   5.725
 2791TIP3    H2 8338   4.417   0.382   5.768
 2792TIP3   OH2 8339   1.395   5.074   2.146
 2792TIP3    H1 8340   1.382   5.052   2.238
 2792TIP3    H2 8341   1.484   5.043   2.126
 2793TIP3   OH2 8342   1.901   2.658   1.275
 2793TIP3    H1 8343   1.887   2.746   1.239
 2793TIP3    H2 8344   1.813   2.624   1.289
 2794TIP3   OH2 8345   5.477   3.368   2.383
 2794TIP3    H1 8346   5.478   3.456   2.344
 2794TIP3    H2 8347   5.451   3.382   2.474
 2795TIP3   OH2 8348   5.767   1.287   1.560
 2795TIP3    H1 8349   5.684   1.321   1.528
 2795TIP3    H2 8350   5.743   1.225   1.630
 2796TIP3   OH2 8351   2.634   2.783   1.614
 2796TIP3    H1 8352   2.624   2.732   1.694
 2796TIP3    H2 8353   2.703   2.847   1.635
 2797TIP3   OH2 8354   0.747   0.124   4.618
 2797TIP3    H1 8355   0.814   0.063   4.587
 2797TIP3    H2 8356   0.665   0.076   4.605
 2798TIP3   OH2 8357   4.768   3.960   3.229
 2798TIP3    H1 8358   4.824   3.887   3.201
 2798TIP3    H2 8359   4.826   4.035   3.231
 2799TIP3   OH2 8360   1.818   4.496   4.914
 2799TIP3    H1 8361   1.760   4.421   4.928
 2799TIP3    H2 8362   1.812   4.514   4.820
 2800TIP3   OH2 8363   4.853   6.485   2.622
 2800TIP3    H1 8364   4.865   6.477   2.528
 2800TIP3    H2 8365   4.896   6.407   2.659
 2801TIP3   OH2 8366   6.781   0.824   3.440
 2801TIP3    H1 8367   6.720   0.819   3.513
 2801TIP3    H2 8368   6.856   0.873   3.475
 2802TIP3   OH2 8369   1.021   2.697   3.717
 2802TIP3    H1 8370   0.995   2.648   3.795
 2802TIP3    H2 8371   0.947   2.756   3.699
 2803TIP3   OH2 8372   1.510   0.309   5.360
 2803TIP3    H1 8373   1.435   0.299   5.301
 2803TIP3    H2 8374   1.582   0.337   5.304
 2804TIP3   OH2 8375   0.686   5.478   1.745
 2804TIP3    H1 8376   0.592   5.467   1.730
 2804TIP3    H2 8377   0.723   5.392   1.724
 2805TIP3   OH2 8378   0.761   3.848   3.226
 2805TIP3    H1 8379   0.730   3.937   3.209
 2805TIP3    H2 8380   0.743   3.801   3.145
 2806TIP3   OH2 8381   2.651   0.313   4.831
 2806TIP3    H1 8382   2.736   0.355   4.843
 2806TIP3    H2 8383   2.590   0.368   4.880
 2807TIP3   OH2 8384   5.818   5.387   5.605
 2807TIP3    H1 8385   5.902   5.424   5.634
 2807TIP3    H2 8386   5.768   5.463   5.574
 2808TIP3   OH2 8387   0.180   3.800   0.060
 2808TIP3    H1 8388   0.109   3.752   0.018
 2808TIP3    H2 8389   0.258   3.745   0.046
 2809TIP3   OH2 8390   0.751   3.720   2.578
 2809TIP3    H1 8391   0.841   3.719   2.546
 2809TIP3    H2 8392   0.742   3.805   2.623
 2810TIP3   OH2 8393   3.084   2.011   1.924
 2810TIP3    H1 8394   3.072   1.916   1.926
 2810TIP3    H2 8395   3.152   2.026   1.858
 2811TIP3   OH2 8396   0.094   5.801   2.321
 2811TIP3    H1 8397   0.173   5.817   2.373
 2811TIP3    H2 8398   0.067   5.888   2.291
 2812TIP3   OH2 8399   5.015   5.471   1.214
 2812TIP3    H1 8400   5.110   5.465   1.202
 2812TIP3    H2 8401   4.997   5.412   1.288
 2813TIP3   OH2 8402   6.167   3.101   5.444
 2813TIP3    H1 8403   6.177   3.065   5.532
 2813TIP3    H2 8404   6.256   3.120   5.416
 2814TIP3   OH2 8405   1.000   6.762   4.296
 2814TIP3    H1 8406   0.992   6.826   4.225
 2814TIP3    H2 8407   0.910   6.737   4.317
 2815TIP3   OH2 8408   1.834   4.847   5.334
 2815TIP3    H1 8409   1.813   4.830   5.425
 2815TIP3    H2 8410   1.918   4.803   5.320
 2816TIP3   OH2 8411   0.841   5.987   3.088
 2816TIP3    H1 8412   0.751   5.990   3.122
 2816TIP3    H2 8413   0.851   6.070   3.041
 2817TIP3   OH2 8414   6.151   3.090   2.338
 2817TIP3    H1 8415   6.070   3.042   2.323
 2817TIP3    H2 8416   6.202   3.033   2.396
 2818TIP3   OH2 8417   1.664   5.862   3.708
 2818TIP3    H1 8418   1.662   5.834   3.799
 2818TIP3    H2 8419   1.703   5.788   3.661
 2819TIP3   OH2 8420   3.197   5.315   0.597
 2819TIP3    H1 8421   3.285   5.302   0.632
 2819TIP3    H2 8422   3.149   5.237   0.623
 2820TIP3   OH2 8423   3.233   5.779   5.682
 2820TIP3    H1 8424   3.277   5.854   5.641
 2820TIP3    H2 8425   3.298   5.743   5.742
 2821TIP3   OH2 8426   2.053   1.585   2.691
 2821TIP3    H1 8427   1.992   1.622   2.627
 2821TIP3    H2 8428   2.050   1.646   2.765
 2822TIP3   OH2 8429   4.392   4.230   2.355
 2822TIP3    H1 8430   4.421   4.164   2.292
 2822TIP3    H2 8431   4.339   4.290   2.302
 2823TIP3   OH2 8432   0.079   5.235   1.842
 2823TIP3    H1 8433   0.099   5.285   1.922
 2823TIP3    H2 8434   0.001   5.278   1.806
 2824TIP3   OH2 8435   1.530   0.707   0.003
 2824TIP3    H1 8436   1.496   0.635  -0.049
 2824TIP3    H2 8437   1.519   0.678   0.094
 2825TIP3   OH2 8438   2.506   5.649   0.920
 2825TIP3    H1 8439   2.491   5.575   0.862
 2825TIP3    H2 8440   2.449   5.719   0.888
 2826TIP3   OH2 8441   6.962   0.386   2.304
 2826TIP3    H1 8442   7.043   0.395   2.253
 2826TIP3    H2 8443   6.919   0.308   2.268
 2827TIP3   OH2 8444   5.715   4.114   4.515
 2827TIP3    H1 8445   5.717   4.020   4.496
 2827TIP3    H2 8446   5.649   4.124   4.584
 2828TIP3   OH2 8447   5.520   4.728   5.652
 2828TIP3    H1 8448   5.524   4.764   5.564
 2828TIP3    H2 8449   5.474   4.645   5.642
 2829TIP3   OH2 8450   3.257   5.056   0.139
 2829TIP3    H1 8451   3.213   5.032   0.057
 2829TIP3    H2 8452   3.193   5.035   0.207
 2830TIP3   OH2 8453   4.204   2.214   1.749
 2830TIP3    H1 8454   4.116   2.248   1.734
 2830TIP3    H2 8455   4.262   2.281   1.713
 2831TIP3   OH2 8456   6.138   1.618   1.473
 2831TIP3    H1 8457   6.231   1.616   1.493
 2831TIP3    H2 8458   6.100   1.551   1.531
 2832TIP3   OH2 8459   5.148   2.681   3.375
 2832TIP3    H1 8460   5.241   2.701   3.362
 2832TIP3    H2 8461   5.125   2.624   3.302
 2833TIP3   OH2 8462   3.464   6.088   1.607
 2833TIP3    H1 8463   3.450   6.021   1.674
 2833TIP3    H2 8464   3.429   6.049   1.527
 2834TIP3   OH2 8465   0.616   3.016   1.986
 2834TIP3    H1 8466   0.612   3.111   2.002
 2834TIP3    H2 8467   0.550   3.001   1.919
 2835TIP3   OH2 8468   5.432   2.476   4.950
 2835TIP3    H1 8469   5.388   2.554   4.916
 2835TIP3    H2 8470   5.361   2.412   4.962
 2836TIP3   OH2 8471   3.876   4.161   1.206
 2836TIP3    H1 8472   3.886   4.071   1.175
 2836TIP3    H2 8473   3.954   4.207   1.172
 2837TIP3   OH2 8474   5.201   4.372   5.468
 2837TIP3    H1 8475   5.179   4.350   5.377
 2837TIP3    H2 8476   5.193   4.290   5.515
 2838TIP3   OH2 8477   3.140   3.257   4.861
 2838TIP3    H1 8478   3.113   3.173   4.824
 2838TIP3    H2 8479   3.217   3.282   4.811
 2839TIP3   OH2 8480   2.565   4.238   5.054
 2839TIP3    H1 8481   2.552   4.288   5.135
 2839TIP3    H2 8482   2.585   4.149   5.083
 2840TIP3   OH2 8483   0.873   3.565   1.171
 2840TIP3    H1 8484   0.795   3.510   1.183
 2840TIP3    H2 8485   0.916   3.564   1.257
 2841TIP3   OH2 8486   2.650   6.624   3.550
 2841TIP3    H1 8487   2.589   6.553   3.529
 2841TIP3    H2 8488   2.711   6.626   3.476
 2842TIP3   OH2 8489   1.026   1.902   4.831
 2842TIP3    H1 8490   1.048   1.916   4.923
 2842TIP3    H2 8491   1.040   1.988   4.790
 2843TIP3   OH2 8492   2.296   3.861   0.231
 2843TIP3    H1 8493   2.336   3.778   0.255
 2843TIP3    H2 8494   2.219   3.868   0.287
 2844TIP3   OH2 8495   4.045   6.477   2.180
 2844TIP3    H1 8496   4.067   6.384   2.186
 2844TIP3    H2 8497   4.049   6.497   2.087
 2845TIP3   OH2 8498   4.713   0.364   3.170
 2845TIP3    H1 8499   4.623   0.334   3.157
 2845TIP3    H2 8500   4.767   0.288   3.144
 2846TIP3   OH2 8501   6.457   2.151   3.971
 2846TIP3    H1 8502   6.542   2.141   3.930
 2846TIP3    H2 8503   6.404   2.079   3.935
 2847TIP3   OH2 8504   6.815   3.837   5.551
 2847TIP3    H1 8505   6.732   3.800   5.580
 2847TIP3    H2 8506   6.803   3.932   5.557
 2848TIP3   OH2 8507   1.131   3.207   0.387
 2848TIP3    H1 8508   1.176   3.133   0.428
 2848TIP3    H2 8509   1.127   3.185   0.294
 2849TIP3   OH2 8510   5.716   3.661   5.132
 2849TIP3    H1 8511   5.627   3.696   5.133
 2849TIP3    H2 8512   5.770   3.732   5.100
 2850TIP3   OH2 8513   3.029   3.103   2.582
 2850TIP3    H1 8514   3.087   3.121   2.509
 2850TIP3    H2 8515   3.087   3.093   2.657
 2851TIP3   OH2 8516   5.200   1.934   4.884
 2851TIP3    H1 8517   5.133   1.986   4.927
 2851TIP3    H2 8518   5.186   1.949   4.791
 2852TIP3   OH2 8519   3.928   3.380   5.113
 2852TIP3    H1 8520   3.915   3.354   5.204
 2852TIP3    H2 8521   3.902   3.303   5.063
 2853TIP3   OH2 8522   0.845   0.935   3.851
 2853TIP3    H1 8523   0.762   0.957   3.810
 2853TIP3    H2 8524   0.903   0.914   3.778
 2854TIP3   OH2 8525   7.067   2.615   0.694
 2854TIP3    H1 8526   7.038   2.638   0.605
 2854TIP3    H2 8527   7.034   2.526   0.707
 2855TIP3   OH2 8528   6.146   0.966   2.329
 2855TIP3    H1 8529   6.237   0.937   2.339
 2855TIP3    H2 8530   6.127   0.955   2.236
 2856TIP3   OH2 8531   1.590   4.553   2.279
 2856TIP3    H1 8532   1.553   4.580   2.195
 2856TIP3    H2 8533   1.520   4.506   2.324
 2857TIP3   OH2 8534   1.853   3.494   4.795
 2857TIP3    H1 8535   1.939   3.456   4.778
 2857TIP3    H2 8536   1.834   3.471   4.885
 2858TIP3   OH2 8537   4.195   2.713   2.926
 2858TIP3    H1 8538   4.146   2.664   2.993
 2858TIP3    H2 8539   4.137   2.784   2.901
 2859TIP3   OH2 8540   6.998   1.522   2.434
 2859TIP3    H1 8541   6.984   1.481   2.519
 2859TIP3    H2 8542   7.005   1.615   2.453
 2860TIP3   OH2 8543   1.784   4.252   4.617
 2860TIP3    H1 8544   1.758   4.164   4.591
 2860TIP3    H2 8545   1.876   4.259   4.589
 2861TIP3   OH2 8546   1.370   0.330   4.615
 2861TIP3    H1 8547   1.429   0.256   4.618
 2861TIP3    H2 8548   1.372   0.367   4.703
 2862TIP3   OH2 8549   1.100   0.885   5.601
 2862TIP3    H1 8550   1.107   0.867   5.507
 2862TIP3    H2 8551   1.188   0.868   5.635
 2863TIP3   OH2 8552   2.519   3.923   4.920
 2863TIP3    H1 8553   2.574   3.919   4.999
 2863TIP3    H2 8554   2.565   3.985   4.863
 2864TIP3   OH2 8555   1.485   1.155   5.742
 2864TIP3    H1 8556   1.500   1.100   5.665
 2864TIP3    H2 8557   1.515   1.242   5.716
 2865TIP3   OH2 8558   0.279   3.475   1.671
 2865TIP3    H1 8559   0.274   3.507   1.762
 2865TIP3    H2 8560   0.189   3.485   1.638
 2866TIP3   OH2 8561   6.387   1.114   3.824
 2866TIP3    H1 8562   6.312   1.101   3.883
 2866TIP3    H2 8563   6.453   1.156   3.880
 2867TIP3   OH2 8564   5.954   0.064   4.821
 2867TIP3    H1 8565   5.958   0.103   4.908
 2867TIP3    H2 8566   6.018   0.113   4.769
 2868TIP3   OH2 8567   4.213   1.834   0.175
 2868TIP3    H1 8568   4.132   1.816   0.223
 2868TIP3    H2 8569   4.231   1.926   0.192
 2869TIP3   OH2 8570   0.813   0.831   5.369
 2869TIP3    H1 8571   0.803   0.743   5.335
 2869TIP3    H2 8572   0.908   0.843   5.378
 2870TIP3   OH2 8573   4.338   3.877   0.639
 2870TIP3    H1 8574   4.301   3.811   0.698
 2870TIP3    H2 8575   4.269   3.942   0.630
 2871TIP3   OH2 8576   0.565   5.803   4.190
 2871TIP3    H1 8577   0.476   5.771   4.180
 2871TIP3    H2 8578   0.592   5.826   4.101
 2872TIP3   OH2 8579   0.892   3.409   2.452
 2872TIP3    H1 8580   0.941   3.489   2.436
 2872TIP3    H2 8581   0.811   3.420   2.403
 2873TIP3   OH2 8582   4.575   0.656   2.722
 2873TIP3    H1 8583   4.590   0.681   2.813
 2873TIP3    H2 8584   4.496   0.704   2.697
 2874TIP3   OH2 8585   0.640   5.056   2.905
 2874TIP3    H1 8586   0.611   5.129   2.850
 2874TIP3    H2 8587   0.711   5.093   2.957
 2875TIP3   OH2 8588   2.917   3.899   2.036
 2875TIP3    H1 8589   2.838   3.893   1.983
 2875TIP3    H2 8590   2.957   3.813   2.031
 2876TIP3   OH2 8591   3.348   6.090   0.999
 2876TIP3    H1 8592   3.360   6.145   0.922
 2876TIP3    H2 8593   3.269   6.039   0.980
 2877TIP3   OH2 8594   3.309   6.127   3.696
 2877TIP3    H1 8595   3.319   6.185   3.772
 2877TIP3    H2 8596   3.355   6.172   3.625
 2878TIP3   OH2 8597   3.527   6.242   2.874
 2878TIP3    H1 8598   3.553   6.283   2.956
 2878TIP3    H2 8599   3.558   6.300   2.805
 2879TIP3   OH2 8600   1.640   2.872   5.396
 2879TIP3    H1 8601   1.722   2.849   5.354
 2879TIP3    H2 8602   1.596   2.930   5.333
 2880TIP3   OH2 8603   3.640   2.451   5.248
 2880TIP3    H1 8604   3.693   2.379   5.282
 2880TIP3    H2 8605   3.556   2.442   5.292
 2881TIP3   OH2 8606   2.965   5.208   0.004
 2881TIP3    H1 8607   2.903   5.269  -0.038
 2881TIP3    H2 8608   2.915   5.169   0.075
 2882TIP3   OH2 8609   2.293   6.713   3.724
 2882TIP3    H1 8610   2.244   6.791   3.698
 2882TIP3    H2 8611   2.275   6.704   3.818
 2883TIP3   OH2 8612   3.476   4.322   3.360
 2883TIP3    H1 8613   3.465   4.274   3.441
 2883TIP3    H2 8614   3.539   4.270   3.309
 2884TIP3   OH2 8615   0.184   4.237   5.811
 2884TIP3    H1 8616   0.115   4.296   5.781
 2884TIP3    H2 8617   0.171   4.157   5.760
 2885TIP3   OH2 8618   5.499   5.342   5.293
 2885TIP3    H1 8619   5.422   5.292   5.320
 2885TIP3    H2 8620   5.569   5.310   5.350
 2886TIP3   OH2 8621   4.084   6.214   2.946
 2886TIP3    H1 8622   4.116   6.131   2.910
 2886TIP3    H2 8623   4.041   6.190   3.028
 2887TIP3   OH2 8624   1.560   5.120   2.734
 2887TIP3    H1 8625   1.635   5.096   2.789
 2887TIP3    H2 8626   1.517   5.036   2.716
 2888TIP3   OH2 8627   1.124   3.720   4.221
 2888TIP3    H1 8628   1.170   3.649   4.177
 2888TIP3    H2 8629   1.108   3.688   4.309
 2889TIP3   OH2 8630   5.294   2.935   3.683
 2889TIP3    H1 8631   5.272   3.006   3.743
 2889TIP3    H2 8632   5.209   2.897   3.660
 2890TIP3   OH2 8633   4.311   1.487   2.246
 2890TIP3    H1 8634   4.351   1.462   2.162
 2890TIP3    H2 8635   4.261   1.566   2.225
 2891TIP3   OH2 8636   1.312   3.050   2.513
 2891TIP3    H1 8637   1.346   3.132   2.478
 2891TIP3    H2 8638   1.347   2.982   2.455
 2892TIP3   OH2 8639   5.646   2.768   0.575
 2892TIP3    H1 8640   5.730   2.796   0.540
 2892TIP3    H2 8641   5.653   2.672   0.581
 2893TIP3   OH2 8642   5.396   5.904   4.608
 2893TIP3    H1 8643   5.437   5.910   4.521
 2893TIP3    H2 8644   5.447   5.965   4.662
 2894TIP3   OH2 8645   5.487   4.992   5.492
 2894TIP3    H1 8646   5.552   4.948   5.437
 2894TIP3    H2 8647   5.529   4.997   5.578
 2895TIP3   OH2 8648   0.979   1.621   5.589
 2895TIP3    H1 8649   0.967   1.567   5.511
 2895TIP3    H2 8650   1.013   1.704   5.555
 2896TIP3   OH2 8651   5.971   0.317   4.190
 2896TIP3    H1 8652   6.003   0.384   4.130
 2896TIP3    H2 8653   5.876   0.330   4.191
 2897TIP3   OH2 8654   2.366   4.285   0.747
 2897TIP3    H1 8655   2.334   4.374   0.766
 2897TIP3    H2 8656   2.287   4.230   0.752
 2898TIP3   OH2 8657   4.330   0.178   3.317
 2898TIP3    H1 8658   4.364   0.203   3.402
 2898TIP3    H2 8659   4.385   0.105   3.289
 2899TIP3   OH2 8660   5.389   2.805   4.450
 2899TIP3    H1 8661   5.341   2.868   4.395
 2899TIP3    H2 8662   5.410   2.733   4.390
 2900TIP3   OH2 8663   5.170   5.411   4.806
 2900TIP3    H1 8664   5.192   5.400   4.899
 2900TIP3    H2 8665   5.249   5.383   4.759
 2901TIP3   OH2 8666   1.505   5.670   1.297
 2901TIP3    H1 8667   1.575   5.732   1.316
 2901TIP3    H2 8668   1.461   5.707   1.221
 2902TIP3   OH2 8669   5.472   4.335   5.200
 2902TIP3    H1 8670   5.507   4.370   5.117
 2902TIP3    H2 8671   5.439   4.413   5.245
 2903TIP3   OH2 8672   4.602   6.244   3.616
 2903TIP3    H1 8673   4.586   6.313   3.681
 2903TIP3    H2 8674   4.584   6.163   3.663
 2904TIP3   OH2 8675   5.751   4.001   1.475
 2904TIP3    H1 8676   5.791   3.946   1.407
 2904TIP3    H2 8677   5.685   3.945   1.515
 2905TIP3   OH2 8678   4.007   0.428   1.083
 2905TIP3    H1 8679   4.033   0.355   1.027
 2905TIP3    H2 8680   4.089   0.467   1.111
 2906TIP3   OH2 8681   4.752   3.006   3.103
 2906TIP3    H1 8682   4.776   2.946   3.032
 2906TIP3    H2 8683   4.809   2.982   3.175
 2907TIP3   OH2 8684   5.754   6.221   4.756
 2907TIP3    H1 8685   5.730   6.296   4.702
 2907TIP3    H2 8686   5.849   6.228   4.767
 2908TIP3   OH2 8687   2.560   3.301   3.761
 2908TIP3    H1 8688   2.546   3.347   3.844
 2908TIP3    H2 8689   2.639   3.248   3.776
 2909TIP3   OH2 8690   5.435   0.416   0.401
 2909TIP3    H1 8691   5.515   0.454   0.364
 2909TIP3    H2 8692   5.404   0.482   0.463
 2910TIP3   OH2 8693   3.771   5.746   4.457
 2910TIP3    H1 8694   3.712   5.767   4.530
 2910TIP3    H2 8695   3.851   5.796   4.475
 2911TIP3   OH2 8696   0.053   6.466   2.743
 2911TIP3    H1 8697  -0.018   6.417   2.784
 2911TIP3    H2 8698   0.060   6.546   2.794
 2912TIP3   OH2 8699   6.166   1.756   1.986
 2912TIP3    H1 8700   6.141   1.797   1.903
 2912TIP3    H2 8701   6.192   1.667   1.962
 2913TIP3   OH2 8702   3.905   6.768   4.630
 2913TIP3    H1 8703   3.988   6.746   4.671
 2913TIP3    H2 8704   3.928   6.824   4.556
 2914TIP3   OH2 8705   2.965   3.302   0.014
 2914TIP3    H1 8706   2.998   3.212   0.019
 2914TIP3    H2 8707   3.034   3.356   0.052
 2915TIP3   OH2 8708   6.331   3.097   1.621
 2915TIP3    H1 8709   6.245   3.136   1.601
 2915TIP3    H2 8710   6.333   3.092   1.717
 2916TIP3   OH2 8711   5.025   3.786   5.456
 2916TIP3    H1 8712   5.093   3.776   5.523
 2916TIP3    H2 8713   5.051   3.726   5.386
 2917TIP3   OH2 8714   0.131   6.629   5.157
 2917TIP3    H1 8715   0.124   6.647   5.063
 2917TIP3    H2 8716   0.171   6.708   5.193
 2918TIP3   OH2 8717   1.198   4.882   4.357
 2918TIP3    H1 8718   1.268   4.864   4.420
 2918TIP3    H2 8719   1.133   4.814   4.374
 2919TIP3   OH2 8720   6.402   0.739   4.547
 2919TIP3    H1 8721   6.478   0.694   4.509
 2919TIP3    H2 8722   6.327   0.701   4.502
 2920TIP3   OH2 8723   2.034   2.531   4.773
 2920TIP3    H1 8724   2.103   2.550   4.709
 2920TIP3    H2 8725   1.954   2.520   4.721
 2921TIP3   OH2 8726   7.024   1.916   5.779
 2921TIP3    H1 8727   7.052   1.868   5.856
 2921TIP3    H2 8728   7.084   1.991   5.774
 2922TIP3   OH2 8729   6.026   2.772   1.988
 2922TIP3    H1 8730   6.064   2.703   2.042
 2922TIP3    H2 8731   6.028   2.736   1.899
 2923TIP3   OH2 8732   4.450   4.948   2.127
 2923TIP3    H1 8733   4.446   4.968   2.033
 2923TIP3    H2 8734   4.527   4.892   2.136
 2924TIP3   OH2 8735   4.514   6.740   0.363
 2924TIP3    H1 8736   4.569   6.819   0.366
 2924TIP3    H2 8737   4.570   6.670   0.393
 2925TIP3   OH2 8738   0.947   5.814   2.042
 2925TIP3    H1 8739   0.859   5.800   2.006
 2925TIP3    H2 8740   0.993   5.731   2.025
 2926TIP3   OH2 8741   5.485   5.753   5.585
 2926TIP3    H1 8742   5.410   5.812   5.576
 2926TIP3    H2 8743   5.450   5.675   5.628
 2927TIP3   OH2 8744   2.124   3.999   3.642
 2927TIP3    H1 8745   2.053   4.026   3.584
 2927TIP3    H2 8746   2.198   4.053   3.615
 2928TIP3   OH2 8747   4.723   4.767   1.012
 2928TIP3    H1 8748   4.772   4.829   0.959
 2928TIP3    H2 8749   4.680   4.710   0.948
 2929TIP3   OH2 8750   0.039   6.575   4.882
 2929TIP3    H1 8751  -0.031   6.512   4.899
 2929TIP3    H2 8752   0.021   6.608   4.794
 2930TIP3   OH2 8753   4.067   1.661   0.420
 2930TIP3    H1 8754   4.008   1.629   0.351
 2930TIP3    H2 8755   4.014   1.723   0.470
 2931TIP3   OH2 8756   0.807   1.972   5.105
 2931TIP3    H1 8757   0.721   1.998   5.074
 2931TIP3    H2 8758   0.828   2.036   5.174
 2932TIP3   OH2 8759   2.871   1.990   2.684
 2932TIP3    H1 8760   2.888   2.010   2.592
 2932TIP3    H2 8761   2.956   1.999   2.726
 2933TIP3   OH2 8762   2.693   4.068   1.320
 2933TIP3    H1 8763   2.719   4.122   1.394
 2933TIP3    H2 8764   2.697   4.127   1.244
 2934TIP3   OH2 8765   5.918   2.025   3.212
 2934TIP3    H1 8766   5.947   2.112   3.237
 2934TIP3    H2 8767   5.877   1.989   3.291
 2935TIP3   OH2 8768   5.921   5.759   0.165
 2935TIP3    H1 8769   5.856   5.715   0.219
 2935TIP3    H2 8770   5.869   5.820   0.111
 2936TIP3   OH2 8771   2.906  -0.005   3.969
 2936TIP3    H1 8772   2.910   0.073   3.915
 2936TIP3    H2 8773   2.866   0.024   4.051
 2937TIP3   OH2 8774   0.398   1.219   2.956
 2937TIP3    H1 8775   0.439   1.155   3.015
 2937TIP3    H2 8776   0.304   1.211   2.974
 2938TIP3   OH2 8777   3.938   2.385   4.489
 2938TIP3    H1 8778   3.969   2.382   4.580
 2938TIP3    H2 8779   3.869   2.319   4.484
 2939TIP3   OH2 8780   1.876   3.602   3.425
 2939TIP3    H1 8781   1.806   3.605   3.490
 2939TIP3    H2 8782   1.847   3.538   3.361
 2940TIP3   OH2 8783   2.630   1.356   1.395
 2940TIP3    H1 8784   2.584   1.434   1.426
 2940TIP3    H2 8785   2.698   1.340   1.461
 2941TIP3   OH2 8786   4.781   2.050   4.864
 2941TIP3    H1 8787   4.862   2.051   4.915
 2941TIP3    H2 8788   4.808   2.067   4.774
 2942TIP3   OH2 8789   6.247   1.772   5.326
 2942TIP3    H1 8790   6.258   1.814   5.412
 2942TIP3    H2 8791   6.283   1.684   5.338
 2943TIP3   OH2 8792   2.888   4.461   2.891
 2943TIP3    H1 8793   2.919   4.373   2.871
 2943TIP3    H2 8794   2.845   4.452   2.976
 2944TIP3   OH2 8795   5.826   4.653   5.658
 2944TIP3    H1 8796   5.870   4.689   5.735
 2944TIP3    H2 8797   5.785   4.729   5.616
 2945TIP3   OH2 8798   6.533   5.527   0.567
 2945TIP3    H1 8799   6.617   5.570   0.576
 2945TIP3    H2 8800   6.532   5.461   0.638
 2946TIP3   OH2 8801   4.833   2.393   3.810
 2946TIP3    H1 8802   4.794   2.441   3.884
 2946TIP3    H2 8803   4.893   2.455   3.770
 2947TIP3   OH2 8804   1.548   3.388   3.883
 2947TIP3    H1 8805   1.622   3.336   3.913
 2947TIP3    H2 8806   1.516   3.341   3.806
 2948TIP3   OH2 8807   1.285   6.389   4.743
 2948TIP3    H1 8808   1.316   6.300   4.761
 2948TIP3    H2 8809   1.272   6.391   4.648
 2949TIP3   OH2 8810   6.453   5.415   0.823
 2949TIP3    H1 8811   6.476   5.507   0.835
 2949TIP3    H2 8812   6.360   5.410   0.844
 2950TIP3   OH2 8813   4.463   2.561   3.839
 2950TIP3    H1 8814   4.438   2.646   3.803
 2950TIP3    H2 8815   4.556   2.570   3.861
 2951TIP3   OH2 8816   0.053   5.890   2.621
 2951TIP3    H1 8817  -0.012   5.844   2.568
 2951TIP3    H2 8818   0.074   5.829   2.691
 2952TIP3   OH2 8819   1.165   6.173   3.213
 2952TIP3    H1 8820   1.124   6.124   3.284
 2952TIP3    H2 8821   1.112   6.252   3.204
 2953TIP3   OH2 8822   0.053   6.426   1.790
 2953TIP3    H1 8823   0.014   6.341   1.772
 2953TIP3    H2 8824   0.138   6.424   1.746
 2954TIP3   OH2 8825   6.714   5.326   2.509
 2954TIP3    H1 8826   6.641   5.280   2.551
 2954TIP3    H2 8827   6.680   5.352   2.423
 2955TIP3   OH2 8828   5.680   3.050   4.982
 2955TIP3    H1 8829   5.665   3.134   4.939
 2955TIP3    H2 8830   5.720   2.995   4.915
 2956TIP3   OH2 8831   1.727   4.044   1.948
 2956TIP3    H1 8832   1.799   3.991   1.982
 2956TIP3    H2 8833   1.757   4.134   1.955
 2957TIP3   OH2 8834   1.850   2.988   1.944
 2957TIP3    H1 8835   1.809   3.074   1.932
 2957TIP3    H2 8836   1.788   2.926   1.907
 2958TIP3   OH2 8837   5.858   1.484   0.990
 2958TIP3    H1 8838   5.769   1.517   0.973
 2958TIP3    H2 8839   5.865   1.485   1.086
 2959TIP3   OH2 8840   5.939   0.076   4.478
 2959TIP3    H1 8841   5.922   0.118   4.394
 2959TIP3    H2 8842   6.013   0.123   4.515
 2960TIP3   OH2 8843   5.396   5.466   2.145
 2960TIP3    H1 8844   5.334   5.394   2.139
 2960TIP3    H2 8845   5.455   5.441   2.216
 2961TIP3   OH2 8846   7.053   1.758   2.221
 2961TIP3    H1 8847   7.121   1.785   2.282
 2961TIP3    H2 8848   7.088   1.778   2.135
 2962TIP3   OH2 8849   5.942   1.551   0.719
 2962TIP3    H1 8850   6.000   1.626   0.715
 2962TIP3    H2 8851   5.925   1.539   0.813
 2963TIP3   OH2 8852   4.623   4.159   3.102
 2963TIP3    H1 8853   4.606   4.194   3.190
 2963TIP3    H2 8854   4.656   4.071   3.117
 2964TIP3   OH2 8855   3.461   1.915   5.601
 2964TIP3    H1 8856   3.408   1.862   5.661
 2964TIP3    H2 8857   3.551   1.893   5.623
 2965TIP3   OH2 8858   4.284   1.415   2.525
 2965TIP3    H1 8859   4.304   1.444   2.436
 2965TIP3    H2 8860   4.203   1.365   2.516
 2966TIP3   OH2 8861   1.115   1.733   0.566
 2966TIP3    H1 8862   1.054   1.675   0.611
 2966TIP3    H2 8863   1.191   1.740   0.625
 2967TIP3   OH2 8864   5.523   0.276   5.066
 2967TIP3    H1 8865   5.458   0.345   5.079
 2967TIP3    H2 8866   5.549   0.252   5.155
 2968TIP3   OH2 8867   2.854   3.131   3.322
 2968TIP3    H1 8868   2.930   3.103   3.269
 2968TIP3    H2 8869   2.893   3.161   3.404
 2969TIP3   OH2 8870   6.355   2.704   2.884
 2969TIP3    H1 8871   6.265   2.677   2.866
 2969TIP3    H2 8872   6.364   2.789   2.840
 2970TIP3   OH2 8873   0.543   4.461   4.601
 2970TIP3    H1 8874   0.455   4.453   4.567
 2970TIP3    H2 8875   0.589   4.518   4.539
 2971TIP3   OH2 8876   0.107   4.876   0.331
 2971TIP3    H1 8877   0.015   4.858   0.354
 2971TIP3    H2 8878   0.152   4.881   0.416
 2972TIP3   OH2 8879   2.216   5.848   1.745
 2972TIP3    H1 8880   2.124   5.875   1.756
 2972TIP3    H2 8881   2.214   5.753   1.746
 2973TIP3   OH2 8882   1.963   3.201   4.365
 2973TIP3    H1 8883   2.044   3.229   4.408
 2973TIP3    H2 8884   1.978   3.109   4.344
 2974TIP3   OH2 8885   4.021   3.028   3.424
 2974TIP3    H1 8886   4.069   2.945   3.415
 2974TIP3    H2 8887   3.995   3.030   3.516
 2975TIP3   OH2 8888   2.572   6.801   0.106
 2975TIP3    H1 8889   2.551   6.748   0.029
 2975TIP3    H2 8890   2.659   6.771   0.133
 2976TIP3   OH2 8891   2.005   4.611   0.584
 2976TIP3    H1 8892   2.000   4.528   0.631
 2976TIP3    H2 8893   2.014   4.586   0.492
 2977TIP3   OH2 8894   1.889   5.699   4.363
 2977TIP3    H1 8895   1.977   5.734   4.357
 2977TIP3    H2 8896   1.832   5.773   4.345
 2978TIP3   OH2 8897   5.938   5.751   0.458
 2978TIP3    H1 8898   5.965   5.822   0.400
 2978TIP3    H2 8899   5.853   5.723   0.423
 2979TIP3   OH2 8900   7.160   5.187   3.240
 2979TIP3    H1 8901   7.251   5.180   3.212
 2979TIP3    H2 8902   7.120   5.106   3.208
 2980TIP3   OH2 8903   6.498   4.607   2.731
 2980TIP3    H1 8904   6.418   4.597   2.783
 2980TIP3    H2 8905   6.482   4.553   2.653
 2981TIP3   OH2 8906   7.044   4.467   4.728
 2981TIP3    H1 8907   6.950   4.483   4.722
 2981TIP3    H2 8908   7.084   4.540   4.681
 2982TIP3   OH2 8909   6.977   6.416   4.599
 2982TIP3    H1 8910   6.925   6.452   4.526
 2982TIP3    H2 8911   7.030   6.347   4.558
 2983TIP3   OH2 8912   0.112   0.648   1.960
 2983TIP3    H1 8913   0.110   0.742   1.945
 2983TIP3    H2 8914   0.037   0.614   1.910
 2984TIP3   OH2 8915   4.959   4.721   2.951
 2984TIP3    H1 8916   4.968   4.626   2.955
 2984TIP3    H2 8917   4.866   4.737   2.965
 2985TIP3   OH2 8918   4.098   6.727   1.494
 2985TIP3    H1 8919   4.137   6.694   1.413
 2985TIP3    H2 8920   4.047   6.654   1.528
 2986TIP3   OH2 8921   0.375   1.597   0.769
 2986TIP3    H1 8922   0.333   1.676   0.734
 2986TIP3    H2 8923   0.302   1.542   0.798
 2987TIP3   OH2 8924   4.622   6.746   3.349
 2987TIP3    H1 8925   4.657   6.677   3.293
 2987TIP3    H2 8926   4.646   6.827   3.305
 2988TIP3   OH2 8927   1.179   0.122   0.118
 2988TIP3    H1 8928   1.212   0.063   0.186
 2988TIP3    H2 8929   1.239   0.196   0.120
 2989TIP3   OH2 8930   5.888   0.075   2.902
 2989TIP3    H1 8931   5.942   0.052   2.978
 2989TIP3    H2 8932   5.950   0.105   2.837
 2990TIP3   OH2 8933   1.724   1.413   3.026
 2990TIP3    H1 8934   1.678   1.371   2.952
 2990TIP3    H2 8935   1.814   1.382   3.018
 2991TIP3   OH2 8936   0.859   4.021   4.808
 2991TIP3    H1 8937   0.896   3.975   4.733
 2991TIP3    H2 8938   0.792   4.078   4.770
 2992TIP3   OH2 8939   6.739   5.359   5.320
 2992TIP3    H1 8940   6.675   5.425   5.293
 2992TIP3    H2 8941   6.707   5.277   5.283
 2993TIP3   OH2 8942   4.557   2.665   2.857
 2993TIP3    H1 8943   4.633   2.631   2.905
 2993TIP3    H2 8944   4.493   2.593   2.860
 2994TIP3   OH2 8945   4.688   5.653   2.913
 2994TIP3    H1 8946   4.640   5.571   2.924
 2994TIP3    H2 8947   4.631   5.706   2.857
 2995TIP3   OH2 8948   1.892   1.911   3.687
 2995TIP3    H1 8949   1.957   1.944   3.626
 2995TIP3    H2 8950   1.861   1.989   3.733
 2996TIP3   OH2 8951   1.757   0.753   2.931
 2996TIP3    H1 8952   1.827   0.688   2.922
 2996TIP3    H2 8953   1.687   0.706   2.976
 2997TIP3   OH2 8954   2.691   5.929   5.441
 2997TIP3    H1 8955   2.685   5.896   5.531
 2997TIP3    H2 8956   2.605   5.965   5.423
 2998TIP3   OH2 8957   2.710   1.335   2.853
 2998TIP3    H1 8958   2.761   1.386   2.789
 2998TIP3    H2 8959   2.642   1.396   2.883
 2999TIP3   OH2 8960   1.467   1.978   2.701
 2999TIP3    H1 8961   1.438   2.067   2.682
 2999TIP3    H2 8962   1.453   1.931   2.619
 3000TIP3   OH2 8963   5.215   3.436   3.663
 3000TIP3    H1 8964   5.211   3.524   3.624
 3000TIP3    H2 8965   5.144   3.435   3.728
 3001TIP3   OH2 8966   5.486   1.253   1.516
 3001TIP3    H1 8967   5.423   1.303   1.466
 3001TIP3    H2 8968   5.437   1.220   1.592
 3002TIP3   OH2 8969   3.821   1.945   3.450
 3002TIP3    H1 8970   3.871   1.984   3.379
 3002TIP3    H2 8971   3.819   1.851   3.430
 3003TIP3   OH2 8972   5.561   3.568   4.717
 3003TIP3    H1 8973   5.618   3.513   4.770
 3003TIP3    H2 8974   5.572   3.656   4.754
 3004TIP3   OH2 8975   2.129   3.770   3.465
 3004TIP3    H1 8976   2.039   3.738   3.469
 3004TIP3    H2 8977   2.143   3.814   3.549
 3005TIP3   OH2 8978   7.191   2.086   5.216
 3005TIP3    H1 8979   7.259   2.140   5.255
 3005TIP3    H2 8980   7.176   2.125   5.130
 3006TIP3   OH2 8981   6.007   4.477   2.365
 3006TIP3    H1 8982   5.947   4.413   2.327
 3006TIP3    H2 8983   5.970   4.562   2.340
 3007TIP3   OH2 8984   3.578   3.397   5.701
 3007TIP3    H1 8985   3.556   3.304   5.696
 3007TIP3    H2 8986   3.643   3.402   5.772
 3008TIP3   OH2 8987   1.171   1.909   1.640
 3008TIP3    H1 8988   1.185   1.998   1.674
 3008TIP3    H2 8989   1.254   1.864   1.654
 3009TIP3   OH2 8990   3.463   0.263   0.871
 3009TIP3    H1 8991   3.534   0.311   0.829
 3009TIP3    H2 8992   3.385   0.285   0.821
 3010TIP3   OH2 8993   4.285   2.101   0.176
 3010TIP3    H1 8994   4.224   2.165   0.212
 3010TIP3    H2 8995   4.326   2.061   0.253
 3011TIP3   OH2 8996   4.396   6.255   1.923
 3011TIP3    H1 8997   4.411   6.274   1.831
 3011TIP3    H2 8998   4.310   6.292   1.942
 3012TIP3   OH2 8999   6.715   2.431   1.535
 3012TIP3    H1 9000   6.761   2.347   1.541
 3012TIP3    H2 9001   6.781   2.494   1.507
 3013TIP3   OH2 9002   3.636   0.696   5.471
 3013TIP3    H1 9003   3.727   0.666   5.483
 3013TIP3    H2 9004   3.627   0.769   5.532
 3014TIP3   OH2 9005   6.033   2.628   4.655
 3014TIP3    H1 9006   6.018   2.719   4.681
 3014TIP3    H2 9007   6.034   2.578   4.737
 3015TIP3   OH2 9008   0.813   6.355   5.456
 3015TIP3    H1 9009   0.791   6.330   5.366
 3015TIP3    H2 9010   0.882   6.294   5.482
 3016TIP3   OH2 9011   0.666   6.287   0.726
 3016TIP3    H1 9012   0.676   6.338   0.646
 3016TIP3    H2 9013   0.572   6.283   0.740
 3017TIP3   OH2 9014   5.950   2.708   5.086
 3017TIP3    H1 9015   5.892   2.760   5.141
 3017TIP3    H2 9016   5.954   2.622   5.129
 3018TIP3   OH2 9017   3.732   5.172   5.653
 3018TIP3    H1 9018   3.695   5.141   5.736
 3018TIP3    H2 9019   3.685   5.121   5.586
 3019TIP3   OH2 9020   5.872   5.126   4.324
 3019TIP3    H1 9021   5.863   5.056   4.259
 3019TIP3    H2 9022   5.918   5.084   4.397
 3020TIP3   OH2 9023   7.054   6.387   2.930
 3020TIP3    H1 9024   6.974   6.335   2.922
 3020TIP3    H2 9025   7.097   6.353   3.009
 3021TIP3   OH2 9026   3.007   0.120   5.070
 3021TIP3    H1 9027   2.952   0.080   5.138
 3021TIP3    H2 9028   3.088   0.145   5.115
 3022TIP3   OH2 9029   5.260   4.782   4.292
 3022TIP3    H1 9030   5.348   4.806   4.263
 3022TIP3    H2 9031   5.226   4.860   4.335
 3023TIP3   OH2 9032   7.037   6.263   4.350
 3023TIP3    H1 9033   6.959   6.318   4.363
 3023TIP3    H2 9034   7.014   6.206   4.277
 3024TIP3   OH2 9035   1.155   2.902   4.756
 3024TIP3    H1 9036   1.127   2.943   4.674
 3024TIP3    H2 9037   1.131   2.965   4.824
 3025TIP3   OH2 9038   6.296   1.940   3.890
 3025TIP3    H1 9039   6.230   1.947   3.959
 3025TIP3    H2 9040   6.317   1.847   3.886
 3026TIP3   OH2 9041   2.151   5.525   1.263
 3026TIP3    H1 9042   2.236   5.552   1.299
 3026TIP3    H2 9043   2.093   5.598   1.284
 3027TIP3   OH2 9044   6.894   0.947   0.485
 3027TIP3    H1 9045   6.847   0.968   0.565
 3027TIP3    H2 9046   6.975   0.996   0.491
 3028TIP3   OH2 9047   4.600   4.986   2.409
 3028TIP3    H1 9048   4.520   4.972   2.459
 3028TIP3    H2 9049   4.651   4.905   2.421
 3029TIP3   OH2 9050   5.002   3.226   2.762
 3029TIP3    H1 9051   4.945   3.239   2.838
 3029TIP3    H2 9052   5.081   3.186   2.798
 3030TIP3   OH2 9053   1.559   1.979   5.129
 3030TIP3    H1 9054   1.476   2.015   5.097
 3030TIP3    H2 9055   1.587   1.918   5.060
 3031TIP3   OH2 9056   2.651   0.995   3.580
 3031TIP3    H1 9057   2.640   1.086   3.553
 3031TIP3    H2 9058   2.720   0.962   3.523
 3032TIP3   OH2 9059   3.977   6.722   3.999
 3032TIP3    H1 9060   3.899   6.708   3.946
 3032TIP3    H2 9061   3.985   6.817   4.006
 3033TIP3   OH2 9062   1.717   6.368   2.603
 3033TIP3    H1 9063   1.671   6.406   2.678
 3033TIP3    H2 9064   1.659   6.385   2.528
 3034TIP3   OH2 9065   5.198   0.997   1.016
 3034TIP3    H1 9066   5.180   0.916   1.064
 3034TIP3    H2 9067   5.260   0.971   0.948
 3035TIP3   OH2 9068   4.082   5.988   3.914
 3035TIP3    H1 9069   4.021   5.998   3.841
 3035TIP3    H2 9070   4.091   5.894   3.926
 3036TIP3   OH2 9071   6.487   0.781   0.806
 3036TIP3    H1 9072   6.513   0.690   0.788
 3036TIP3    H2 9073   6.534   0.833   0.741
 3037TIP3   OH2 9074   3.496   6.396   3.115
 3037TIP3    H1 9075   3.524   6.429   3.200
 3037TIP3    H2 9076   3.481   6.474   3.062
 3038TIP3   OH2 9077   4.182   5.600   1.715
 3038TIP3    H1 9078   4.173   5.578   1.622
 3038TIP3    H2 9079   4.227   5.525   1.753
 3039TIP3   OH2 9080   2.167   2.889   5.909
 3039TIP3    H1 9081   2.120   2.819   5.864
 3039TIP3    H2 9082   2.131   2.970   5.873
 3040TIP3   OH2 9083   2.560   1.309   5.026
 3040TIP3    H1 9084   2.632   1.294   5.088
 3040TIP3    H2 9085   2.601   1.352   4.951
 3041TIP3   OH2 9086   2.201   0.652   4.709
 3041TIP3    H1 9087   2.235   0.637   4.620
 3041TIP3    H2 9088   2.261   0.603   4.765
 3042TIP3   OH2 9089   0.563   3.489   5.446
 3042TIP3    H1 9090   0.503   3.559   5.421
 3042TIP3    H2 9091   0.506   3.414   5.464
 3043TIP3   OH2 9092   6.815   6.219   3.533
 3043TIP3    H1 9093   6.801   6.271   3.454
 3043TIP3    H2 9094   6.901   6.248   3.565
 3044TIP3   OH2 9095   2.842   4.925   0.064
 3044TIP3    H1 9096   2.782   4.863   0.106
 3044TIP3    H2 9097   2.796   4.953  -0.015
 3045TIP3   OH2 9098   6.431   2.919   3.123
 3045TIP3    H1 9099   6.425   2.975   3.200
 3045TIP3    H2 9100   6.521   2.928   3.093
 3046TIP3   OH2 9101   1.251   3.034   1.352
 3046TIP3    H1 9102   1.326   3.093   1.360
 3046TIP3    H2 9103   1.247   2.989   1.436
 3047TIP3   OH2 9104   0.786   4.760   0.925
 3047TIP3    H1 9105   0.856   4.697   0.912
 3047TIP3    H2 9106   0.784   4.774   1.020
 3048TIP3   OH2 9107   2.264   3.302   0.914
 3048TIP3    H1 9108   2.216   3.238   0.861
 3048TIP3    H2 9109   2.355   3.275   0.907
 3049TIP3   OH2 9110   2.166   4.313   2.242
 3049TIP3    H1 9111   2.127   4.390   2.284
 3049TIP3    H2 9112   2.150   4.242   2.303
 3050TIP3   OH2 9113   0.481   4.316   1.594
 3050TIP3    H1 9114   0.472   4.255   1.521
 3050TIP3    H2 9115   0.569   4.353   1.584
 3051TIP3   OH2 9116   2.635   3.401   2.336
 3051TIP3    H1 9117   2.697   3.414   2.408
 3051TIP3    H2 9118   2.596   3.487   2.322
 3052TIP3   OH2 9119   5.774   4.926   1.202
 3052TIP3    H1 9120   5.684   4.943   1.172
 3052TIP3    H2 9121   5.807   4.860   1.141
 3053TIP3   OH2 9122   4.853   4.698   0.677
 3053TIP3    H1 9123   4.777   4.650   0.710
 3053TIP3    H2 9124   4.873   4.656   0.594
 3054TIP3   OH2 9125   2.562   4.062   3.245
 3054TIP3    H1 9126   2.510   4.133   3.285
 3054TIP3    H2 9127   2.608   4.022   3.319
 3055TIP3   OH2 9128   4.878   5.895   1.478
 3055TIP3    H1 9129   4.817   5.939   1.537
 3055TIP3    H2 9130   4.923   5.967   1.432
 3056TIP3   OH2 9131   0.575   0.064   2.307
 3056TIP3    H1 9132   0.603  -0.020   2.342
 3056TIP3    H2 9133   0.482   0.052   2.288
 3057TIP3   OH2 9134   2.039   4.036   0.109
 3057TIP3    H1 9135   2.060   3.944   0.121
 3057TIP3    H2 9136   1.964   4.036   0.050
 3058TIP3   OH2 9137   5.316   3.443   0.222
 3058TIP3    H1 9138   5.268   3.510   0.271
 3058TIP3    H2 9139   5.387   3.417   0.281
 3059TIP3   OH2 9140   0.302   4.430   0.074
 3059TIP3    H1 9141   0.276   4.434   0.166
 3059TIP3    H2 9142   0.380   4.374   0.074
 3060TIP3   OH2 9143   2.299   6.339   3.307
 3060TIP3    H1 9144   2.392   6.354   3.319
 3060TIP3    H2 9145   2.293   6.252   3.267
 3061TIP3   OH2 9146   6.286   3.972   1.798
 3061TIP3    H1 9147   6.336   3.987   1.718
 3061TIP3    H2 9148   6.286   4.056   1.844
 3062TIP3   OH2 9149   3.512   4.649   2.073
 3062TIP3    H1 9150   3.424   4.630   2.042
 3062TIP3    H2 9151   3.514   4.616   2.163
 3063TIP3   OH2 9152   3.856   0.575   4.814
 3063TIP3    H1 9153   3.815   0.613   4.736
 3063TIP3    H2 9154   3.874   0.484   4.790
 3064TIP3   OH2 9155   5.949   4.291   3.938
 3064TIP3    H1 9156   5.957   4.354   3.866
 3064TIP3    H2 9157   5.861   4.304   3.972
 3065TIP3   OH2 9158   1.411   2.801   4.776
 3065TIP3    H1 9159   1.452   2.881   4.809
 3065TIP3    H2 9160   1.325   2.829   4.745
 3066TIP3   OH2 9161   0.768   1.211   5.208
 3066TIP3    H1 9162   0.849   1.183   5.251
 3066TIP3    H2 9163   0.796   1.273   5.142
 3067TIP3   OH2 9164   0.257   3.178   5.278
 3067TIP3    H1 9165   0.265   3.089   5.244
 3067TIP3    H2 9166   0.317   3.182   5.352
 3068TIP3   OH2 9167   3.614   3.384   0.732
 3068TIP3    H1 9168   3.693   3.332   0.721
 3068TIP3    H2 9169   3.544   3.329   0.696
 3069TIP3   OH2 9170   5.056   6.237   0.942
 3069TIP3    H1 9171   5.060   6.331   0.963
 3069TIP3    H2 9172   5.059   6.234   0.846
 3070TIP3   OH2 9173   4.320   4.305   0.598
 3070TIP3    H1 9174   4.302   4.368   0.529
 3070TIP3    H2 9175   4.396   4.256   0.567
 3071TIP3   OH2 9176   1.519   5.743   3.022
 3071TIP3    H1 9177   1.432   5.704   3.017
 3071TIP3    H2 9178   1.560   5.722   2.938
 3072TIP3   OH2 9179   6.447   6.538   0.897
 3072TIP3    H1 9180   6.399   6.619   0.909
 3072TIP3    H2 9181   6.506   6.532   0.972
 3073TIP3   OH2 9182   4.797   2.103   4.137
 3073TIP3    H1 9183   4.784   2.044   4.211
 3073TIP3    H2 9184   4.868   2.160   4.164
 3074TIP3   OH2 9185   0.572   4.260   0.695
 3074TIP3    H1 9186   0.481   4.241   0.717
 3074TIP3    H2 9187   0.571   4.349   0.660
 3075TIP3   OH2 9188   4.648   2.710   2.435
 3075TIP3    H1 9189   4.609   2.630   2.469
 3075TIP3    H2 9190   4.706   2.740   2.506
 3076TIP3   OH2 9191   4.052   4.427   0.347
 3076TIP3    H1 9192   4.147   4.436   0.347
 3076TIP3    H2 9193   4.024   4.460   0.261
 3077TIP3   OH2 9194   3.279   6.134   2.211
 3077TIP3    H1 9195   3.375   6.131   2.215
 3077TIP3    H2 9196   3.256   6.219   2.250
 3078TIP3   OH2 9197   3.059   5.428   0.889
 3078TIP3    H1 9198   3.032   5.401   0.976
 3078TIP3    H2 9199   3.155   5.423   0.890
 3079TIP3   OH2 9200   0.935   2.728   3.052
 3079TIP3    H1 9201   0.974   2.800   3.001
 3079TIP3    H2 9202   0.957   2.649   3.002
 3080TIP3   OH2 9203   6.396   1.204   2.260
 3080TIP3    H1 9204   6.473   1.247   2.296
 3080TIP3    H2 9205   6.337   1.195   2.334
 3081TIP3   OH2 9206   0.672   2.233   2.790
 3081TIP3    H1 9207   0.710   2.175   2.856
 3081TIP3    H2 9208   0.635   2.305   2.841
 3082TIP3   OH2 9209   3.777   5.025   3.038
 3082TIP3    H1 9210   3.703   5.078   3.009
 3082TIP3    H2 9211   3.739   4.941   3.062
 3083TIP3   OH2 9212   1.689   3.934   4.287
 3083TIP3    H1 9213   1.706   3.905   4.198
 3083TIP3    H2 9214   1.636   3.864   4.326
 3084TIP3   OH2 9215   6.504   5.464   3.008
 3084TIP3    H1 9216   6.421   5.436   3.046
 3084TIP3    H2 9217   6.484   5.546   2.963
 3085TIP3   OH2 9218   3.082   6.524   0.783
 3085TIP3    H1 9219   3.007   6.481   0.823
 3085TIP3    H2 9220   3.138   6.453   0.752
 3086TIP3   OH2 9221   3.109   5.501   3.669
 3086TIP3    H1 9222   3.151   5.526   3.752
 3086TIP3    H2 9223   3.018   5.525   3.680
 3087TIP3   OH2 9224   6.283   1.068   5.783
 3087TIP3    H1 9225   6.289   1.118   5.864
 3087TIP3    H2 9226   6.273   1.134   5.715
 3088TIP3   OH2 9227   5.760   0.076   4.217
 3088TIP3    H1 9228   5.752   0.145   4.152
 3088TIP3    H2 9229   5.708   0.106   4.291
 3089TIP3   OH2 9230   3.324   1.609   4.826
 3089TIP3    H1 9231   3.386   1.548   4.865
 3089TIP3    H2 9232   3.239   1.564   4.831
 3090TIP3   OH2 9233   2.707   0.843   1.489
 3090TIP3    H1 9234   2.783   0.868   1.436
 3090TIP3    H2 9235   2.660   0.925   1.504
 3091TIP3   OH2 9236   4.918   0.556   2.249
 3091TIP3    H1 9237   4.913   0.607   2.330
 3091TIP3    H2 9238   4.939   0.621   2.182
 3092TIP3   OH2 9239   7.047   4.157   0.393
 3092TIP3    H1 9240   7.079   4.082   0.342
 3092TIP3    H2 9241   7.061   4.131   0.485
 3093TIP3   OH2 9242   2.317   6.266   2.862
 3093TIP3    H1 9243   2.248   6.327   2.886
 3093TIP3    H2 9244   2.397   6.319   2.862
 3094TIP3   OH2 9245   6.067   6.079   5.002
 3094TIP3    H1 9246   6.047   6.122   4.918
 3094TIP3    H2 9247   6.076   6.152   5.064
 3095TIP3   OH2 9248   4.315   5.484   2.530
 3095TIP3    H1 9249   4.362   5.414   2.575
 3095TIP3    H2 9250   4.380   5.524   2.472
 3096TIP3   OH2 9251   1.412   5.266   4.781
 3096TIP3    H1 9252   1.454   5.180   4.784
 3096TIP3    H2 9253   1.382   5.282   4.870
 3097TIP3   OH2 9254   4.118   6.108   5.627
 3097TIP3    H1 9255   4.023   6.120   5.629
 3097TIP3    H2 9256   4.147   6.130   5.715
 3098TIP3   OH2 9257   0.700   2.000   4.618
 3098TIP3    H1 9258   0.708   1.970   4.709
 3098TIP3    H2 9259   0.761   1.946   4.569
 3099TIP3   OH2 9260   2.376   0.993   2.776
 3099TIP3    H1 9261   2.470   0.978   2.782
 3099TIP3    H2 9262   2.350   1.021   2.864
 3100TIP3   OH2 9263   3.033   6.588   0.147
 3100TIP3    H1 9264   3.041   6.561   0.055
 3100TIP3    H2 9265   3.051   6.508   0.197
 3101TIP3   OH2 9266   2.000   5.384   4.288
 3101TIP3    H1 9267   2.042   5.334   4.358
 3101TIP3    H2 9268   1.952   5.319   4.238
 3102TIP3   OH2 9269   2.231   1.587   2.488
 3102TIP3    H1 9270   2.163   1.597   2.554
 3102TIP3    H2 9271   2.193   1.622   2.407
 3103TIP3   OH2 9272   2.172   2.952   0.758
 3103TIP3    H1 9273   2.147   2.988   0.843
 3103TIP3    H2 9274   2.266   2.938   0.764
 3104TIP3   OH2 9275   0.342   1.468   4.206
 3104TIP3    H1 9276   0.435   1.491   4.199
 3104TIP3    H2 9277   0.308   1.528   4.274
 3105TIP3   OH2 9278   0.528   4.820   4.148
 3105TIP3    H1 9279   0.439   4.807   4.117
 3105TIP3    H2 9280   0.581   4.757   4.098
 3106TIP3   OH2 9281   1.955   2.702   3.704
 3106TIP3    H1 9282   2.013   2.633   3.671
 3106TIP3    H2 9283   2.012   2.778   3.712
 3107TIP3   OH2 9284   1.332   6.201   0.869
 3107TIP3    H1 9285   1.242   6.218   0.844
 3107TIP3    H2 9286   1.352   6.116   0.829
 3108TIP3   OH2 9287   3.899   4.656   1.501
 3108TIP3    H1 9288   3.983   4.628   1.537
 3108TIP3    H2 9289   3.846   4.678   1.577
 3109TIP3   OH2 9290   6.356   6.170   0.194
 3109TIP3    H1 9291   6.263   6.191   0.203
 3109TIP3    H2 9292   6.387   6.161   0.284
 3110TIP3   OH2 9293   3.793   5.221   4.035
 3110TIP3    H1 9294   3.847   5.297   4.056
 3110TIP3    H2 9295   3.765   5.187   4.121
 3111TIP3   OH2 9296   4.972   4.491   5.817
 3111TIP3    H1 9297   4.918   4.552   5.767
 3111TIP3    H2 9298   5.014   4.436   5.751
 3112TIP3   OH2 9299   0.338   3.410   0.922
 3112TIP3    H1 9300   0.314   3.443   1.009
 3112TIP3    H2 9301   0.413   3.353   0.939
 3113TIP3   OH2 9302   0.220   0.832   0.493
 3113TIP3    H1 9303   0.187   0.843   0.404
 3113TIP3    H2 9304   0.202   0.740   0.514
 3114TIP3   OH2 9305   5.550   2.450   4.655
 3114TIP3    H1 9306   5.459   2.457   4.683
 3114TIP3    H2 9307   5.593   2.401   4.725
 3115TIP3   OH2 9308   3.113   4.786   4.781
 3115TIP3    H1 9309   3.160   4.705   4.759
 3115TIP3    H2 9310   3.176   4.856   4.764
 3116TIP3   OH2 9311   6.687   3.363   1.878
 3116TIP3    H1 9312   6.607   3.354   1.826
 3116TIP3    H2 9313   6.721   3.450   1.856
 3117TIP3   OH2 9314   6.410   1.413   0.432
 3117TIP3    H1 9315   6.430   1.319   0.433
 3117TIP3    H2 9316   6.475   1.451   0.372
 3118TIP3   OH2 9317   7.121   3.060   4.558
 3118TIP3    H1 9318   7.111   3.070   4.463
 3118TIP3    H2 9319   7.208   3.023   4.570
 3119TIP3   OH2 9320   6.099   1.517   3.860
 3119TIP3    H1 9321   6.082   1.469   3.941
 3119TIP3    H2 9322   6.117   1.450   3.795
 3120TIP3   OH2 9323   3.316   5.209   2.226
 3120TIP3    H1 9324   3.256   5.156   2.279
 3120TIP3    H2 9325   3.333   5.286   2.280
 3121TIP3   OH2 9326   3.187   0.038   0.057
 3121TIP3    H1 9327   3.278   0.059   0.078
 3121TIP3    H2 9328   3.191   0.000  -0.031
 3122TIP3   OH2 9329   3.528   4.384   2.084
 3122TIP3    H1 9330   3.544   4.470   2.043
 3122TIP3    H2 9331   3.448   4.397   2.135
 3123TIP3   OH2 9332   6.717   1.797   4.496
 3123TIP3    H1 9333   6.748   1.783   4.586
 3123TIP3    H2 9334   6.795   1.783   4.442
 3124TIP3   OH2 9335   0.373   1.100   3.506
 3124TIP3    H1 9336   0.358   1.173   3.445
 3124TIP3    H2 9337   0.425   1.037   3.456
 3125TIP3   OH2 9338   4.524   0.812   0.051
 3125TIP3    H1 9339   4.492   0.787  -0.035
 3125TIP3    H2 9340   4.540   0.728   0.095
 3126TIP3   OH2 9341   5.103   0.920   3.628
 3126TIP3    H1 9342   5.069   0.841   3.587
 3126TIP3    H2 9343   5.025   0.969   3.653
 3127TIP3   OH2 9344   7.029   0.826   1.115
 3127TIP3    H1 9345   6.986   0.815   1.030
 3127TIP3    H2 9346   6.965   0.793   1.178
 3128TIP3   OH2 9347   1.106   3.628   4.473
 3128TIP3    H1 9348   1.169   3.556   4.474
 3128TIP3    H2 9349   1.021   3.585   4.474
 3129TIP3   OH2 9350   3.187   5.021   0.431
 3129TIP3    H1 9351   3.241   4.944   0.444
 3129TIP3    H2 9352   3.249   5.093   0.424
 3130TIP3   OH2 9353   2.821   2.826   3.848
 3130TIP3    H1 9354   2.779   2.863   3.770
 3130TIP3    H2 9355   2.840   2.902   3.903
 3131TIP3   OH2 9356   3.637   5.493   3.172
 3131TIP3    H1 9357   3.560   5.533   3.213
 3131TIP3    H2 9358   3.601   5.434   3.106
 3132TIP3   OH2 9359   3.278   2.221   2.589
 3132TIP3    H1 9360   3.373   2.223   2.586
 3132TIP3    H2 9361   3.251   2.313   2.583
 3133TIP3   OH2 9362   7.214   2.195   4.928
 3133TIP3    H1 9363   7.257   2.225   4.848
 3133TIP3    H2 9364   7.136   2.249   4.936
 3134TIP3   OH2 9365   0.301   0.514   3.883
 3134TIP3    H1 9366   0.277   0.589   3.937
 3134TIP3    H2 9367   0.218   0.481   3.849
 3135TIP3   OH2 9368   2.804   3.167   0.889
 3135TIP3    H1 9369   2.839   3.173   0.978
 3135TIP3    H2 9370   2.873   3.200   0.832
 3136TIP3   OH2 9371   3.119   1.358   4.583
 3136TIP3    H1 9372   3.108   1.275   4.631
 3136TIP3    H2 9373   3.209   1.355   4.551
 3137TIP3   OH2 9374   1.431   6.051   1.711
 3137TIP3    H1 9375   1.486   6.109   1.659
 3137TIP3    H2 9376   1.358   6.106   1.740
 3138TIP3   OH2 9377   0.345   5.493   2.445
 3138TIP3    H1 9378   0.344   5.403   2.477
 3138TIP3    H2 9379   0.338   5.547   2.523
 3139TIP3   OH2 9380   0.201   4.090   4.285
 3139TIP3    H1 9381   0.192   3.999   4.255
 3139TIP3    H2 9382   0.293   4.110   4.271
 3140TIP3   OH2 9383   5.096   5.444   3.463
 3140TIP3    H1 9384   5.019   5.391   3.446
 3140TIP3    H2 9385   5.155   5.386   3.512
 3141TIP3   OH2 9386   6.924   1.428   2.187
 3141TIP3    H1 9387   6.971   1.482   2.250
 3141TIP3    H2 9388   6.840   1.410   2.230
 3142TIP3   OH2 9389   2.350   4.849   4.815
 3142TIP3    H1 9390   2.429   4.884   4.856
 3142TIP3    H2 9391   2.371   4.845   4.722
 3143TIP3   OH2 9392   0.051   0.771   3.468
 3143TIP3    H1 9393   0.001   0.770   3.549
 3143TIP3    H2 9394   0.069   0.864   3.452
 3144TIP3   OH2 9395   1.557   1.007   3.978
 3144TIP3    H1 9396   1.485   1.053   4.021
 3144TIP3    H2 9397   1.516   0.933   3.935
 3145TIP3   OH2 9398   0.186   0.759   2.639
 3145TIP3    H1 9399   0.244   0.788   2.710
 3145TIP3    H2 9400   0.115   0.824   2.638
 3146TIP3   OH2 9401   4.939   1.600   0.895
 3146TIP3    H1 9402   4.858   1.639   0.926
 3146TIP3    H2 9403   4.921   1.507   0.890
 3147TIP3   OH2 9404   0.477   2.513   2.016
 3147TIP3    H1 9405   0.447   2.455   1.947
 3147TIP3    H2 9406   0.563   2.545   1.986
 3148TIP3   OH2 9407   0.917   5.077   4.734
 3148TIP3    H1 9408   0.998   5.128   4.739
 3148TIP3    H2 9409   0.910   5.053   4.642
 3149TIP3   OH2 9410   3.377   4.308   0.933
 3149TIP3    H1 9411   3.300   4.359   0.957
 3149TIP3    H2 9412   3.413   4.352   0.857
 3150TIP3   OH2 9413   5.615   1.227   1.847
 3150TIP3    H1 9414   5.536   1.175   1.829
 3150TIP3    H2 9415   5.688   1.167   1.829
 3151TIP3   OH2 9416   3.479   2.791   0.118
 3151TIP3    H1 9417   3.530   2.865   0.083
 3151TIP3    H2 9418   3.518   2.774   0.204
 3152TIP3   OH2 9419   4.910   4.447   3.205
 3152TIP3    H1 9420   5.005   4.449   3.195
 3152TIP3    H2 9421   4.892   4.512   3.273
 3153TIP3   OH2 9422   0.677   6.536   1.146
 3153TIP3    H1 9423   0.743   6.518   1.213
 3153TIP3    H2 9424   0.724   6.527   1.063
 3154TIP3   OH2 9425   6.645   4.103   2.155
 3154TIP3    H1 9426   6.551   4.101   2.137
 3154TIP3    H2 9427   6.662   4.194   2.178
 3155TIP3   OH2 9428   2.355   6.043   5.739
 3155TIP3    H1 9429   2.432   6.009   5.784
 3155TIP3    H2 9430   2.378   6.134   5.717
 3156TIP3   OH2 9431   6.578   4.995   1.919
 3156TIP3    H1 9432   6.673   5.004   1.924
 3156TIP3    H2 9433   6.550   4.986   2.010
 3157TIP3   OH2 9434   1.793   0.316   0.520
 3157TIP3    H1 9435   1.814   0.280   0.434
 3157TIP3    H2 9436   1.863   0.379   0.538
 3158TIP3   OH2 9437   6.440   5.706   2.859
 3158TIP3    H1 9438   6.371   5.764   2.892
 3158TIP3    H2 9439   6.448   5.729   2.767
 3159TIP3   OH2 9440   2.171   5.278   3.129
 3159TIP3    H1 9441   2.233   5.350   3.118
 3159TIP3    H2 9442   2.108   5.311   3.194
 3160TIP3   OH2 9443   0.799   4.679   1.756
 3160TIP3    H1 9444   0.823   4.769   1.735
 3160TIP3    H2 9445   0.876   4.628   1.730
 3161TIP3   OH2 9446   5.867   2.011   2.686
 3161TIP3    H1 9447   5.863   2.001   2.781
 3161TIP3    H2 9448   5.954   1.978   2.663
 3162TIP3   OH2 9449   2.525   5.692   5.221
 3162TIP3    H1 9450   2.616   5.668   5.205
 3162TIP3    H2 9451   2.497   5.637   5.294
 3163TIP3   OH2 9452   0.979   1.796   4.040
 3163TIP3    H1 9453   0.999   1.778   3.948
 3163TIP3    H2 9454   0.963   1.891   4.042
 3164TIP3   OH2 9455   0.199   3.093   4.080
 3164TIP3    H1 9456   0.135   3.035   4.122
 3164TIP3    H2 9457   0.268   3.034   4.049
 3165TIP3   OH2 9458   1.613   5.630   2.789
 3165TIP3    H1 9459   1.606   5.603   2.698
 3165TIP3    H2 9460   1.611   5.548   2.839
 3166TIP3   OH2 9461   3.028   1.276   2.551
 3166TIP3    H1 9462   2.945   1.317   2.577
 3166TIP3    H2 9463   3.031   1.287   2.456
 3167TIP3   OH2 9464   3.717   4.330   1.416
 3167TIP3    H1 9465   3.633   4.290   1.438
 3167TIP3    H2 9466   3.747   4.285   1.337
 3168TIP3   OH2 9467   6.645   0.453   3.403
 3168TIP3    H1 9468   6.636   0.514   3.476
 3168TIP3    H2 9469   6.590   0.490   3.334
 3169TIP3   OH2 9470   6.394   5.614   4.490
 3169TIP3    H1 9471   6.484   5.645   4.487
 3169TIP3    H2 9472   6.398   5.535   4.544
 3170TIP3   OH2 9473   6.664   5.859   0.735
 3170TIP3    H1 9474   6.665   5.944   0.690
 3170TIP3    H2 9475   6.678   5.795   0.665
 3171TIP3   OH2 9476   6.254   3.323   1.938
 3171TIP3    H1 9477   6.165   3.316   1.972
 3171TIP3    H2 9478   6.288   3.234   1.940
 3172TIP3   OH2 9479   4.677   3.609   5.675
 3172TIP3    H1 9480   4.760   3.561   5.674
 3172TIP3    H2 9481   4.612   3.543   5.697
 3173TIP3   OH2 9482   3.037   4.743   0.120
 3173TIP3    H1 9483   3.000   4.820   0.076
 3173TIP3    H2 9484   3.033   4.673   0.055
 3174TIP3   OH2 9485   6.938   4.125   4.177
 3174TIP3    H1 9486   6.940   4.070   4.255
 3174TIP3    H2 9487   7.026   4.118   4.140
 3175TIP3   OH2 9488   3.848   1.286   5.804
 3175TIP3    H1 9489   3.810   1.374   5.806
 3175TIP3    H2 9490   3.836   1.253   5.893
 3176TIP3   OH2 9491   6.676   3.290   1.555
 3176TIP3    H1 9492   6.623   3.316   1.479
 3176TIP3    H2 9493   6.620   3.308   1.630
 3177TIP3   OH2 9494   2.207   0.108   3.982
 3177TIP3    H1 9495   2.203   0.014   3.967
 3177TIP3    H2 9496   2.239   0.144   3.899
 3178TIP3   OH2 9497   5.020   3.892   5.853
 3178TIP3    H1 9498   5.076   3.814   5.852
 3178TIP3    H2 9499   4.933   3.858   5.876
 3179TIP3   OH2 9500   0.982   0.289   4.453
 3179TIP3    H1 9501   1.021   0.284   4.540
 3179TIP3    H2 9502   0.890   0.266   4.466
 3180TIP3   OH2 9503   3.549   6.603   0.898
 3180TIP3    H1 9504   3.611   6.530   0.899
 3180TIP3    H2 9505   3.582   6.664   0.963
 3181TIP3   OH2 9506   1.421   6.343   2.863
 3181TIP3    H1 9507   1.364   6.410   2.901
 3181TIP3    H2 9508   1.486   6.392   2.813
 3182TIP3   OH2 9509   2.348   1.626   3.564
 3182TIP3    H1 9510   2.345   1.546   3.513
 3182TIP3    H2 9511   2.262   1.667   3.550
 3183TIP3   OH2 9512   0.341   0.205   4.305
 3183TIP3    H1 9513   0.284   0.174   4.235
 3183TIP3    H2 9514   0.352   0.130   4.363
 3184TIP3   OH2 9515   0.732   0.551   3.154
 3184TIP3    H1 9516   0.814   0.560   3.202
 3184TIP3    H2 9517   0.678   0.494   3.209
 3185TIP3   OH2 9518   4.417   2.703   0.940
 3185TIP3    H1 9519   4.475   2.778   0.926
 3185TIP3    H2 9520   4.423   2.685   1.034
 3186TIP3   OH2 9521   6.143   1.949   2.683
 3186TIP3    H1 9522   6.169   1.951   2.591
 3186TIP3    H2 9523   6.222   1.977   2.730
 3187TIP3   OH2 9524   2.893   4.731   2.857
 3187TIP3    H1 9525   2.894   4.636   2.867
 3187TIP3    H2 9526   2.985   4.757   2.857
 3188TIP3   OH2 9527   0.366   6.195   5.618
 3188TIP3    H1 9528   0.288   6.187   5.674
 3188TIP3    H2 9529   0.406   6.108   5.620
 3189TIP3   OH2 9530   3.426   5.965   4.833
 3189TIP3    H1 9531   3.504   6.016   4.810
 3189TIP3    H2 9532   3.368   5.976   4.758
 3190TIP3   OH2 9533   5.253   6.018   3.458
 3190TIP3    H1 9534   5.229   5.949   3.521
 3190TIP3    H2 9535   5.297   6.084   3.511
 3191TIP3   OH2 9536   6.507   5.691   0.851
 3191TIP3    H1 9537   6.583   5.737   0.814
 3191TIP3    H2 9538   6.523   5.690   0.945
 3192TIP3   OH2 9539   3.210   0.151   3.035
 3192TIP3    H1 9540   3.224   0.056   3.033
 3192TIP3    H2 9541   3.116   0.160   3.052
 3193TIP3   OH2 9542   4.736   4.142   5.099
 3193TIP3    H1 9543   4.714   4.060   5.144
 3193TIP3    H2 9544   4.792   4.189   5.160
 3194TIP3   OH2 9545   4.948   3.393   4.093
 3194TIP3    H1 9546   4.942   3.313   4.145
 3194TIP3    H2 9547   4.991   3.456   4.150
 3195TIP3   OH2 9548   5.162   3.493   1.194
 3195TIP3    H1 9549   5.128   3.532   1.275
 3195TIP3    H2 9550   5.249   3.531   1.184
 3196TIP3   OH2 9551   5.939   3.440   4.317
 3196TIP3    H1 9552   6.021   3.477   4.285
 3196TIP3    H2 9553   5.905   3.389   4.244
 3197TIP3   OH2 9554   5.598   3.968   0.512
 3197TIP3    H1 9555   5.550   3.894   0.474
 3197TIP3    H2 9556   5.677   3.929   0.550
 3198TIP3   OH2 9557   2.133   5.677   0.353
 3198TIP3    H1 9558   2.188   5.710   0.423
 3198TIP3    H2 9559   2.165   5.588   0.337
 3199TIP3   OH2 9560   0.663   3.450   0.651
 3199TIP3    H1 9561   0.679   3.472   0.743
 3199TIP3    H2 9562   0.600   3.516   0.622
 3200TIP3   OH2 9563   0.056   1.031   4.660
 3200TIP3    H1 9564  -0.019   1.084   4.633
 3200TIP3    H2 9565   0.036   0.943   4.629
 3201TIP3   OH2 9566   0.603   2.593   5.303
 3201TIP3    H1 9567   0.650   2.641   5.235
 3201TIP3    H2 9568   0.527   2.555   5.259
 3202TIP3   OH2 9569   5.927   4.224   4.788
 3202TIP3    H1 9570   5.858   4.185   4.842
 3202TIP3    H2 9571   6.000   4.237   4.849
 3203TIP3   OH2 9572   5.916   2.898   5.320
 3203TIP3    H1 9573   5.917   2.897   5.416
 3203TIP3    H2 9574   6.009   2.896   5.296
 3204TIP3   OH2 9575   5.411   0.790   1.992
 3204TIP3    H1 9576   5.399   0.766   2.084
 3204TIP3    H2 9577   5.335   0.753   1.947
 3205TIP3   OH2 9578   2.921   3.976   5.299
 3205TIP3    H1 9579   2.894   3.884   5.291
 3205TIP3    H2 9580   3.001   3.982   5.247
 3206TIP3   OH2 9581   5.752   1.032   3.730
 3206TIP3    H1 9582   5.778   1.053   3.640
 3206TIP3    H2 9583   5.709   0.947   3.723
 3207TIP3   OH2 9584   4.384   4.791   0.074
 3207TIP3    H1 9585   4.382   4.696   0.084
 3207TIP3    H2 9586   4.478   4.812   0.066
 3208TIP3   OH2 9587   3.960   2.211   2.173
 3208TIP3    H1 9588   4.039   2.257   2.144
 3208TIP3    H2 9589   3.904   2.281   2.207
 3209TIP3   OH2 9590   2.219   3.063   0.327
 3209TIP3    H1 9591   2.252   2.981   0.289
 3209TIP3    H2 9592   2.274   3.131   0.288
 3210TIP3   OH2 9593   2.074   2.043   1.506
 3210TIP3    H1 9594   2.140   1.976   1.522
 3210TIP3    H2 9595   2.042   2.024   1.418
 3211TIP3   OH2 9596   1.061   3.339   0.777
 3211TIP3    H1 9597   1.042   3.420   0.823
 3211TIP3    H2 9598   1.142   3.356   0.730
 3212TIP3   OH2 9599   1.723   4.564   1.738
 3212TIP3    H1 9600   1.797   4.556   1.679
 3212TIP3    H2 9601   1.681   4.478   1.737
 3213TIP3   OH2 9602   6.961   3.002   3.900
 3213TIP3    H1 9603   6.903   2.986   3.826
 3213TIP3    H2 9604   7.013   2.922   3.907
 3214TIP3   OH2 9605   0.725   1.870   5.578
 3214TIP3    H1 9606   0.707   1.963   5.587
 3214TIP3    H2 9607   0.817   1.866   5.551
 3215TIP3   OH2 9608   6.364   2.213   5.373
 3215TIP3    H1 9609   6.390   2.138   5.426
 3215TIP3    H2 9610   6.371   2.183   5.283
 3216TIP3   OH2 9611   6.465   2.449   0.083
 3216TIP3    H1 9612   6.440   2.359   0.064
 3216TIP3    H2 9613   6.415   2.501   0.020
 3217TIP3   OH2 9614   2.943   3.770   1.141
 3217TIP3    H1 9615   2.874   3.750   1.205
 3217TIP3    H2 9616   3.022   3.780   1.194
 3218TIP3   OH2 9617   2.571   5.965   3.518
 3218TIP3    H1 9618   2.645   6.021   3.494
 3218TIP3    H2 9619   2.503   5.987   3.455
 3219TIP3   OH2 9620   1.115   6.322   3.515
 3219TIP3    H1 9621   1.073   6.239   3.494
 3219TIP3    H2 9622   1.122   6.322   3.611
 3220TIP3   OH2 9623   1.073   5.536   4.661
 3220TIP3    H1 9624   1.054   5.444   4.643
 3220TIP3    H2 9625   0.987   5.577   4.670
 3221TIP3   OH2 9626   3.491   0.828   3.630
 3221TIP3    H1 9627   3.475   0.769   3.703
 3221TIP3    H2 9628   3.461   0.780   3.553
 3222TIP3   OH2 9629   5.116   4.693   5.054
 3222TIP3    H1 9630   5.093   4.688   5.146
 3222TIP3    H2 9631   5.036   4.721   5.010
 3223TIP3   OH2 9632   1.759   6.661   4.272
 3223TIP3    H1 9633   1.696   6.714   4.224
 3223TIP3    H2 9634   1.806   6.723   4.327
 3224TIP3   OH2 9635   2.363   1.672   0.330
 3224TIP3    H1 9636   2.386   1.727   0.405
 3224TIP3    H2 9637   2.378   1.727   0.254
 3225TIP3   OH2 9638   0.651   2.971   2.519
 3225TIP3    H1 9639   0.607   3.027   2.456
 3225TIP3    H2 9640   0.743   2.996   2.513
 3226TIP3   OH2 9641   2.431   3.686   1.991
 3226TIP3    H1 9642   2.370   3.759   1.982
 3226TIP3    H2 9643   2.444   3.678   2.086
 3227TIP3   OH2 9644   5.996   6.487   2.836
 3227TIP3    H1 9645   6.089   6.499   2.856
 3227TIP3    H2 9646   5.954   6.567   2.866
 3228TIP3   OH2 9647   4.144   1.290   3.843
 3228TIP3    H1 9648   4.080   1.260   3.908
 3228TIP3    H2 9649   4.093   1.343   3.782
 3229TIP3   OH2 9650   0.884   2.881   4.936
 3229TIP3    H1 9651   0.824   2.808   4.921
 3229TIP3    H2 9652   0.892   2.924   4.851
 3230TIP3   OH2 9653   4.435   3.285   0.478
 3230TIP3    H1 9654   4.378   3.361   0.468
 3230TIP3    H2 9655   4.503   3.313   0.539
 3231TIP3   OH2 9656   2.395   3.849   3.798
 3231TIP3    H1 9657   2.396   3.924   3.857
 3231TIP3    H2 9658   2.420   3.885   3.713
 3232TIP3   OH2 9659   6.078   0.875   5.399
 3232TIP3    H1 9660   6.066   0.970   5.405
 3232TIP3    H2 9661   5.990   0.840   5.406
 3233TIP3   OH2 9662   6.473   0.091   3.016
 3233TIP3    H1 9663   6.423   0.100   3.097
 3233TIP3    H2 9664   6.553   0.141   3.031
 3234TIP3   OH2 9665   6.117   5.326   2.789
 3234TIP3    H1 9666   6.177   5.252   2.785
 3234TIP3    H2 9667   6.092   5.332   2.881
 3235TIP3   OH2 9668   2.530   4.437   2.752
 3235TIP3    H1 9669   2.600   4.484   2.707
 3235TIP3    H2 9670   2.457   4.437   2.691
 3236TIP3   OH2 9671   0.950   3.547   2.830
 3236TIP3    H1 9672   0.985   3.575   2.914
 3236TIP3    H2 9673   0.933   3.628   2.783
 3237TIP3   OH2 9674   6.828   4.652   3.813
 3237TIP3    H1 9675   6.750   4.690   3.854
 3237TIP3    H2 9676   6.847   4.574   3.864
 3238TIP3   OH2 9677   1.172   5.463   0.820
 3238TIP3    H1 9678   1.135   5.416   0.745
 3238TIP3    H2 9679   1.179   5.396   0.889
 3239TIP3   OH2 9680   1.824   5.651   1.522
 3239TIP3    H1 9681   1.780   5.726   1.481
 3239TIP3    H2 9682   1.874   5.611   1.451
 3240TIP3   OH2 9683   1.142   1.698   4.234
 3240TIP3    H1 9684   1.110   1.608   4.241
 3240TIP3    H2 9685   1.092   1.736   4.162
 3241TIP3   OH2 9686   0.116   2.429   5.016
 3241TIP3    H1 9687   0.033   2.478   5.017
 3241TIP3    H2 9688   0.123   2.391   5.103
 3242TIP3   OH2 9689   0.709   0.016   1.197
 3242TIP3    H1 9690   0.623   0.021   1.239
 3242TIP3    H2 9691   0.692  -0.026   1.113
 3243TIP3   OH2 9692   7.046   3.790   4.850
 3243TIP3    H1 9693   6.953   3.770   4.840
 3243TIP3    H2 9694   7.074   3.738   4.925
 3244TIP3   OH2 9695   1.411   4.239   0.311
 3244TIP3    H1 9696   1.491   4.261   0.264
 3244TIP3    H2 9697   1.410   4.144   0.316
 3245TIP3   OH2 9698   3.868   1.356   4.640
 3245TIP3    H1 9699   3.790   1.314   4.678
 3245TIP3    H2 9700   3.889   1.428   4.700
 3246TIP3   OH2 9701   4.419   3.910   5.108
 3246TIP3    H1 9702   4.338   3.860   5.122
 3246TIP3    H2 9703   4.409   3.946   5.020
 3247TIP3   OH2 9704   2.193   4.830   5.030
 3247TIP3    H1 9705   2.112   4.801   4.989
 3247TIP3    H2 9706   2.252   4.847   4.957
 3248TIP3   OH2 9707   3.795   0.225   2.888
 3248TIP3    H1 9708   3.889   0.243   2.892
 3248TIP3    H2 9709   3.766   0.266   2.806
 3249TIP3   OH2 9710   5.214   5.057   1.713
 3249TIP3    H1 9711   5.173   5.016   1.790
 3249TIP3    H2 9712   5.159   5.030   1.640
 3250TIP3   OH2 9713   1.284   3.414   1.586
 3250TIP3    H1 9714   1.272   3.481   1.654
 3250TIP3    H2 9715   1.264   3.459   1.504
 3251TIP3   OH2 9716   5.049   0.451   4.167
 3251TIP3    H1 9717   4.956   0.468   4.153
 3251TIP3    H2 9718   5.082   0.532   4.208
 3252TIP3   OH2 9719   2.478   4.602   1.034
 3252TIP3    H1 9720   2.562   4.562   1.013
 3252TIP3    H2 9721   2.484   4.691   0.999
 3253TIP3   OH2 9722   3.438   0.735   0.257
 3253TIP3    H1 9723   3.378   0.793   0.304
 3253TIP3    H2 9724   3.393   0.650   0.257
 3254TIP3   OH2 9725   2.677   3.457   5.575
 3254TIP3    H1 9726   2.666   3.541   5.620
 3254TIP3    H2 9727   2.589   3.419   5.573
 3255TIP3   OH2 9728   6.922   3.199   3.534
 3255TIP3    H1 9729   6.904   3.105   3.532
 3255TIP3    H2 9730   6.900   3.225   3.624
 3256TIP3   OH2 9731   1.921   0.904   3.996
 3256TIP3    H1 9732   1.841   0.904   4.050
 3256TIP3    H2 9733   1.902   0.968   3.926
 3257TIP3   OH2 9734   3.254   4.814   5.265
 3257TIP3    H1 9735   3.186   4.824   5.198
 3257TIP3    H2 9736   3.309   4.742   5.233
 3258TIP3   OH2 9737   4.737   5.272   4.617
 3258TIP3    H1 9738   4.731   5.363   4.589
 3258TIP3    H2 9739   4.772   5.226   4.540
 3259TIP3   OH2 9740   6.374   5.085   0.363
 3259TIP3    H1 9741   6.457   5.079   0.410
 3259TIP3    H2 9742   6.394   5.054   0.275
 3260TIP3   OH2 9743   0.730   0.711   1.940
 3260TIP3    H1 9744   0.821   0.719   1.909
 3260TIP3    H2 9745   0.719   0.618   1.957
 3261TIP3   OH2 9746   5.255   4.261   5.847
 3261TIP3    H1 9747   5.294   4.349   5.844
 3261TIP3    H2 9748   5.330   4.202   5.852
 3262TIP3   OH2 9749   7.045   6.189   0.844
 3262TIP3    H1 9750   7.047   6.222   0.934
 3262TIP3    H2 9751   7.117   6.235   0.801
 3263TIP3   OH2 9752   4.709   6.118   4.802
 3263TIP3    H1 9753   4.624   6.161   4.808
 3263TIP3    H2 9754   4.741   6.116   4.892
 3264TIP3   OH2 9755   3.212   5.480   4.595
 3264TIP3    H1 9756   3.271   5.554   4.606
 3264TIP3    H2 9757   3.148   5.509   4.529
 3265TIP3   OH2 9758   4.249   2.966   2.599
 3265TIP3    H1 9759   4.163   3.006   2.609
 3265TIP3    H2 9760   4.278   2.995   2.512
 3266TIP3   OH2 9761   3.660   5.276   3.798
 3266TIP3    H1 9762   3.569   5.250   3.810
 3266TIP3    H2 9763   3.703   5.250   3.879
 3267TIP3   OH2 9764   5.840   1.355   0.455
 3267TIP3    H1 9765   5.769   1.291   0.460
 3267TIP3    H2 9766   5.826   1.399   0.371
 3268TIP3   OH2 9767   6.267   1.804   3.611
 3268TIP3    H1 9768   6.172   1.790   3.611
 3268TIP3    H2 9769   6.297   1.761   3.691
 3269TIP3   OH2 9770   0.739   0.672   5.032
 3269TIP3    H1 9771   0.750   0.767   5.025
 3269TIP3    H2 9772   0.730   0.656   5.125
 3270TIP3   OH2 9773   3.295   6.497   4.657
 3270TIP3    H1 9774   3.280   6.583   4.618
 3270TIP3    H2 9775   3.349   6.451   4.593
 3271TIP3   OH2 9776   5.823   1.475   3.454
 3271TIP3    H1 9777   5.849   1.564   3.479
 3271TIP3    H2 9778   5.745   1.458   3.505
 3272TIP3   OH2 9779   3.843   2.449   3.935
 3272TIP3    H1 9780   3.779   2.435   3.865
 3272TIP3    H2 9781   3.903   2.374   3.928
 3273TIP3   OH2 9782   1.920   3.211   0.733
 3273TIP3    H1 9783   1.960   3.174   0.654
 3273TIP3    H2 9784   1.899   3.134   0.787
 3274TIP3   OH2 9785   0.211   6.227   1.947
 3274TIP3    H1 9786   0.199   6.132   1.942
 3274TIP3    H2 9787   0.254   6.251   1.865
 3275TIP3   OH2 9788   0.255   6.679   3.771
 3275TIP3    H1 9789   0.318   6.687   3.699
 3275TIP3    H2 9790   0.294   6.614   3.830
 3276TIP3   OH2 9791   5.237   5.501   0.602
 3276TIP3    H1 9792   5.195   5.558   0.667
 3276TIP3    H2 9793   5.229   5.549   0.520
 3277TIP3   OH2 9794   6.685   3.280   5.524
 3277TIP3    H1 9795   6.691   3.257   5.431
 3277TIP3    H2 9796   6.687   3.196   5.570
 3278TIP3   OH2 9797   5.607   0.024   1.511
 3278TIP3    H1 9798   5.616   0.099   1.453
 3278TIP3    H2 9799   5.588   0.062   1.597
 3279TIP3   OH2 9800   5.054   0.547   0.485
 3279TIP3    H1 9801   5.076   0.471   0.430
 3279TIP3    H2 9802   4.982   0.517   0.539
 3280TIP3   OH2 9803   4.545   4.119   2.601
 3280TIP3    H1 9804   4.566   4.125   2.508
 3280TIP3    H2 9805   4.614   4.168   2.645
 3281TIP3   OH2 9806   6.136   6.184   5.534
 3281TIP3    H1 9807   6.042   6.199   5.547
 3281TIP3    H2 9808   6.141   6.112   5.471
 3282TIP3   OH2 9809   5.315   2.910   2.075
 3282TIP3    H1 9810   5.356   2.960   2.004
 3282TIP3    H2 9811   5.244   2.966   2.106
 3283TIP3   OH2 9812   0.645   5.978   2.797
 3283TIP3    H1 9813   0.635   6.073   2.785
 3283TIP3    H2 9814   0.684   5.948   2.715
 3284TIP3   OH2 9815   3.791   6.525   2.978
 3284TIP3    H1 9816   3.885   6.512   2.973
 3284TIP3    H2 9817   3.770   6.582   2.904
 3285TIP3   OH2 9818   7.067   0.562   5.594
 3285TIP3    H1 9819   7.112   0.534   5.674
 3285TIP3    H2 9820   7.128   0.542   5.523
 3286TIP3   OH2 9821   1.119   3.883   0.336
 3286TIP3    H1 9822   1.111   3.851   0.247
 3286TIP3    H2 9823   1.210   3.912   0.344
 3287TIP3   OH2 9824   2.882   3.407   2.487
 3287TIP3    H1 9825   2.932   3.487   2.501
 3287TIP3    H2 9826   2.902   3.353   2.564
 3288TIP3   OH2 9827   1.028   3.586   3.279
 3288TIP3    H1 9828   1.113   3.624   3.302
 3288TIP3    H2 9829   1.048   3.513   3.221
 3289TIP3   OH2 9830   4.494   4.113   0.472
 3289TIP3    H1 9831   4.472   4.024   0.497
 3289TIP3    H2 9832   4.448   4.127   0.389
 3290TIP3   OH2 9833   2.414   5.450   3.915
 3290TIP3    H1 9834   2.382   5.540   3.923
 3290TIP3    H2 9835   2.335   5.399   3.897
 3291TIP3   OH2 9836   1.742   1.740   2.987
 3291TIP3    H1 9837   1.657   1.701   2.965
 3291TIP3    H2 9838   1.741   1.826   2.943
 3292TIP3   OH2 9839   2.372   4.502   1.569
 3292TIP3    H1 9840   2.386   4.431   1.507
 3292TIP3    H2 9841   2.436   4.569   1.544
 3293TIP3   OH2 9842   2.210   5.110   0.539
 3293TIP3    H1 9843   2.258   5.192   0.549
 3293TIP3    H2 9844   2.233   5.079   0.452
 3294TIP3   OH2 9845   3.930   2.917   2.200
 3294TIP3    H1 9846   3.999   2.981   2.215
 3294TIP3    H2 9847   3.975   2.833   2.194
 3295TIP3   OH2 9848   5.886   5.165   4.631
 3295TIP3    H1 9849   5.976   5.156   4.600
 3295TIP3    H2 9850   5.856   5.247   4.593
 3296TIP3   OH2 9851   1.226   4.616   2.038
 3296TIP3    H1 9852   1.244   4.665   1.958
 3296TIP3    H2 9853   1.136   4.640   2.061
 3297TIP3   OH2 9854   0.565   3.259   3.936
 3297TIP3    H1 9855   0.564   3.211   3.853
 3297TIP3    H2 9856   0.474   3.281   3.953
 3298TIP3   OH2 9857   5.164   3.422   5.710
 3298TIP3    H1 9858   5.214   3.340   5.706
 3298TIP3    H2 9859   5.165   3.455   5.620
 3299TIP3   OH2 9860   0.577   2.166   3.693
 3299TIP3    H1 9861   0.509   2.101   3.677
 3299TIP3    H2 9862   0.660   2.118   3.687
 3300TIP3   OH2 9863   1.354   0.191   2.885
 3300TIP3    H1 9864   1.334   0.106   2.844
 3300TIP3    H2 9865   1.269   0.233   2.894
 3301TIP3   OH2 9866   0.656   5.078   1.827
 3301TIP3    H1 9867   0.664   5.107   1.736
 3301TIP3    H2 9868   0.564   5.092   1.849
 3302TIP3   OH2 9869   3.232   2.708   3.018
 3302TIP3    H1 9870   3.227   2.690   3.112
 3302TIP3    H2 9871   3.278   2.792   3.011
 3303TIP3   OH2 9872   0.602   2.371   5.425
 3303TIP3    H1 9873   0.600   2.337   5.335
 3303TIP3    H2 9874   0.606   2.466   5.414
 3304TIP3   OH2 9875   6.935   1.631   1.561
 3304TIP3    H1 9876   6.998   1.567   1.530
 3304TIP3    H2 9877   6.851   1.603   1.523
 3305TIP3   OH2 9878   3.687   1.900   0.947
 3305TIP3    H1 9879   3.653   1.987   0.924
 3305TIP3    H2 9880   3.745   1.877   0.874
 3306TIP3   OH2 9881   6.936   5.799   4.117
 3306TIP3    H1 9882   6.878   5.722   4.114
 3306TIP3    H2 9883   6.972   5.805   4.028
 3307TIP3   OH2 9884   3.074   2.474   2.130
 3307TIP3    H1 9885   3.142   2.416   2.094
 3307TIP3    H2 9886   3.121   2.555   2.149
 3308TIP3   OH2 9887   4.245   5.150   4.410
 3308TIP3    H1 9888   4.259   5.190   4.324
 3308TIP3    H2 9889   4.309   5.080   4.415
 3309TIP3   OH2 9890   1.339   6.584   1.551
 3309TIP3    H1 9891   1.401   6.540   1.609
 3309TIP3    H2 9892   1.394   6.635   1.492
 3310TIP3   OH2 9893   2.191   5.879   2.790
 3310TIP3    H1 9894   2.192   5.880   2.694
 3310TIP3    H2 9895   2.098   5.872   2.813
 3311TIP3   OH2 9896   5.266   3.816   4.065
 3311TIP3    H1 9897   5.315   3.877   4.010
 3311TIP3    H2 9898   5.174   3.840   4.050
 3312TIP3   OH2 9899   3.827   0.831   0.801
 3312TIP3    H1 9900   3.914   0.873   0.800
 3312TIP3    H2 9901   3.843   0.746   0.843
 3313TIP3   OH2 9902   7.159   3.963   5.697
 3313TIP3    H1 9903   7.249   3.994   5.700
 3313TIP3    H2 9904   7.149   3.928   5.609
 3314TIP3   OH2 9905   4.213   3.486   0.897
 3314TIP3    H1 9906   4.157   3.408   0.899
 3314TIP3    H2 9907   4.279   3.470   0.963
 3315TIP3   OH2 9908   4.366   2.029   2.383
 3315TIP3    H1 9909   4.349   1.968   2.455
 3315TIP3    H2 9910   4.391   1.973   2.309
 3316TIP3   OH2 9911   3.711   3.703   2.616
 3316TIP3    H1 9912   3.762   3.764   2.563
 3316TIP3    H2 9913   3.727   3.618   2.575
 3317TIP3   OH2 9914   6.761   5.939   5.219
 3317TIP3    H1 9915   6.824   5.878   5.258
 3317TIP3    H2 9916   6.741   5.901   5.133
 3318TIP3   OH2 9917   3.087   4.760   3.422
 3318TIP3    H1 9918   3.055   4.803   3.343
 3318TIP3    H2 9919   3.045   4.808   3.494
 3319TIP3   OH2 9920   2.499   6.358   3.534
 3319TIP3    H1 9921   2.422   6.334   3.585
 3319TIP3    H2 9922   2.530   6.276   3.495
 3320TIP3   OH2 9923   5.495   3.476   3.579
 3320TIP3    H1 9924   5.411   3.433   3.595
 3320TIP3    H2 9925   5.530   3.432   3.502
 3321TIP3   OH2 9926   4.660   4.533   3.528
 3321TIP3    H1 9927   4.615   4.580   3.459
 3321TIP3    H2 9928   4.687   4.601   3.590
 3322TIP3   OH2 9929   1.831   0.778   2.232
 3322TIP3    H1 9930   1.807   0.691   2.199
 3322TIP3    H2 9931   1.879   0.760   2.313
 3323TIP3   OH2 9932   0.235   2.535   2.970
 3323TIP3    H1 9933   0.204   2.572   2.887
 3323TIP3    H2 9934   0.325   2.509   2.953
 3324TIP3   OH2 9935   5.714   1.853   2.500
 3324TIP3    H1 9936   5.743   1.918   2.565
 3324TIP3    H2 9937   5.654   1.900   2.443
 3325TIP3   OH2 9938   1.747   2.380   5.461
 3325TIP3    H1 9939   1.739   2.404   5.553
 3325TIP3    H2 9940   1.770   2.288   5.462
 3326TIP3   OH2 9941   6.235   5.427   0.515
 3326TIP3    H1 9942   6.148   5.397   0.541
 3326TIP3    H2 9943   6.296   5.367   0.558
 3327TIP3   OH2 9944   2.408   0.723   2.062
 3327TIP3    H1 9945   2.355   0.713   1.984
 3327TIP3    H2 9946   2.474   0.653   2.055
 3328TIP3   OH2 9947   2.246   4.802   0.933
 3328TIP3    H1 9948   2.228   4.880   0.881
 3328TIP3    H2 9949   2.205   4.820   1.018
 3329TIP3   OH2 9950   4.928   3.028   0.759
 3329TIP3    H1 9951   4.894   2.939   0.754
 3329TIP3    H2 9952   4.937   3.046   0.852
 3330TIP3   OH2 9953   1.082   4.237   1.772
 3330TIP3    H1 9954   1.057   4.327   1.796
 3330TIP3    H2 9955   1.097   4.241   1.678
 3331TIP3   OH2 9956   0.433   3.441   2.218
 3331TIP3    H1 9957   0.434   3.522   2.167
 3331TIP3    H2 9958   0.346   3.439   2.258
 3332TIP3   OH2 9959   5.863  -0.027   2.383
 3332TIP3    H1 9960   5.851   0.007   2.472
 3332TIP3    H2 9961   5.795   0.016   2.332
 3333TIP3   OH2 9962   6.779   2.533   3.042
 3333TIP3    H1 9963   6.775   2.473   3.117
 3333TIP3    H2 9964   6.856   2.505   2.992
 3334TIP3   OH2 9965   5.812   4.463   4.784
 3334TIP3    H1 9966   5.840   4.526   4.718
 3334TIP3    H2 9967   5.842   4.378   4.750
 3335TIP3   OH2 9968   4.478   5.389   1.895
 3335TIP3    H1 9969   4.421   5.345   1.831
 3335TIP3    H2 9970   4.567   5.375   1.862
 3336TIP3   OH2 9971   0.332   4.442   2.288
 3336TIP3    H1 9972   0.346   4.441   2.382
 3336TIP3    H2 9973   0.382   4.519   2.257
 3337TIP3   OH2 9974   5.654   0.359   0.158
 3337TIP3    H1 9975   5.743   0.345   0.128
 3337TIP3    H2 9976   5.663   0.410   0.239
 3338TIP3   OH2 9977   4.565   1.759   4.131
 3338TIP3    H1 9978   4.657   1.769   4.107
 3338TIP3    H2 9979   4.550   1.664   4.130
 3339TIP3   OH2 9980   5.439   6.650   4.815
 3339TIP3    H1 9981   5.424   6.619   4.726
 3339TIP3    H2 9982   5.351   6.669   4.848
 3340TIP3   OH2 9983   0.007   6.644   2.505
 3340TIP3    H1 9984   0.100   6.668   2.498
 3340TIP3    H2 9985   0.004   6.583   2.579
 3341TIP3   OH2 9986   6.100   4.352   5.386
 3341TIP3    H1 9987   6.010   4.345   5.355
 3341TIP3    H2 9988   6.091   4.369   5.480
 3342TIP3   OH2 9989   6.202   5.924   2.148
 3342TIP3    H1 9990   6.244   5.847   2.186
 3342TIP3    H2 9991   6.236   5.929   2.058
 3343TIP3   OH2 9992   3.459   2.326   0.201
 3343TIP3    H1 9993   3.431   2.258   0.262
 3343TIP3    H2 9994   3.401   2.400   0.220
 3344TIP3   OH2 9995   0.757   1.752   0.188
 3344TIP3    H1 9996   0.742   1.843   0.163
 3344TIP3    H2 9997   0.832   1.754   0.246
 3345TIP3   OH2 9998   2.094   1.276   1.715
 3345TIP3    H1 9999   2.037   1.291   1.639
 3345TIP3    H210000   2.148   1.355   1.720
 3346TIP3   OH210001   0.968   4.170   1.418
 3346TIP3    H110002   0.922   4.198   1.497
 3346TIP3    H210003   0.934   4.226   1.349
 3347TIP3   OH210004   2.017   6.025   3.627
 3347TIP3    H110005   1.960   6.008   3.552
 3347TIP3    H210006   2.071   5.947   3.635
 3348TIP3   OH210007   6.886   2.835   4.263
 3348TIP3    H110008   6.793   2.816   4.264
 3348TIP3    H210009   6.897   2.902   4.196
 3349TIP3   OH210010   4.393   0.329   4.020
 3349TIP3    H110011   4.433   0.295   4.101
 3349TIP3    H210012   4.300   0.336   4.041
 3350TIP3   OH210013   6.813   6.403   5.164
 3350TIP3    H110014   6.746   6.408   5.232
 3350TIP3    H210015   6.864   6.484   5.173
 3351TIP3   OH210016   1.526   0.678   5.163
 3351TIP3    H110017   1.520   0.587   5.194
 3351TIP3    H210018   1.563   0.671   5.075
 3352TIP3   OH210019   5.416   0.969   3.734
 3352TIP3    H110020   5.330   0.945   3.698
 3352TIP3    H210021   5.407   1.062   3.756
 3353TIP3   OH210022   5.248   4.307   1.914
 3353TIP3    H110023   5.301   4.278   1.839
 3353TIP3    H210024   5.311   4.348   1.973
 3354TIP3   OH210025   1.791   4.676   0.341
 3354TIP3    H110026   1.817   4.590   0.308
 3354TIP3    H210027   1.740   4.658   0.419
 3355TIP3   OH210028   1.888   3.307   3.618
 3355TIP3    H110029   1.963   3.365   3.624
 3355TIP3    H210030   1.868   3.302   3.524
 3356TIP3   OH210031   0.203   3.638   5.805
 3356TIP3    H110032   0.292   3.640   5.842
 3356TIP3    H210033   0.155   3.579   5.862
 3357TIP3   OH210034   0.202   1.763   4.204
 3357TIP3    H110035   0.255   1.796   4.131
 3357TIP3    H210036   0.256   1.780   4.281
 3358TIP3   OH210037   4.808   2.777   0.797
 3358TIP3    H110038   4.751   2.795   0.722
 3358TIP3    H210039   4.784   2.689   0.825
 3359TIP3   OH210040   4.409   4.519   5.324
 3359TIP3    H110041   4.455   4.480   5.250
 3359TIP3    H210042   4.342   4.575   5.284
 3360TIP3   OH210043   2.732   6.453   5.375
 3360TIP3    H110044   2.719   6.408   5.292
 3360TIP3    H210045   2.822   6.431   5.400
 3361TIP3   OH210046   4.115   4.070   2.492
 3361TIP3    H110047   4.079   4.095   2.406
 3361TIP3    H210048   4.187   4.011   2.471
 3362TIP3   OH210049   5.936   3.022   1.317
 3362TIP3    H110050   5.870   2.986   1.257
 3362TIP3    H210051   6.019   2.988   1.285
 3363TIP3   OH210052   5.347   1.018   0.690
 3363TIP3    H110053   5.378   1.077   0.621
 3363TIP3    H210054   5.391   1.048   0.769
 3364TIP3   OH210055   1.297   4.693   1.791
 3364TIP3    H110056   1.337   4.641   1.721
 3364TIP3    H210057   1.362   4.762   1.809
 3365TIP3   OH210058   2.077   1.735   0.425
 3365TIP3    H110059   2.135   1.660   0.415
 3365TIP3    H210060   2.028   1.717   0.506
 3366TIP3   OH210061   2.665   3.261   0.304
 3366TIP3    H110062   2.703   3.343   0.274
 3366TIP3    H210063   2.649   3.274   0.398
 3367TIP3   OH210064   1.473   6.438   4.168
 3367TIP3    H110065   1.438   6.513   4.214
 3367TIP3    H210066   1.534   6.476   4.104
 3368TIP3   OH210067   2.087   3.519   2.138
 3368TIP3    H110068   2.077   3.555   2.226
 3368TIP3    H210069   2.178   3.487   2.135
 3369TIP3   OH210070   0.681   1.329   1.277
 3369TIP3    H110071   0.652   1.358   1.191
 3369TIP3    H210072   0.601   1.320   1.328
 3370TIP3   OH210073   6.008   4.397   0.553
 3370TIP3    H110074   6.077   4.461   0.537
 3370TIP3    H210075   5.966   4.384   0.468
 3371TIP3   OH210076   4.425   5.473   0.641
 3371TIP3    H110077   4.435   5.378   0.631
 3371TIP3    H210078   4.410   5.485   0.735
 3372TIP3   OH210079   0.703   6.822   0.784
 3372TIP3    H110080   0.619   6.845   0.743
 3372TIP3    H210081   0.756   6.788   0.712
 3373TIP3   OH210082   6.897   0.082   4.155
 3373TIP3    H110083   6.891   0.027   4.077
 3373TIP3    H210084   6.862   0.167   4.127
 3374TIP3   OH210085   5.469   0.286   0.711
 3374TIP3    H110086   5.547   0.236   0.732
 3374TIP3    H210087   5.502   0.367   0.673
 3375TIP3   OH210088   4.167   1.619   2.863
 3375TIP3    H110089   4.169   1.523   2.862
 3375TIP3    H210090   4.175   1.642   2.955
 3376TIP3   OH210091   6.893   1.556   3.521
 3376TIP3    H110092   6.923   1.636   3.477
 3376TIP3    H210093   6.872   1.585   3.610
 3377TIP3   OH210094   2.139   4.990   2.791
 3377TIP3    H110095   2.108   5.013   2.879
 3377TIP3    H210096   2.201   5.059   2.769
 3378TIP3   OH210097   6.212   5.247  -0.028
 3378TIP3    H110098   6.193   5.216   0.060
 3378TIP3    H210099   6.262   5.327  -0.015
 3379TIP3   OH210100   6.433   6.418   0.098
 3379TIP3    H110101   6.426   6.354   0.169
 3379TIP3    H210102   6.476   6.494   0.138
 3380TIP3   OH210103   4.689   0.358   3.728
 3380TIP3    H110104   4.656   0.419   3.794
 3380TIP3    H210105   4.681   0.405   3.645
 3381TIP3   OH210106   5.731   4.671   0.748
 3381TIP3    H110107   5.696   4.759   0.737
 3381TIP3    H210108   5.823   4.678   0.723
 3382TIP3   OH210109   0.200   0.872   3.197
 3382TIP3    H110110   0.171   0.843   3.110
 3382TIP3    H210111   0.127   0.924   3.230
 3383TIP3   OH210112   3.147   4.449   0.924
 3383TIP3    H110113   3.109   4.367   0.891
 3383TIP3    H210114   3.121   4.515   0.859
 3384TIP3   OH210115   0.154   3.460   2.321
 3384TIP3    H110116   0.196   3.388   2.368
 3384TIP3    H210117   0.108   3.510   2.389
 3385TIP3   OH210118   6.888   2.129   0.934
 3385TIP3    H110119   6.800   2.165   0.926
 3385TIP3    H210120   6.940   2.200   0.971
 3386TIP3   OH210121   4.308   6.452   0.277
 3386TIP3    H110122   4.404   6.445   0.279
 3386TIP3    H210123   4.278   6.394   0.346
 3387TIP3   OH210124   4.880   5.299   3.352
 3387TIP3    H110125   4.786   5.320   3.351
 3387TIP3    H210126   4.905   5.299   3.259
 3388TIP3   OH210127   3.381   5.783   0.985
 3388TIP3    H110128   3.378   5.759   1.077
 3388TIP3    H210129   3.378   5.699   0.938
 3389TIP3   OH210130   3.869   6.246   5.639
 3389TIP3    H110131   3.939   6.309   5.624
 3389TIP3    H210132   3.867   6.234   5.734
 3390TIP3   OH210133   5.469   3.791   5.099
 3390TIP3    H110134   5.486   3.884   5.110
 3390TIP3    H210135   5.427   3.784   5.013
 3391TIP3   OH210136   6.137   3.931   4.447
 3391TIP3    H110137   6.129   4.015   4.492
 3391TIP3    H210138   6.217   3.939   4.395
 3392TIP3   OH210139   1.220   2.186   1.729
 3392TIP3    H110140   1.148   2.205   1.668
 3392TIP3    H210141   1.293   2.238   1.698
 3393TIP3   OH210142   6.909   3.233   0.945
 3393TIP3    H110143   6.997   3.198   0.961
 3393TIP3    H210144   6.913   3.323   0.978
 3394TIP3   OH210145   0.444   1.754   1.861
 3394TIP3    H110146   0.491   1.672   1.877
 3394TIP3    H210147   0.453   1.804   1.942
 3395TIP3   OH210148   0.731   1.683   0.538
 3395TIP3    H110149   0.698   1.601   0.501
 3395TIP3    H210150   0.676   1.751   0.498
 3396TIP3   OH210151   0.291   6.035   3.134
 3396TIP3    H110152   0.243   5.955   3.114
 3396TIP3    H210153   0.285   6.044   3.229
 3397TIP3   OH210154   0.245   1.269   3.328
 3397TIP3    H110155   0.285   1.356   3.328
 3397TIP3    H210156   0.162   1.280   3.281
 3398TIP3   OH210157   2.923   0.837   2.512
 3398TIP3    H110158   2.878   0.902   2.566
 3398TIP3    H210159   2.870   0.831   2.433
 3399TIP3   OH210160   4.784   1.536   4.309
 3399TIP3    H110161   4.820   1.624   4.320
 3399TIP3    H210162   4.829   1.501   4.233
 3400TIP3   OH210163   4.188   1.908   4.361
 3400TIP3    H110164   4.254   1.878   4.297
 3400TIP3    H210165   4.162   1.994   4.329
 3401TIP3   OH210166   1.930   2.869   0.138
 3401TIP3    H110167   1.854   2.891   0.084
 3401TIP3    H210168   1.894   2.818   0.211
 3402TIP3   OH210169   1.967   5.608   2.798
 3402TIP3    H110170   1.958   5.635   2.890
 3402TIP3    H210171   1.908   5.667   2.751
 3403TIP3   OH210172   6.955   1.669   0.073
 3403TIP3    H110173   6.890   1.669   0.003
 3403TIP3    H210174   7.017   1.738   0.049
 3404TIP3   OH210175   3.743   5.687   2.593
 3404TIP3    H110176   3.807   5.680   2.522
 3404TIP3    H210177   3.663   5.718   2.550
 3405TIP3   OH210178   3.374   6.235   2.524
 3405TIP3    H110179   3.366   6.316   2.473
 3405TIP3    H210180   3.456   6.244   2.572
 3406TIP3   OH210181   0.305   2.383   1.173
 3406TIP3    H110182   0.393   2.380   1.135
 3406TIP3    H210183   0.302   2.465   1.221
 3407TIP3   OH210184   1.630   5.457   1.619
 3407TIP3    H110185   1.650   5.480   1.710
 3407TIP3    H210186   1.685   5.516   1.567
 3408TIP3   OH210187   3.273   4.573   1.990
 3408TIP3    H110188   3.234   4.622   1.917
 3408TIP3    H210189   3.219   4.494   1.997
 3409TIP3   OH210190   4.607   3.520   1.120
 3409TIP3    H110191   4.521   3.498   1.086
 3409TIP3    H210192   4.667   3.499   1.049
 3410TIP3   OH210193   5.263   4.236   2.274
 3410TIP3    H110194   5.268   4.141   2.275
 3410TIP3    H210195   5.181   4.255   2.228
 3411TIP3   OH210196   6.607   4.600   2.346
 3411TIP3    H110197   6.663   4.638   2.278
 3411TIP3    H210198   6.652   4.621   2.428
 3412TIP3   OH210199   4.047   2.293   2.685
 3412TIP3    H110200   4.057   2.371   2.631
 3412TIP3    H210201   4.097   2.312   2.764
 3413TIP3   OH210202   6.874   2.233   0.137
 3413TIP3    H110203   6.834   2.227   0.224
 3413TIP3    H210204   6.875   2.326   0.117
 3414TIP3   OH210205   0.034   4.613   1.640
 3414TIP3    H110206   0.081   4.531   1.651
 3414TIP3    H210207   0.101   4.681   1.647
 3415TIP3   OH210208   7.108   4.940   0.066
 3415TIP3    H110209   7.152   4.893   0.137
 3415TIP3    H210210   7.040   4.879   0.035
 3416TIP3   OH210211   4.543   1.993   5.284
 3416TIP3    H110212   4.489   1.982   5.206
 3416TIP3    H210213   4.591   1.911   5.291
 3417TIP3   OH210214   2.881   1.845   4.645
 3417TIP3    H110215   2.788   1.844   4.622
 3417TIP3    H210216   2.882   1.872   4.737
 3418TIP3   OH210217   0.538   2.875   2.216
 3418TIP3    H110218   0.572   2.925   2.142
 3418TIP3    H210219   0.527   2.939   2.286
 3419TIP3   OH210220   4.997   1.103   0.837
 3419TIP3    H110221   5.068   1.064   0.889
 3419TIP3    H210222   4.966   1.033   0.781
 3420TIP3   OH210223   1.536   6.336   1.526
 3420TIP3    H110224   1.590   6.257   1.523
 3420TIP3    H210225   1.496   6.342   1.439
 3421TIP3   OH210226   3.355   5.697   4.645
 3421TIP3    H110227   3.412   5.764   4.606
 3421TIP3    H210228   3.377   5.700   4.738
 3422TIP3   OH210229   6.788   5.577   4.080
 3422TIP3    H110230   6.837   5.589   3.999
 3422TIP3    H210231   6.771   5.483   4.084
 3423TIP3   OH210232   2.213   0.055   2.220
 3423TIP3    H110233   2.191   0.001   2.296
 3423TIP3    H210234   2.241  -0.007   2.153
 3424TIP3   OH210235   6.497   5.128   2.707
 3424TIP3    H110236   6.469   5.216   2.683
 3424TIP3    H210237   6.419   5.086   2.741
 3425TIP3   OH210238   1.346   0.786   3.250
 3425TIP3    H110239   1.429   0.802   3.205
 3425TIP3    H210240   1.281   0.788   3.180
 3426TIP3   OH210241   3.733   0.968   2.281
 3426TIP3    H110242   3.740   0.976   2.376
 3426TIP3    H210243   3.749   1.056   2.248
 3427TIP3   OH210244   4.445   6.112   0.323
 3427TIP3    H110245   4.399   6.154   0.395
 3427TIP3    H210246   4.470   6.183   0.264
 3428TIP3   OH210247   5.177   2.583   2.334
 3428TIP3    H110248   5.086   2.611   2.347
 3428TIP3    H210249   5.212   2.574   2.422
 3429TIP3   OH210250   5.437   5.610   0.109
 3429TIP3    H110251   5.389   5.547   0.163
 3429TIP3    H210252   5.477   5.558   0.040
 3430TIP3   OH210253   4.042   5.912   0.420
 3430TIP3    H110254   3.967   5.923   0.478
 3430TIP3    H210255   4.047   5.817   0.405
 3431TIP3   OH210256   6.204   0.667   5.019
 3431TIP3    H110257   6.286   0.699   4.981
 3431TIP3    H210258   6.138   0.685   4.952
 3432TIP3   OH210259   5.256   2.677   4.104
 3432TIP3    H110260   5.324   2.744   4.118
 3432TIP3    H210261   5.179   2.726   4.078
 3433TIP3   OH210262   2.004   2.598   5.045
 3433TIP3    H110263   1.942   2.548   5.098
 3433TIP3    H210264   1.983   2.574   4.954
 3434TIP3   OH210265   5.863   2.375   3.896
 3434TIP3    H110266   5.918   2.377   3.975
 3434TIP3    H210267   5.920   2.403   3.826
 3435TIP3   OH210268   1.008   6.311   0.313
 3435TIP3    H110269   1.006   6.286   0.406
 3435TIP3    H210270   0.981   6.231   0.267
 3436TIP3   OH210271   0.108   4.888   1.457
 3436TIP3    H110272   0.147   4.800   1.452
 3436TIP3    H210273   0.137   4.932   1.378
 3437TIP3   OH210274   1.253   3.332   0.105
 3437TIP3    H110275   1.174   3.279   0.090
 3437TIP3    H210276   1.322   3.267   0.116
 3438TIP3   OH210277   5.427   6.747   1.848
 3438TIP3    H110278   5.448   6.715   1.760
 3438TIP3    H210279   5.334   6.728   1.859
 3439TIP3   OH210280   0.334   6.272   3.521
 3439TIP3    H110281   0.266   6.320   3.474
 3439TIP3    H210282   0.383   6.340   3.568
 3440TIP3   OH210283   3.686   1.674   3.848
 3440TIP3    H110284   3.639   1.735   3.904
 3440TIP3    H210285   3.643   1.680   3.763
 3441TIP3   OH210286   4.789   0.120   4.603
 3441TIP3    H110287   4.803   0.139   4.695
 3441TIP3    H210288   4.874   0.139   4.561
 3442TIP3   OH210289   4.826   5.214   1.215
 3442TIP3    H110290   4.772   5.136   1.198
 3442TIP3    H210291   4.856   5.242   1.129
 3443TIP3   OH210292   6.428   2.296   4.746
 3443TIP3    H110293   6.397   2.231   4.809
 3443TIP3    H210294   6.520   2.311   4.769
 3444TIP3   OH210295   4.238   1.467   3.519
 3444TIP3    H110296   4.315   1.444   3.466
 3444TIP3    H210297   4.205   1.383   3.551
 3445TIP3   OH210298   2.598   4.564   1.761
 3445TIP3    H110299   2.670   4.626   1.769
 3445TIP3    H210300   2.538   4.587   1.832
 3446TIP3   OH210301   5.317   4.749   2.598
 3446TIP3    H110302   5.315   4.807   2.674
 3446TIP3    H210303   5.410   4.732   2.583
 3447TIP3   OH210304   1.386   0.195   0.761
 3447TIP3    H110305   1.345   0.263   0.708
 3447TIP3    H210306   1.468   0.174   0.715
 3448TIP3   OH210307   2.374   5.879   4.609
 3448TIP3    H110308   2.389   5.812   4.542
 3448TIP3    H210309   2.280   5.874   4.627
 3449TIP3   OH210310   6.891   3.559   0.837
 3449TIP3    H110311   6.890   3.561   0.741
 3449TIP3    H210312   6.978   3.523   0.858
 3450TIP3   OH210313   4.895   1.892   1.871
 3450TIP3    H110314   4.868   1.955   1.804
 3450TIP3    H210315   4.964   1.938   1.920
 3451TIP3   OH210316   3.992   5.575   0.970
 3451TIP3    H110317   3.983   5.647   0.908
 3451TIP3    H210318   3.902   5.548   0.989
 3452TIP3   OH210319   0.297   6.482   4.869
 3452TIP3    H110320   0.210   6.499   4.905
 3452TIP3    H210321   0.282   6.470   4.775
 3453TIP3   OH210322   0.575   1.489   0.355
 3453TIP3    H110323   0.511   1.495   0.426
 3453TIP3    H210324   0.565   1.572   0.307
 3454TIP3   OH210325   5.698   6.724   2.751
 3454TIP3    H110326   5.765   6.728   2.820
 3454TIP3    H210327   5.677   6.631   2.743
 3455TIP3   OH210328   6.568   2.279   3.022
 3455TIP3    H110329   6.610   2.365   3.014
 3455TIP3    H210330   6.507   2.275   2.948
 3456TIP3   OH210331   1.602   4.461   3.927
 3456TIP3    H110332   1.664   4.442   3.857
 3456TIP3    H210333   1.608   4.386   3.986
 3457TIP3   OH210334   4.943   0.330   3.821
 3457TIP3    H110335   4.934   0.424   3.811
 3457TIP3    H210336   4.859   0.295   3.791
 3458TIP3   OH210337   0.477   3.277   3.184
 3458TIP3    H110338   0.480   3.222   3.106
 3458TIP3    H210339   0.385   3.296   3.197
 3459TIP3   OH210340   1.708   2.101   0.523
 3459TIP3    H110341   1.741   2.165   0.461
 3459TIP3    H210342   1.744   2.017   0.493
 3460TIP3   OH210343   5.623   6.043   0.600
 3460TIP3    H110344   5.672   6.085   0.671
 3460TIP3    H210345   5.622   6.109   0.530
 3461TIP3   OH210346   3.303   4.228   2.673
 3461TIP3    H110347   3.312   4.298   2.737
 3461TIP3    H210348   3.329   4.148   2.719
 3462TIP3   OH210349   5.217   4.525   4.259
 3462TIP3    H110350   5.224   4.620   4.270
 3462TIP3    H210351   5.135   4.513   4.211
 3463TIP3   OH210352   6.044   6.052   5.796
 3463TIP3    H110353   5.978   6.092   5.852
 3463TIP3    H210354   6.005   6.055   5.708
 3464TIP3   OH210355   6.095   3.284   3.096
 3464TIP3    H110356   6.108   3.204   3.146
 3464TIP3    H210357   6.017   3.325   3.135
 3465TIP3   OH210358   2.533   4.574   2.979
 3465TIP3    H110359   2.465   4.543   3.039
 3465TIP3    H210360   2.515   4.529   2.896
 3466TIP3   OH210361   4.021   3.526   1.414
 3466TIP3    H110362   4.038   3.434   1.393
 3466TIP3    H210363   3.988   3.524   1.504
 3467TIP3   OH210364   6.804   3.324   3.057
 3467TIP3    H110365   6.879   3.353   3.108
 3467TIP3    H210366   6.833   3.243   3.014
 3468TIP3   OH210367   5.607   6.059   3.561
 3468TIP3    H110368   5.570   6.012   3.487
 3468TIP3    H210369   5.584   6.007   3.637
 3469TIP3   OH210370   7.105   0.531   0.219
 3469TIP3    H110371   7.011   0.536   0.201
 3469TIP3    H210372   7.118   0.589   0.294
 3470TIP3   OH210373   3.877   3.448   0.291
 3470TIP3    H110374   3.911   3.536   0.279
 3470TIP3    H210375   3.945   3.390   0.255
 3471TIP3   OH210376   2.932   3.355   0.407
 3471TIP3    H110377   2.995   3.345   0.336
 3471TIP3    H210378   2.880   3.431   0.383
 3472TIP3   OH210379   0.260   1.384   4.983
 3472TIP3    H110380   0.356   1.388   4.988
 3472TIP3    H210381   0.241   1.392   4.889
 3473TIP3   OH210382   1.367   2.348   5.351
 3473TIP3    H110383   1.446   2.294   5.354
 3473TIP3    H210384   1.351   2.372   5.443
 3474TIP3   OH210385   1.632   5.314   4.321
 3474TIP3    H110386   1.693   5.364   4.376
 3474TIP3    H210387   1.577   5.266   4.383
 3475TIP3   OH210388   1.848   5.756   5.655
 3475TIP3    H110389   1.933   5.731   5.620
 3475TIP3    H210390   1.830   5.691   5.723
 3476TIP3   OH210391   2.582   3.152   2.492
 3476TIP3    H110392   2.606   3.209   2.419
 3476TIP3    H210393   2.586   3.209   2.569
 3477TIP3   OH210394   6.560   6.650   1.551
 3477TIP3    H110395   6.628   6.706   1.587
 3477TIP3    H210396   6.534   6.693   1.470
 3478TIP3   OH210397   3.199   1.365   1.993
 3478TIP3    H110398   3.201   1.457   2.019
 3478TIP3    H210399   3.262   1.322   2.052
 3479TIP3   OH210400   3.434   5.898   1.811
 3479TIP3    H110401   3.511   5.844   1.793
 3479TIP3    H210402   3.413   5.880   1.903
 3480TIP3   OH210403   1.672   1.859   3.489
 3480TIP3    H110404   1.739   1.813   3.539
 3480TIP3    H210405   1.624   1.790   3.443
 3481TIP3   OH210406  -0.026   6.799   1.839
 3481TIP3    H110407   0.063   6.818   1.809
 3481TIP3    H210408  -0.015   6.733   1.908
 3482TIP3   OH210409   4.295   4.738   4.373
 3482TIP3    H110410   4.259   4.689   4.300
 3482TIP3    H210411   4.381   4.700   4.388
 3483TIP3   OH210412   6.358   1.777   0.148
 3483TIP3    H110413   6.426   1.711   0.161
 3483TIP3    H210414   6.295   1.761   0.218
 3484TIP3   OH210415   3.573   4.314   3.976
 3484TIP3    H110416   3.631   4.255   4.024
 3484TIP3    H210417   3.613   4.322   3.889
 3485TIP3   OH210418   6.746   4.063   5.350
 3485TIP3    H110419   6.772   4.011   5.275
 3485TIP3    H210420   6.828   4.094   5.389
 3486TIP3   OH210421   0.023   3.957   0.920
 3486TIP3    H110422   0.029   3.867   0.887
 3486TIP3    H210423  -0.069   3.967   0.945
 3487TIP3   OH210424   6.069   6.456   0.818
 3487TIP3    H110425   6.078   6.551   0.818
 3487TIP3    H210426   6.089   6.429   0.729
 3488TIP3   OH210427   0.769   5.522   2.040
 3488TIP3    H110428   0.757   5.586   1.970
 3488TIP3    H210429   0.682   5.483   2.052
 3489TIP3   OH210430   2.555   2.766   0.892
 3489TIP3    H110431   2.598   2.681   0.887
 3489TIP3    H210432   2.470   2.747   0.932
 3490TIP3   OH210433   5.815   4.922   3.938
 3490TIP3    H110434   5.875   4.994   3.916
 3490TIP3    H210435   5.824   4.860   3.866
 3491TIP3   OH210436   5.393   5.722   2.296
 3491TIP3    H110437   5.315   5.763   2.333
 3491TIP3    H210438   5.452   5.711   2.371
 3492TIP3   OH210439   6.592   0.353   0.483
 3492TIP3    H110440   6.661   0.300   0.523
 3492TIP3    H210441   6.533   0.290   0.442
 3493TIP3   OH210442   6.692   0.227   4.911
 3493TIP3    H110443   6.733   0.271   4.986
 3493TIP3    H210444   6.601   0.255   4.913
 3494TIP3   OH210445   6.442   3.356   5.351
 3494TIP3    H110446   6.519   3.410   5.330
 3494TIP3    H210447   6.456   3.327   5.441
 3495TIP3   OH210448   5.070   2.687   1.570
 3495TIP3    H110449   5.087   2.774   1.534
 3495TIP3    H210450   5.149   2.637   1.549
 3496TIP3   OH210451   5.033   0.313   3.011
 3496TIP3    H110452   5.054   0.405   3.027
 3496TIP3    H210453   4.979   0.315   2.932
 3497TIP3   OH210454   6.802   5.730   0.226
 3497TIP3    H110455   6.822   5.656   0.168
 3497TIP3    H210456   6.886   5.773   0.239
 3498TIP3   OH210457   1.542   6.778   4.102
 3498TIP3    H110458   1.562   6.862   4.061
 3498TIP3    H210459   1.544   6.715   4.029
 3499TIP3   OH210460   7.109   4.284   0.872
 3499TIP3    H110461   7.124   4.269   0.966
 3499TIP3    H210462   7.030   4.235   0.852
 3500TIP3   OH210463   3.470   5.976   5.215
 3500TIP3    H110464   3.457   5.954   5.308
 3500TIP3    H210465   3.383   6.002   5.185
 3501TIP3   OH210466   4.667   3.002   2.370
 3501TIP3    H110467   4.751   3.041   2.393
 3501TIP3    H210468   4.673   2.912   2.401
 3502TIP3   OH210469   6.986   6.710   5.216
 3502TIP3    H110470   7.047   6.647   5.256
 3502TIP3    H210471   7.042   6.779   5.182
 3503TIP3   OH210472   3.849   3.321   3.899
 3503TIP3    H110473   3.778   3.356   3.846
 3503TIP3    H210474   3.815   3.239   3.936
 3504TIP3   OH210475   2.133   0.492   1.071
 3504TIP3    H110476   2.087   0.567   1.033
 3504TIP3    H210477   2.224   0.519   1.075
 3505TIP3   OH210478   4.632   1.483   1.187
 3505TIP3    H110479   4.566   1.546   1.216
 3505TIP3    H210480   4.715   1.521   1.217
 3506TIP3   OH210481   1.275   5.827   2.016
 3506TIP3    H110482   1.211   5.843   2.084
 3506TIP3    H210483   1.235   5.760   1.961
 3507TIP3   OH210484   2.624   4.170   0.426
 3507TIP3    H110485   2.554   4.235   0.420
 3507TIP3    H210486   2.600   4.102   0.363
 3508TIP3   OH210487   2.661   4.787   0.616
 3508TIP3    H110488   2.654   4.880   0.594
 3508TIP3    H210489   2.572   4.754   0.603
 3509TIP3   OH210490   0.032   1.603   4.747
 3509TIP3    H110491   0.117   1.641   4.727
 3509TIP3    H210492   0.038   1.512   4.718
 3510TIP3   OH210493   7.201   2.259   0.570
 3510TIP3    H110494   7.251   2.341   0.571
 3510TIP3    H210495   7.124   2.277   0.625
 3511TIP3   OH210496   4.143   2.178   4.901
 3511TIP3    H110497   4.076   2.151   4.964
 3511TIP3    H210498   4.127   2.123   4.824
 3512TIP3   OH210499   0.875   6.226   2.395
 3512TIP3    H110500   0.792   6.252   2.354
 3512TIP3    H210501   0.892   6.294   2.460
 3513TIP3   OH210502   0.105   0.087   3.857
 3513TIP3    H110503   0.049   0.163   3.874
 3513TIP3    H210504   0.162   0.115   3.785
 3514TIP3   OH210505   1.473   4.450   3.075
 3514TIP3    H110506   1.395   4.506   3.080
 3514TIP3    H210507   1.473   4.402   3.158
 3515TIP3   OH210508   5.573   0.943   4.407
 3515TIP3    H110509   5.555   0.850   4.392
 3515TIP3    H210510   5.666   0.953   4.385
 3516TIP3   OH210511   7.102   5.182   0.198
 3516TIP3    H110512   7.027   5.241   0.187
 3516TIP3    H210513   7.068   5.096   0.172
 3517TIP3   OH210514   6.478   1.685   0.864
 3517TIP3    H110515   6.472   1.642   0.949
 3517TIP3    H210516   6.471   1.779   0.883
 3518TIP3   OH210517   2.081   2.478   1.771
 3518TIP3    H110518   2.123   2.564   1.773
 3518TIP3    H210519   1.988   2.496   1.785
 3519TIP3   OH210520   5.769   1.121   0.619
 3519TIP3    H110521   5.707   1.186   0.652
 3519TIP3    H210522   5.853   1.147   0.656
 3520TIP3   OH210523   3.049   4.997   3.596
 3520TIP3    H110524   3.043   5.002   3.691
 3520TIP3    H210525   3.139   4.970   3.579
 3521TIP3   OH210526   2.423   3.885   5.380
 3521TIP3    H110527   2.345   3.939   5.369
 3521TIP3    H210528   2.389   3.799   5.406
 3522TIP3   OH210529   3.206   4.584   3.633
 3522TIP3    H110530   3.228   4.667   3.676
 3522TIP3    H210531   3.111   4.583   3.629
 3523TIP3   OH210532   4.261   3.556   0.227
 3523TIP3    H110533   4.231   3.631   0.177
 3523TIP3    H210534   4.305   3.594   0.303
 3524TIP3   OH210535   6.094   3.458   1.737
 3524TIP3    H110536   6.164   3.512   1.774
 3524TIP3    H210537   6.115   3.369   1.764
 3525TIP3   OH210538   1.618   1.671   4.966
 3525TIP3    H110539   1.594   1.634   4.881
 3525TIP3    H210540   1.713   1.658   4.972
 3526TIP3   OH210541   0.162   2.753   4.275
 3526TIP3    H110542   0.256   2.740   4.260
 3526TIP3    H210543   0.120   2.675   4.240
 3527TIP3   OH210544   1.892   1.326   3.288
 3527TIP3    H110545   1.932   1.353   3.206
 3527TIP3    H210546   1.872   1.233   3.276
 3528TIP3   OH210547   0.311   2.751   3.351
 3528TIP3    H110548   0.263   2.675   3.319
 3528TIP3    H210549   0.248   2.823   3.351
 3529TIP3   OH210550   5.087   0.655   3.543
 3529TIP3    H110551   5.002   0.621   3.514
 3529TIP3    H210552   5.151   0.607   3.491
 3530TIP3   OH210553   1.549   3.136   0.243
 3530TIP3    H110554   1.482   3.070   0.263
 3530TIP3    H210555   1.520   3.214   0.290
 3531TIP3   OH210556   4.649   4.362   2.396
 3531TIP3    H110557   4.683   4.347   2.484
 3531TIP3    H210558   4.580   4.296   2.386
 3532TIP3   OH210559   0.070   4.800   1.041
 3532TIP3    H110560   0.069   4.891   1.071
 3532TIP3    H210561  -0.022   4.775   1.037
 3533TIP3   OH210562   3.584   2.144   0.887
 3533TIP3    H110563   3.630   2.156   0.804
 3533TIP3    H210564   3.642   2.181   0.953
 3534TIP3   OH210565   5.656   6.713   0.277
 3534TIP3    H110566   5.709   6.777   0.230
 3534TIP3    H210567   5.565   6.737   0.257
 3535TIP3   OH210568   5.393   0.004   3.148
 3535TIP3    H110569   5.411  -0.025   3.058
 3535TIP3    H210570   5.373   0.097   3.139
 3536TIP3   OH210571  -0.016  -0.018   0.579
 3536TIP3    H110572  -0.054   0.054   0.530
 3536TIP3    H210573   0.076   0.006   0.591
 3537TIP3   OH210574   6.108   0.477   2.250
 3537TIP3    H110575   6.181   0.458   2.309
 3537TIP3    H210576   6.075   0.562   2.278
 3538TIP3   OH210577   5.502   5.488   4.114
 3538TIP3    H110578   5.443   5.440   4.056
 3538TIP3    H210579   5.468   5.473   4.202
 3539TIP3   OH210580   1.383   3.965   0.405
 3539TIP3    H110581   1.444   3.901   0.369
 3539TIP3    H210582   1.408   3.973   0.497
 3540TIP3   OH210583   3.939   2.998   1.008
 3540TIP3    H110584   3.912   3.002   1.099
 3540TIP3    H210585   4.030   2.965   1.012
 3541TIP3   OH210586   5.291   5.204   5.382
 3541TIP3    H110587   5.346   5.136   5.421
 3541TIP3    H210588   5.239   5.238   5.455
 3542TIP3   OH210589   0.010   4.091   4.087
 3542TIP3    H110590   0.063   4.110   4.164
 3542TIP3    H210591   0.019   3.997   4.074
 3543TIP3   OH210592   1.242   0.831   5.367
 3543TIP3    H110593   1.210   0.795   5.284
 3543TIP3    H210594   1.330   0.862   5.347
 3544TIP3   OH210595   5.707   3.122   3.571
 3544TIP3    H110596   5.679   3.031   3.581
 3544TIP3    H210597   5.683   3.164   3.653
 3545TIP3   OH210598   2.967   4.930   3.189
 3545TIP3    H110599   2.956   4.999   3.123
 3545TIP3    H210600   2.994   4.853   3.138
 3546TIP3   OH210601   5.622   1.214   0.349
 3546TIP3    H110602   5.608   1.129   0.308
 3546TIP3    H210603   5.545   1.266   0.324
 3547TIP3   OH210604   5.217   5.675   0.981
 3547TIP3    H110605   5.312   5.687   0.990
 3547TIP3    H210606   5.200   5.589   1.021
 3548TIP3   OH210607   0.565   0.974   4.542
 3548TIP3    H110608   0.585   1.041   4.607
 3548TIP3    H210609   0.518   0.907   4.590
 3549TIP3   OH210610   5.181   2.252   5.198
 3549TIP3    H110611   5.157   2.338   5.232
 3549TIP3    H210612   5.209   2.269   5.108
 3550TIP3   OH210613   4.902   1.562   0.155
 3550TIP3    H110614   4.886   1.640   0.103
 3550TIP3    H210615   4.893   1.489   0.094
 3551TIP3   OH210616   2.408   1.083   4.656
 3551TIP3    H110617   2.326   1.115   4.618
 3551TIP3    H210618   2.477   1.129   4.609
 3552TIP3   OH210619   3.049   1.327   2.926
 3552TIP3    H110620   3.113   1.265   2.961
 3552TIP3    H210621   2.989   1.273   2.875
 3553TIP3   OH210622   0.776   0.087   1.598
 3553TIP3    H110623   0.823   0.142   1.535
 3553TIP3    H210624   0.830   0.089   1.677
 3554TIP3   OH210625   1.473   6.032   0.716
 3554TIP3    H110626   1.456   5.949   0.671
 3554TIP3    H210627   1.549   6.068   0.671
 3555TIP3   OH210628   2.289   2.504   5.040
 3555TIP3    H110629   2.361   2.566   5.055
 3555TIP3    H210630   2.221   2.555   4.996
 3556TIP3   OH210631   4.476   1.812   4.494
 3556TIP3    H110632   4.482   1.825   4.588
 3556TIP3    H210633   4.429   1.729   4.484
 3557TIP3   OH210634   1.749   2.109   1.414
 3557TIP3    H110635   1.823   2.169   1.416
 3557TIP3    H210636   1.675   2.161   1.444
 3558TIP3   OH210637   7.126   3.139   0.032
 3558TIP3    H110638   7.041   3.156   0.072
 3558TIP3    H210639   7.173   3.085   0.095
 3559TIP3   OH210640   3.765   2.395   0.739
 3559TIP3    H110641   3.815   2.334   0.794
 3559TIP3    H210642   3.674   2.384   0.768
 3560TIP3   OH210643   0.657   4.196   4.700
 3560TIP3    H110644   0.611   4.279   4.687
 3560TIP3    H210645   0.604   4.132   4.653
 3561TIP3   OH210646   3.172   2.704   2.729
 3561TIP3    H110647   3.129   2.742   2.652
 3561TIP3    H210648   3.102   2.694   2.793
 3562TIP3   OH210649   6.515   0.672   1.629
 3562TIP3    H110650   6.456   0.597   1.633
 3562TIP3    H210651   6.488   0.729   1.701
 3563TIP3   OH210652   6.881   3.058   0.705
 3563TIP3    H110653   6.908   3.112   0.778
 3563TIP3    H210654   6.943   3.079   0.635
 3564TIP3   OH210655   4.007   1.573   2.023
 3564TIP3    H110656   4.071   1.633   2.061
 3564TIP3    H210657   4.055   1.491   2.010
 3565TIP3   OH210658   4.870   5.069   4.021
 3565TIP3    H110659   4.920   5.002   4.068
 3565TIP3    H210660   4.804   5.019   3.973
 3566TIP3   OH210661   2.740   6.440   1.177
 3566TIP3    H110662   2.790   6.388   1.240
 3566TIP3    H210663   2.652   6.402   1.180
 3567TIP3   OH210664   2.946   6.258   1.856
 3567TIP3    H110665   2.877   6.217   1.909
 3567TIP3    H210666   2.914   6.251   1.766
 3568TIP3   OH210667   2.449   4.843   3.933
 3568TIP3    H110668   2.449   4.931   3.895
 3568TIP3    H210669   2.448   4.857   4.027
 3569TIP3   OH210670   4.304   4.122   4.240
 3569TIP3    H110671   4.296   4.038   4.285
 3569TIP3    H210672   4.356   4.176   4.300
 3570TIP3   OH210673   6.113   2.490   4.057
 3570TIP3    H110674   6.130   2.413   4.111
 3570TIP3    H210675   6.180   2.553   4.083
 3571TIP3   OH210676   2.579   6.430   4.322
 3571TIP3    H110677   2.596   6.510   4.273
 3571TIP3    H210678   2.627   6.442   4.405
 3572TIP3   OH210679   3.604   5.898   1.360
 3572TIP3    H110680   3.686   5.927   1.400
 3572TIP3    H210681   3.554   5.979   1.345
 3573TIP3   OH210682   5.035   3.869   1.266
 3573TIP3    H110683   5.011   3.951   1.223
 3573TIP3    H210684   4.954   3.819   1.268
 3574TIP3   OH210685   0.479   2.067   1.536
 3574TIP3    H110686   0.562   2.112   1.517
 3574TIP3    H210687   0.427   2.131   1.584
 3575TIP3   OH210688   6.625   6.116   4.496
 3575TIP3    H110689   6.606   6.161   4.579
 3575TIP3    H210690   6.583   6.170   4.429
 3576TIP3   OH210691   2.542   6.365   3.815
 3576TIP3    H110692   2.546   6.370   3.720
 3576TIP3    H210693   2.605   6.431   3.845
 3577TIP3   OH210694   2.073   2.749   1.826
 3577TIP3    H110695   2.070   2.788   1.738
 3577TIP3    H210696   1.986   2.767   1.862
 3578TIP3   OH210697   4.763   0.987   1.191
 3578TIP3    H110698   4.735   0.988   1.099
 3578TIP3    H210699   4.795   1.076   1.207
 3579TIP3   OH210700   4.355   0.989   3.666
 3579TIP3    H110701   4.371   0.962   3.576
 3579TIP3    H210702   4.354   1.085   3.663
 3580TIP3   OH210703   1.243   1.734   2.029
 3580TIP3    H110704   1.328   1.723   1.988
 3580TIP3    H210705   1.197   1.653   2.012
 3581TIP3   OH210706   5.279   1.626   3.981
 3581TIP3    H110707   5.282   1.573   4.061
 3581TIP3    H210708   5.368   1.621   3.945
 3582TIP3   OH210709   0.527   0.843   3.908
 3582TIP3    H110710   0.458   0.898   3.872
 3582TIP3    H210711   0.511   0.756   3.871
 3583TIP3   OH210712   1.075   0.092   3.215
 3583TIP3    H110713   0.981   0.104   3.206
 3583TIP3    H210714   1.089   0.083   3.310
 3584TIP3   OH210715   0.652   4.305   5.322
 3584TIP3    H110716   0.661   4.211   5.333
 3584TIP3    H210717   0.740   4.340   5.335
 3585TIP3   OH210718   3.550   1.361   5.508
 3585TIP3    H110719   3.593   1.446   5.512
 3585TIP3    H210720   3.456   1.382   5.509
 3586TIP3   OH210721   6.524   1.591   1.100
 3586TIP3    H110722   6.453   1.573   1.161
 3586TIP3    H210723   6.572   1.664   1.139
 3587TIP3   OH210724   2.749   0.519   2.670
 3587TIP3    H110725   2.685   0.550   2.606
 3587TIP3    H210726   2.831   0.512   2.621
 3588TIP3   OH210727   2.295   6.576   2.065
 3588TIP3    H110728   2.375   6.524   2.073
 3588TIP3    H210729   2.224   6.512   2.063
 3589TIP3   OH210730   1.804   3.667   0.401
 3589TIP3    H110731   1.800   3.583   0.447
 3589TIP3    H210732   1.815   3.731   0.471
 3590TIP3   OH210733  -0.002   5.556   3.933
 3590TIP3    H110734  -0.024   5.648   3.917
 3590TIP3    H210735   0.030   5.555   4.024
 3591TIP3   OH210736   6.702   4.244   1.375
 3591TIP3    H110737   6.720   4.218   1.466
 3591TIP3    H210738   6.648   4.172   1.340
 3592TIP3   OH210739   5.581   3.727   3.952
 3592TIP3    H110740   5.497   3.709   3.911
 3592TIP3    H210741   5.577   3.820   3.976
 3593TIP3   OH210742   1.570   6.637   4.554
 3593TIP3    H110743   1.610   6.614   4.471
 3593TIP3    H210744   1.479   6.658   4.531
 3594TIP3   OH210745   3.378   0.662   1.054
 3594TIP3    H110746   3.452   0.719   1.074
 3594TIP3    H210747   3.332   0.706   0.982
 3595TIP3   OH210748   2.940   5.774   0.445
 3595TIP3    H110749   2.912   5.861   0.472
 3595TIP3    H210750   2.949   5.725   0.527
 3596TIP3   OH210751   7.039   6.404   4.877
 3596TIP3    H110752   6.998   6.416   4.791
 3596TIP3    H210753   6.994   6.467   4.933
 3597TIP3   OH210754   5.031   2.588   5.001
 3597TIP3    H110755   5.019   2.510   5.056
 3597TIP3    H210756   4.990   2.564   4.918
 3598TIP3   OH210757   6.444   3.382   0.335
 3598TIP3    H110758   6.380   3.452   0.346
 3598TIP3    H210759   6.487   3.402   0.252
 3599TIP3   OH210760   1.964   0.485   4.740
 3599TIP3    H110761   1.909   0.562   4.730
 3599TIP3    H210762   2.020   0.504   4.816
 3600TIP3   OH210763   3.316   0.364   4.415
 3600TIP3    H110764   3.228   0.373   4.453
 3600TIP3    H210765   3.301   0.356   4.321
 3601TIP3   OH210766   4.659   4.251   1.300
 3601TIP3    H110767   4.663   4.194   1.377
 3601TIP3    H210768   4.745   4.292   1.296
 3602TIP3   OH210769   5.846   6.442   1.000
 3602TIP3    H110770   5.918   6.419   0.942
 3602TIP3    H210771   5.887   6.453   1.086
 3603TIP3   OH210772   3.819   0.638   3.162
 3603TIP3    H110773   3.741   0.642   3.106
 3603TIP3    H210774   3.835   0.544   3.173
 3604TIP3   OH210775   0.281   5.346  -0.001
 3604TIP3    H110776   0.241   5.259  -0.012
 3604TIP3    H210777   0.365   5.328   0.041
 3605TIP3   OH210778   1.777   1.371   2.149
 3605TIP3    H110779   1.842   1.340   2.086
 3605TIP3    H210780   1.816   1.450   2.187
 3606TIP3   OH210781   5.200   0.644   3.788
 3606TIP3    H110782   5.235   0.555   3.781
 3606TIP3    H210783   5.160   0.661   3.703
 3607TIP3   OH210784   3.455   6.248   5.392
 3607TIP3    H110785   3.411   6.167   5.366
 3607TIP3    H210786   3.476   6.292   5.309
 3608TIP3   OH210787   1.635   4.846   2.187
 3608TIP3    H110788   1.674   4.911   2.128
 3608TIP3    H210789   1.707   4.785   2.206
 3609TIP3   OH210790   3.994   2.976   5.378
 3609TIP3    H110791   4.011   3.040   5.308
 3609TIP3    H210792   4.010   2.891   5.336
 3610TIP3   OH210793   2.432   1.848   3.964
 3610TIP3    H110794   2.454   1.939   3.942
 3610TIP3    H210795   2.515   1.810   3.991
 3611TIP3   OH210796   4.777   1.082   2.484
 3611TIP3    H110797   4.767   1.144   2.412
 3611TIP3    H210798   4.730   1.004   2.455
 3612TIP3   OH210799   0.332   2.885   5.311
 3612TIP3    H110800   0.410   2.851   5.355
 3612TIP3    H210801   0.359   2.898   5.220
 3613TIP3   OH210802   0.817   2.781   5.607
 3613TIP3    H110803   0.738   2.756   5.654
 3613TIP3    H210804   0.787   2.808   5.521
 3614TIP3   OH210805   4.114   4.812   1.195
 3614TIP3    H110806   4.067   4.773   1.121
 3614TIP3    H210807   4.070   4.896   1.208
 3615TIP3   OH210808   4.546   2.350   1.349
 3615TIP3    H110809   4.480   2.307   1.404
 3615TIP3    H210810   4.504   2.361   1.264
 3616TIP3   OH210811   2.764   1.907   3.971
 3616TIP3    H110812   2.813   1.983   3.939
 3616TIP3    H210813   2.828   1.854   4.018
 3617TIP3   OH210814   6.596   1.482   4.472
 3617TIP3    H110815   6.566   1.537   4.544
 3617TIP3    H210816   6.541   1.506   4.398
 3618TIP3   OH210817   5.307   0.156   2.890
 3618TIP3    H110818   5.362   0.220   2.844
 3618TIP3    H210819   5.226   0.153   2.838
 3619TIP3   OH210820   1.859   3.901   0.976
 3619TIP3    H110821   1.897   3.903   1.064
 3619TIP3    H210822   1.787   3.838   0.983
 3620TIP3   OH210823   2.910   2.151   5.254
 3620TIP3    H110824   2.914   2.231   5.201
 3620TIP3    H210825   2.978   2.094   5.218
 3621TIP3   OH210826   3.344   4.510   3.189
 3621TIP3    H110827   3.260   4.473   3.159
 3621TIP3    H210828   3.381   4.441   3.244
 3622TIP3   OH210829   0.152   0.645   1.426
 3622TIP3    H110830   0.168   0.597   1.345
 3622TIP3    H210831   0.111   0.727   1.397
 3623TIP3   OH210832   7.068   3.680   5.121
 3623TIP3    H110833   7.033   3.605   5.073
 3623TIP3    H210834   7.158   3.655   5.141
 3624TIP3   OH210835   6.948   5.975   0.444
 3624TIP3    H110836   7.023   5.964   0.502
 3624TIP3    H210837   6.979   5.946   0.358
 3625TIP3   OH210838   5.002   4.835   4.780
 3625TIP3    H110839   5.041   4.921   4.763
 3625TIP3    H210840   4.977   4.838   4.872
 3626TIP3   OH210841   6.308   5.411   5.164
 3626TIP3    H110842   6.262   5.467   5.102
 3626TIP3    H210843   6.381   5.464   5.194
 3627TIP3   OH210844   0.196   0.793   4.904
 3627TIP3    H110845   0.115   0.842   4.918
 3627TIP3    H210846   0.167   0.703   4.890
 3628TIP3   OH210847   5.468   1.076   5.794
 3628TIP3    H110848   5.497   1.129   5.869
 3628TIP3    H210849   5.512   0.991   5.807
 3629TIP3   OH210850   1.151   5.910   4.704
 3629TIP3    H110851   1.144   5.879   4.794
 3629TIP3    H210852   1.188   5.836   4.656
 3630TIP3   OH210853   2.709   4.638   0.884
 3630TIP3    H110854   2.682   4.656   0.794
 3630TIP3    H210855   2.782   4.575   0.875
 3631TIP3   OH210856   0.683   5.803   3.869
 3631TIP3    H110857   0.755   5.866   3.864
 3631TIP3    H210858   0.621   5.831   3.802
 3632TIP3   OH210859   4.529   6.617   4.564
 3632TIP3    H110860   4.461   6.650   4.624
 3632TIP3    H210861   4.525   6.522   4.573
 3633TIP3   OH210862   0.817   5.049   3.584
 3633TIP3    H110863   0.843   5.093   3.665
 3633TIP3    H210864   0.841   5.111   3.515
 3634TIP3   OH210865   6.550   3.724   0.114
 3634TIP3    H110866   6.564   3.816   0.136
 3634TIP3    H210867   6.487   3.726   0.042
 3635TIP3   OH210868   6.927   2.033   2.291
 3635TIP3    H110869   6.883   2.089   2.355
 3635TIP3    H210870   6.952   2.092   2.220
 3636TIP3   OH210871   0.630   6.291   2.829
 3636TIP3    H110872   0.559   6.261   2.772
 3636TIP3    H210873   0.653   6.378   2.796
 3637TIP3   OH210874   3.653   4.895   5.449
 3637TIP3    H110875   3.663   4.805   5.480
 3637TIP3    H210876   3.667   4.890   5.355
 3638TIP3   OH210877   6.545   0.353   2.699
 3638TIP3    H110878   6.546   0.262   2.730
 3638TIP3    H210879   6.622   0.359   2.642
 3639TIP3   OH210880   4.859   3.158   2.057
 3639TIP3    H110881   4.840   3.072   2.020
 3639TIP3    H210882   4.787   3.214   2.028
 3640TIP3   OH210883   4.254   1.314   2.877
 3640TIP3    H110884   4.298   1.234   2.906
 3640TIP3    H210885   4.317   1.357   2.820
 3641TIP3   OH210886   6.504   2.440   5.354
 3641TIP3    H110887   6.455   2.358   5.358
 3641TIP3    H210888   6.475   2.481   5.272
 3642TIP3   OH210889   0.888   6.727   2.296
 3642TIP3    H110890   0.865   6.804   2.244
 3642TIP3    H210891   0.950   6.759   2.361
 3643TIP3   OH210892   1.778   6.292   5.167
 3643TIP3    H110893   1.814   6.290   5.256
 3643TIP3    H210894   1.698   6.240   5.172
 3644TIP3   OH210895   1.084   3.658   5.121
 3644TIP3    H110896   1.124   3.745   5.129
 3644TIP3    H210897   0.992   3.677   5.099
 3645TIP3   OH210898   3.184   4.703   1.757
 3645TIP3    H110899   3.197   4.788   1.715
 3645TIP3    H210900   3.232   4.641   1.702
 3646TIP3   OH210901   2.753   2.881   0.032
 3646TIP3    H110902   2.826   2.939   0.054
 3646TIP3    H210903   2.793   2.794   0.026
 3647TIP3   OH210904   2.127   5.518   2.557
 3647TIP3    H110905   2.111   5.521   2.651
 3647TIP3    H210906   2.218   5.489   2.548
 3648TIP3   OH210907   5.905   3.509   3.569
 3648TIP3    H110908   5.941   3.440   3.625
 3648TIP3    H210909   5.846   3.558   3.626
 3649TIP3   OH210910   5.002   6.515   4.055
 3649TIP3    H110911   4.971   6.541   4.141
 3649TIP3    H210912   4.969   6.426   4.043
 3650TIP3   OH210913   5.480   0.492   4.111
 3650TIP3    H110914   5.551   0.479   4.174
 3650TIP3    H210915   5.409   0.435   4.142
 3651TIP3   OH210916   4.482   3.140   2.245
 3651TIP3    H110917   4.502   3.100   2.160
 3651TIP3    H210918   4.534   3.089   2.307
 3652TIP3   OH210919   3.153   2.674   0.443
 3652TIP3    H110920   3.143   2.683   0.349
 3652TIP3    H210921   3.084   2.730   0.479
 3653TIP3   OH210922   0.479   4.692   0.467
 3653TIP3    H110923   0.444   4.704   0.378
 3653TIP3    H210924   0.494   4.781   0.499
 3654TIP3   OH210925   4.601   2.873   5.633
 3654TIP3    H110926   4.615   2.897   5.541
 3654TIP3    H210927   4.575   2.955   5.675
 3655TIP3   OH210928   3.760   5.513   3.760
 3655TIP3    H110929   3.713   5.440   3.799
 3655TIP3    H210930   3.728   5.516   3.670
 3656TIP3   OH210931   5.517   6.319   2.440
 3656TIP3    H110932   5.498   6.305   2.347
 3656TIP3    H210933   5.570   6.243   2.465
 3657TIP3   OH210934   7.154   0.403   5.388
 3657TIP3    H110935   7.120   0.429   5.302
 3657TIP3    H210936   7.098   0.330   5.414
 3658TIP3   OH210937   5.884   2.100   5.697
 3658TIP3    H110938   5.905   2.086   5.605
 3658TIP3    H210939   5.843   2.186   5.699
 3659TIP3   OH210940   2.691   2.404   1.691
 3659TIP3    H110941   2.634   2.418   1.616
 3659TIP3    H210942   2.672   2.477   1.750
 3660TIP3   OH210943   0.871   0.826   0.848
 3660TIP3    H110944   0.835   0.858   0.765
 3660TIP3    H210945   0.905   0.904   0.891
 3661TIP3   OH210946   5.654   2.792   5.417
 3661TIP3    H110947   5.712   2.742   5.360
 3661TIP3    H210948   5.710   2.857   5.458
 3662TIP3   OH210949   2.162   4.667   1.338
 3662TIP3    H110950   2.233   4.708   1.387
 3662TIP3    H210951   2.154   4.720   1.259
 3663TIP3   OH210952   1.189   6.625   4.179
 3663TIP3    H110953   1.149   6.571   4.110
 3663TIP3    H210954   1.115   6.659   4.228
 3664TIP3   OH210955   2.096   1.134   4.853
 3664TIP3    H110956   2.183   1.135   4.895
 3664TIP3    H210957   2.084   1.224   4.823
 3665TIP3   OH210958   2.094   1.148   1.157
 3665TIP3    H110959   2.176   1.100   1.146
 3665TIP3    H210960   2.027   1.091   1.121
 3666TIP3   OH210961   7.135   4.494   0.709
 3666TIP3    H110962   7.219   4.539   0.707
 3666TIP3    H210963   7.149   4.420   0.768
 3667TIP3   OH210964   5.872   2.203   0.219
 3667TIP3    H110965   5.893   2.294   0.240
 3667TIP3    H210966   5.782   2.191   0.249
 3668TIP3   OH210967   1.882   1.857   5.783
 3668TIP3    H110968   1.834   1.887   5.706
 3668TIP3    H210969   1.901   1.937   5.833
 3669TIP3   OH210970   3.653   0.602   2.939
 3669TIP3    H110971   3.665   0.522   2.888
 3669TIP3    H210972   3.614   0.664   2.878
 3670TIP3   OH210973   2.895   1.944   3.164
 3670TIP3    H110974   2.815   1.914   3.121
 3670TIP3    H210975   2.948   1.865   3.175
 3671TIP3   OH210976   2.223   4.763   3.024
 3671TIP3    H110977   2.287   4.829   2.999
 3671TIP3    H210978   2.139   4.808   3.019
 3672TIP3   OH210979   1.127   0.139   4.874
 3672TIP3    H110980   1.105   0.211   4.815
 3672TIP3    H210981   1.051   0.134   4.933
 3673TIP3   OH210982   6.474   0.991   1.541
 3673TIP3    H110983   6.522   0.928   1.595
 3673TIP3    H210984   6.383   0.963   1.545
 3674TIP3   OH210985   6.274   2.059   4.867
 3674TIP3    H110986   6.179   2.053   4.881
 3674TIP3    H210987   6.288   2.022   4.780
 3675TIP3   OH210988   1.501   6.778   3.738
 3675TIP3    H110989   1.443   6.751   3.666
 3675TIP3    H210990   1.442   6.790   3.813
 3676TIP3   OH210991   6.642   2.928   2.979
 3676TIP3    H110992   6.617   3.016   2.953
 3676TIP3    H210993   6.637   2.877   2.899
 3677TIP3   OH210994   1.368   4.127   3.604
 3677TIP3    H110995   1.462   4.111   3.615
 3677TIP3    H210996   1.339   4.059   3.544
 3678TIP3   OH210997   6.987   5.909   1.650
 3678TIP3    H110998   6.947   5.892   1.735
 3678TIP3    H210999   6.913   5.911   1.589
 3679TIP3   OH211000   1.053   2.716   5.468
 3679TIP3    H111001   1.096   2.801   5.460
 3679TIP3    H211002   0.968   2.735   5.508
 3680TIP3   OH211003   3.988   0.286   2.663
 3680TIP3    H111004   3.995   0.368   2.614
 3680TIP3    H211005   3.938   0.228   2.605
 3681TIP3   OH211006   4.525   4.278   5.437
 3681TIP3    H111007   4.514   4.268   5.532
 3681TIP3    H211008   4.488   4.364   5.417
 3682TIP3   OH211009   0.094   2.930   5.837
 3682TIP3    H111010   0.030   2.999   5.819
 3682TIP3    H211011   0.121   2.899   5.751
 3683TIP3   OH211012   2.777   0.176   1.000
 3683TIP3    H111013   2.780   0.085   1.030
 3683TIP3    H211014   2.869   0.198   0.982
 3684TIP3   OH211015   4.214   3.733   5.124
 3684TIP3    H111016   4.209   3.652   5.072
 3684TIP3    H211017   4.123   3.759   5.136
 3685TIP3   OH211018   2.441   1.466   4.512
 3685TIP3    H111019   2.367   1.415   4.481
 3685TIP3    H211020   2.402   1.547   4.546
 3686TIP3   OH211021   1.837   0.802   0.534
 3686TIP3    H111022   1.767   0.821   0.471
 3686TIP3    H211023   1.908   0.862   0.510
 3687TIP3   OH211024   4.013   5.012   1.945
 3687TIP3    H111025   4.064   5.092   1.934
 3687TIP3    H211026   3.963   5.026   2.025
 3688TIP3   OH211027   2.806   2.089   1.795
 3688TIP3    H111028   2.840   2.118   1.710
 3688TIP3    H211029   2.883   2.081   1.851
 3689TIP3   OH211030   4.978   4.181   3.169
 3689TIP3    H111031   4.928   4.257   3.199
 3689TIP3    H211032   5.045   4.169   3.236
 3690TIP3   OH211033   1.303   5.045   3.578
 3690TIP3    H111034   1.228   5.065   3.521
 3690TIP3    H211035   1.324   5.129   3.620
 3691TIP3   OH211036   2.838   3.843   2.958
 3691TIP3    H111037   2.818   3.936   2.949
 3691TIP3    H211038   2.849   3.829   3.052
 3692TIP3   OH211039   5.913   3.190   0.529
 3692TIP3    H111040   5.952   3.155   0.449
 3692TIP3    H211041   5.968   3.154   0.599
 3693TIP3   OH211042   4.138   0.046   0.050
 3693TIP3    H111043   4.152  -0.038   0.093
 3693TIP3    H211044   4.065   0.030  -0.010
 3694TIP3   OH211045   4.669   2.248   0.673
 3694TIP3    H111046   4.759   2.272   0.695
 3694TIP3    H211047   4.662   2.266   0.579
 3695TIP3   OH211048   4.107   4.655   4.194
 3695TIP3    H111049   4.018   4.657   4.230
 3695TIP3    H211050   4.097   4.683   4.104
 3696TIP3   OH211051   4.380   1.854   3.599
 3696TIP3    H111052   4.411   1.794   3.666
 3696TIP3    H211053   4.415   1.939   3.624
 3697TIP3   OH211054   4.761   5.186   3.037
 3697TIP3    H111055   4.855   5.174   3.033
 3697TIP3    H211056   4.730   5.175   2.947
 3698TIP3   OH211057   5.697   1.331   5.300
 3698TIP3    H111058   5.666   1.311   5.388
 3698TIP3    H211059   5.636   1.397   5.268
 3699TIP3   OH211060   0.884   0.786   2.705
 3699TIP3    H111061   0.854   0.812   2.792
 3699TIP3    H211062   0.897   0.869   2.659
 3700TIP3   OH211063   3.296   3.341   5.147
 3700TIP3    H111064   3.223   3.402   5.140
 3700TIP3    H211065   3.279   3.276   5.079
 3701TIP3   OH211066   3.376   3.888   3.371
 3701TIP3    H111067   3.300   3.838   3.343
 3701TIP3    H211068   3.446   3.823   3.379
 3702TIP3   OH211069   0.319   6.731   4.725
 3702TIP3    H111070   0.387   6.666   4.708
 3702TIP3    H211071   0.350   6.778   4.803
 3703TIP3   OH211072   5.335   3.512   0.516
 3703TIP3    H111073   5.303   3.423   0.498
 3703TIP3    H211074   5.426   3.511   0.486
 3704TIP3   OH211075   1.123   1.382   5.043
 3704TIP3    H111076   1.148   1.464   5.086
 3704TIP3    H211077   1.111   1.406   4.951
 3705TIP3   OH211078   1.572   0.863   4.630
 3705TIP3    H111079   1.599   0.910   4.551
 3705TIP3    H211080   1.511   0.797   4.599
 3706TIP3   OH211081   2.173   6.431   2.405
 3706TIP3    H111082   2.237   6.402   2.340
 3706TIP3    H211083   2.193   6.380   2.484
 3707TIP3   OH211084   6.194   0.687   4.362
 3707TIP3    H111085   6.148   0.752   4.415
 3707TIP3    H211086   6.151   0.691   4.276
 3708TIP3   OH211087   3.829   3.796   0.590
 3708TIP3    H111088   3.753   3.737   0.591
 3708TIP3    H211089   3.905   3.738   0.597
 3709TIP3   OH211090   2.553   2.173   0.918
 3709TIP3    H111091   2.549   2.093   0.867
 3709TIP3    H211092   2.645   2.180   0.945
 3710TIP3   OH211093   5.169   2.065   0.380
 3710TIP3    H111094   5.230   2.111   0.323
 3710TIP3    H211095   5.161   2.121   0.457
 3711TIP3   OH211096   5.289   1.603   0.656
 3711TIP3    H111097   5.290   1.695   0.682
 3711TIP3    H211098   5.377   1.587   0.620
 3712TIP3   OH211099   6.633   6.448   4.155
 3712TIP3    H111100   6.553   6.398   4.142
 3712TIP3    H211101   6.608   6.540   4.144
 3713TIP3   OH211102   5.363   5.128   3.213
 3713TIP3    H111103   5.424   5.093   3.148
 3713TIP3    H211104   5.300   5.179   3.162
 3714TIP3   OH211105   2.425   4.988   1.103
 3714TIP3    H111106   2.377   4.946   1.032
 3714TIP3    H211107   2.501   4.932   1.117
 3715TIP3   OH211108   4.718   2.487   4.964
 3715TIP3    H111109   4.629   2.456   4.947
 3715TIP3    H211110   4.706   2.576   4.998
 3716TIP3   OH211111   2.649   4.354   5.292
 3716TIP3    H111112   2.742   4.332   5.300
 3716TIP3    H211113   2.648   4.440   5.250
 3717TIP3   OH211114   2.612   1.998   2.811
 3717TIP3    H111115   2.701   2.032   2.798
 3717TIP3    H211116   2.558   2.047   2.749
 3718TIP3   OH211117   5.072   1.630   3.059
 3718TIP3    H111118   5.100   1.694   2.993
 3718TIP3    H211119   5.061   1.549   3.011
 3719TIP3   OH211120   4.243   0.138   2.702
 3719TIP3    H111121   4.151   0.152   2.678
 3719TIP3    H211122   4.259   0.046   2.680
 3720TIP3   OH211123   3.828   3.006   4.719
 3720TIP3    H111124   3.771   2.929   4.714
 3720TIP3    H211125   3.800   3.061   4.646
 3721TIP3   OH211126   3.956   4.423   5.307
 3721TIP3    H111127   3.955   4.374   5.389
 3721TIP3    H211128   4.049   4.427   5.283
 3722TIP3   OH211129   1.640   4.141   1.227
 3722TIP3    H111130   1.733   4.141   1.204
 3722TIP3    H211131   1.629   4.063   1.283
 3723TIP3   OH211132   4.636   3.569   2.361
 3723TIP3    H111133   4.622   3.519   2.280
 3723TIP3    H211134   4.713   3.530   2.401
 3724TIP3   OH211135   4.136   0.759   0.620
 3724TIP3    H111136   4.066   0.723   0.566
 3724TIP3    H211137   4.198   0.795   0.557
 3725TIP3   OH211138   3.337   1.768   3.844
 3725TIP3    H111139   3.247   1.736   3.844
 3725TIP3    H211140   3.390   1.692   3.819
 3726TIP3   OH211141   3.926   5.262   0.179
 3726TIP3    H111142   4.010   5.305   0.167
 3726TIP3    H211143   3.895   5.244   0.090
 3727TIP3   OH211144   0.350   1.960   5.838
 3727TIP3    H111145   0.311   2.046   5.822
 3727TIP3    H211146   0.301   1.901   5.782
 3728TIP3   OH211147   7.043   3.240   2.638
 3728TIP3    H111148   6.986   3.180   2.687
 3728TIP3    H211149   7.074   3.189   2.563
 3729TIP3   OH211150   3.099   0.780  -0.003
 3729TIP3    H111151   3.189   0.803  -0.024
 3729TIP3    H211152   3.106   0.720   0.071
 3730TIP3   OH211153   4.223   3.588   4.303
 3730TIP3    H111154   4.316   3.589   4.325
 3730TIP3    H211155   4.221   3.571   4.208
 3731TIP3   OH211156   1.185   3.917   0.868
 3731TIP3    H111157   1.191   4.005   0.905
 3731TIP3    H211158   1.123   3.871   0.925
 3732TIP3   OH211159   1.365   4.036   2.806
 3732TIP3    H111160   1.301   4.046   2.736
 3732TIP3    H211161   1.444   4.080   2.773
 3733TIP3   OH211162   0.323   1.497   5.670
 3733TIP3    H111163   0.229   1.488   5.688
 3733TIP3    H211164   0.354   1.407   5.659
 3734TIP3   OH211165   3.024   1.983   4.096
 3734TIP3    H111166   3.007   2.005   4.188
 3734TIP3    H211167   3.093   1.917   4.100
 3735TIP3   OH211168   2.220   3.488   3.372
 3735TIP3    H111169   2.140   3.505   3.322
 3735TIP3    H211170   2.250   3.575   3.398
 3736TIP3   OH211171   3.668   2.018   2.878
 3736TIP3    H111172   3.710   2.018   2.792
 3736TIP3    H211173   3.636   2.108   2.890
 3737TIP3   OH211174   1.969   2.331   3.482
 3737TIP3    H111175   1.910   2.258   3.465
 3737TIP3    H211176   1.953   2.354   3.574
 3738TIP3   OH211177   4.708   1.750   5.379
 3738TIP3    H111178   4.747   1.665   5.398
 3738TIP3    H211179   4.667   1.776   5.461
 3739TIP3   OH211180   4.438   1.392   5.329
 3739TIP3    H111181   4.407   1.464   5.385
 3739TIP3    H211182   4.482   1.435   5.256
 3740TIP3   OH211183   3.549   2.197   2.556
 3740TIP3    H111184   3.598   2.164   2.481
 3740TIP3    H211185   3.605   2.265   2.593
 3741TIP3   OH211186   0.247   3.878   3.978
 3741TIP3    H111187   0.152   3.881   3.974
 3741TIP3    H211188   0.270   3.792   3.944
 3742TIP3   OH211189   1.190   2.339   1.288
 3742TIP3    H111190   1.161   2.389   1.212
 3742TIP3    H211191   1.283   2.324   1.273
 3743TIP3   OH211192   2.778   3.523   0.274
 3743TIP3    H111193   2.816   3.563   0.196
 3743TIP3    H211194   2.739   3.597   0.321
 3744TIP3   OH211195   4.256   5.205   2.004
 3744TIP3    H111196   4.287   5.219   2.094
 3744TIP3    H211197   4.231   5.292   1.973
 3745TIP3   OH211198   5.938   0.317   0.191
 3745TIP3    H111199   5.942   0.412   0.192
 3745TIP3    H211200   5.988   0.289   0.268
 3746TIP3   OH211201   1.369   0.689   4.295
 3746TIP3    H111202   1.407   0.767   4.334
 3746TIP3    H211203   1.307   0.657   4.361
 3747TIP3   OH211204   2.532   5.931   0.330
 3747TIP3    H111205   2.533   5.912   0.423
 3747TIP3    H211206   2.441   5.918   0.303
 3748TIP3   OH211207   1.582   5.970   4.669
 3748TIP3    H111208   1.589   5.876   4.650
 3748TIP3    H211209   1.660   6.008   4.630
 3749TIP3   OH211210   4.321   3.990   1.625
 3749TIP3    H111211   4.309   4.055   1.695
 3749TIP3    H211212   4.373   4.035   1.559
 3750TIP3   OH211213   4.467   5.137   1.400
 3750TIP3    H111214   4.492   5.128   1.308
 3750TIP3    H211215   4.372   5.140   1.399
 3751TIP3   OH211216   3.079   5.775   4.512
 3751TIP3    H111217   3.023   5.849   4.535
 3751TIP3    H211218   3.160   5.789   4.561
 3752TIP3   OH211219   4.100   2.329   1.470
 3752TIP3    H111220   4.117   2.418   1.439
 3752TIP3    H211221   4.047   2.340   1.549
 3753TIP3   OH211222   1.777   4.031   2.633
 3753TIP3    H111223   1.692   4.067   2.608
 3753TIP3    H211224   1.824   4.106   2.670
 3754TIP3   OH211225   1.457   2.287   2.230
 3754TIP3    H111226   1.479   2.213   2.286
 3754TIP3    H211227   1.446   2.361   2.291
 3755TIP3   OH211228   0.195   5.074   5.374
 3755TIP3    H111229   0.271   5.125   5.402
 3755TIP3    H211230   0.210   4.986   5.409
 3756TIP3   OH211231   5.184   6.749   5.664
 3756TIP3    H111232   5.241   6.719   5.593
 3756TIP3    H211233   5.236   6.739   5.743
 3757TIP3   OH211234   4.467   3.149   1.938
 3757TIP3    H111235   4.391   3.197   1.969
 3757TIP3    H211236   4.433   3.063   1.912
 3758TIP3   OH211237   6.716   0.785   4.026
 3758TIP3    H111238   6.796   0.739   4.051
 3758TIP3    H211239   6.717   0.784   3.930
 3759TIP3   OH211240   1.777   6.041   5.021
 3759TIP3    H111241   1.738   6.099   4.955
 3759TIP3    H211242   1.823   6.100   5.080
 3760TIP3   OH211243   6.539   4.966   3.294
 3760TIP3    H111244   6.484   5.031   3.249
 3760TIP3    H211245   6.613   4.953   3.235
 3761TIP3   OH211246   0.503   0.375   1.330
 3761TIP3    H111247   0.585   0.388   1.282
 3761TIP3    H211248   0.530   0.356   1.419
 3762TIP3   OH211249   2.730   1.100   4.124
 3762TIP3    H111250   2.823   1.078   4.110
 3762TIP3    H211251   2.689   1.087   4.039
 3763TIP3   OH211252   0.411   4.671   0.172
 3763TIP3    H111253   0.369   4.605   0.118
 3763TIP3    H211254   0.400   4.753   0.123
 3764TIP3   OH211255   0.137   2.377   5.287
 3764TIP3    H111256   0.144   2.336   5.373
 3764TIP3    H211257   0.168   2.467   5.301
 3765TIP3   OH211258   0.341   0.636   3.221
 3765TIP3    H111259   0.343   0.625   3.316
 3765TIP3    H211260   0.301   0.722   3.208
 3766TIP3   OH211261   5.216   2.154   5.737
 3766TIP3    H111262   5.148   2.117   5.792
 3766TIP3    H211263   5.186   2.140   5.647
 3767TIP3   OH211264   4.177   1.322   4.620
 3767TIP3    H111265   4.254   1.268   4.638
 3767TIP3    H211266   4.172   1.382   4.694
 3768TIP3   OH211267   5.597   1.985   1.732
 3768TIP3    H111268   5.542   2.044   1.784
 3768TIP3    H211269   5.571   2.002   1.641
 3769TIP3   OH211270   6.587   0.583   1.279
 3769TIP3    H111271   6.559   0.517   1.342
 3769TIP3    H211272   6.530   0.569   1.203
 3770TIP3   OH211273   6.750   1.955   1.776
 3770TIP3    H111274   6.722   1.993   1.859
 3770TIP3    H211275   6.826   1.902   1.797
 3771TIP3   OH211276   1.320   6.232   5.681
 3771TIP3    H111277   1.265   6.270   5.613
 3771TIP3    H211278   1.393   6.295   5.690
 3772TIP3   OH211279   5.198   1.799   4.406
 3772TIP3    H111280   5.218   1.732   4.470
 3772TIP3    H211281   5.266   1.789   4.339
 3773TIP3   OH211282   1.922   0.363   3.941
 3773TIP3    H111283   1.884   0.286   3.899
 3773TIP3    H211284   1.871   0.375   4.021
 3774TIP3   OH211285   0.392   1.540   3.950
 3774TIP3    H111286   0.361   1.529   4.040
 3774TIP3    H211287   0.431   1.627   3.949
 3775TIP3   OH211288   5.002   4.151   5.772
 3775TIP3    H111289   5.001   4.062   5.809
 3775TIP3    H211290   5.075   4.194   5.816
 3776TIP3   OH211291   4.523   0.151   2.282
 3776TIP3    H111292   4.511   0.062   2.317
 3776TIP3    H211293   4.618   0.164   2.279
 3777TIP3   OH211294   0.924   3.910   1.358
 3777TIP3    H111295   0.952   3.998   1.382
 3777TIP3    H211296   0.868   3.922   1.281
 3778TIP3   OH211297   1.405   2.816   1.977
 3778TIP3    H111298   1.312   2.796   1.967
 3778TIP3    H211299   1.407   2.909   1.999
 3779TIP3   OH211300   4.808   6.139   0.368
 3779TIP3    H111301   4.779   6.134   0.278
 3779TIP3    H211302   4.853   6.224   0.375
 3780TIP3   OH211303   5.940   2.622   3.175
 3780TIP3    H111304   6.016   2.679   3.164
 3780TIP3    H211305   5.889   2.664   3.244
 3781TIP3   OH211306   5.840   6.697   0.914
 3781TIP3    H111307   5.829   6.613   0.957
 3781TIP3    H211308   5.907   6.682   0.847
 3782TIP3   OH211309   0.524   1.049   2.407
 3782TIP3    H111310   0.471   0.980   2.446
 3782TIP3    H211311   0.461   1.115   2.380
 3783TIP3   OH211312   4.796   5.617   4.672
 3783TIP3    H111313   4.734   5.686   4.697
 3783TIP3    H211314   4.881   5.654   4.694
 3784TIP3   OH211315   4.401   0.596   4.628
 3784TIP3    H111316   4.471   0.535   4.652
 3784TIP3    H211317   4.337   0.590   4.699
 3785TIP3   OH211318   5.122   5.196   3.987
 3785TIP3    H111319   5.165   5.111   3.977
 3785TIP3    H211320   5.033   5.174   4.015
 3786TIP3   OH211321   7.210   0.496   0.908
 3786TIP3    H111322   7.177   0.570   0.857
 3786TIP3    H211323   7.165   0.420   0.870
 3787TIP3   OH211324   5.452   6.477   3.230
 3787TIP3    H111325   5.530   6.529   3.253
 3787TIP3    H211326   5.418   6.447   3.315
 3788TIP3   OH211327   4.042   4.310   3.594
 3788TIP3    H111328   3.986   4.367   3.647
 3788TIP3    H211329   4.126   4.356   3.590
 3789TIP3   OH211330   4.292   2.977   4.284
 3789TIP3    H111331   4.260   2.887   4.290
 3789TIP3    H211332   4.242   3.016   4.212
 3790TIP3   OH211333   3.031   1.694   1.928
 3790TIP3    H111334   3.007   1.694   2.021
 3790TIP3    H211335   3.005   1.608   1.896
 3791TIP3   OH211336   2.703   5.806   5.685
 3791TIP3    H111337   2.679   5.721   5.650
 3791TIP3    H211338   2.790   5.793   5.723
 3792TIP3   OH211339   7.146   6.080   4.630
 3792TIP3    H111340   7.203   6.003   4.638
 3792TIP3    H211341   7.182   6.129   4.555
 3793TIP3   OH211342   5.435   2.923   0.461
 3793TIP3    H111343   5.479   2.837   0.459
 3793TIP3    H211344   5.502   2.983   0.495
 3794TIP3   OH211345   5.079   0.056   5.690
 3794TIP3    H111346   5.076   0.093   5.601
 3794TIP3    H211347   4.990   0.066   5.723
 3795TIP3   OH211348   3.232   4.946   4.163
 3795TIP3    H111349   3.313   4.903   4.136
 3795TIP3    H211350   3.207   4.998   4.086
 3796TIP3   OH211351   1.142   4.107   4.929
 3796TIP3    H111352   1.230   4.082   4.902
 3796TIP3    H211353   1.086   4.034   4.901
 3797TIP3   OH211354   7.233   4.021   4.876
 3797TIP3    H111355   7.173   4.095   4.883
 3797TIP3    H211356   7.176   3.947   4.853
 3798TIP3   OH211357   2.201   0.866   0.755
 3798TIP3    H111358   2.153   0.942   0.788
 3798TIP3    H211359   2.293   0.894   0.754
 3799TIP3   OH211360   6.471   2.873   5.609
 3799TIP3    H111361   6.384   2.833   5.603
 3799TIP3    H211362   6.531   2.800   5.596
 3800TIP3   OH211363   1.984   3.433   5.752
 3800TIP3    H111364   1.905   3.380   5.761
 3800TIP3    H211365   2.028   3.426   5.837
 3801TIP3   OH211366   4.158   4.507   1.116
 3801TIP3    H111367   4.165   4.413   1.099
 3801TIP3    H211368   4.224   4.547   1.058
 3802TIP3   OH211369   0.157   4.278   1.401
 3802TIP3    H111370   0.119   4.329   1.472
 3802TIP3    H211371   0.104   4.300   1.325
 3803TIP3   OH211372   2.115   6.061   4.967
 3803TIP3    H111373   2.090   5.971   4.943
 3803TIP3    H211374   2.209   6.064   4.953
 3804TIP3   OH211375   1.781   4.588   2.039
 3804TIP3    H111376   1.824   4.547   1.964
 3804TIP3    H211377   1.688   4.570   2.026
 3805TIP3   OH211378   2.568   5.610   1.801
 3805TIP3    H111379   2.535   5.564   1.879
 3805TIP3    H211380   2.591   5.540   1.740
 3806TIP3   OH211381   0.339   5.323   3.203
 3806TIP3    H111382   0.351   5.303   3.110
 3806TIP3    H211383   0.254   5.365   3.207
 3807TIP3   OH211384   5.611   6.031   5.224
 3807TIP3    H111385   5.523   6.049   5.192
 3807TIP3    H211386   5.668   6.056   5.151
 3808TIP3   OH211387   0.802   2.853   3.745
 3808TIP3    H111388   0.718   2.841   3.788
 3808TIP3    H211389   0.835   2.936   3.780
 3809TIP3   OH211390   6.043   0.854   5.782
 3809TIP3    H111391   5.967   0.821   5.734
 3809TIP3    H211392   6.006   0.889   5.863
 3810TIP3   OH211393   1.463   1.030   0.224
 3810TIP3    H111394   1.516   1.110   0.220
 3810TIP3    H211395   1.398   1.042   0.155
 3811TIP3   OH211396   1.084   0.532   5.007
 3811TIP3    H111397   1.080   0.628   5.017
 3811TIP3    H211398   1.034   0.515   4.927
 3812TIP3   OH211399   4.814   6.366   3.427
 3812TIP3    H111400   4.855   6.281   3.442
 3812TIP3    H211401   4.777   6.390   3.511
 3813TIP3   OH211402   5.594   6.377   4.309
 3813TIP3    H111403   5.501   6.401   4.311
 3813TIP3    H211404   5.635   6.446   4.257
 3814TIP3   OH211405   3.486   1.762   0.032
 3814TIP3    H111406   3.524   1.835   0.080
 3814TIP3    H211407   3.562   1.712   0.001
 3815TIP3   OH211408   5.753   5.104   3.348
 3815TIP3    H111409   5.670   5.062   3.327
 3815TIP3    H211410   5.775   5.072   3.435
 3816TIP3   OH211411   0.587   1.198   0.553
 3816TIP3    H111412   0.580   1.230   0.463
 3816TIP3    H211413   0.518   1.132   0.561
 3817TIP3   OH211414   0.339   4.986   0.249
 3817TIP3    H111415   0.383   4.952   0.171
 3817TIP3    H211416   0.263   4.929   0.260
 3818TIP3   OH211417   4.370   3.313   4.409
 3818TIP3    H111418   4.286   3.346   4.439
 3818TIP3    H211419   4.431   3.386   4.424
 3819TIP3   OH211420   3.571   5.956   3.909
 3819TIP3    H111421   3.640   5.890   3.916
 3819TIP3    H211422   3.551   5.980   4.000
 3820TIP3   OH211423   4.751   3.696   1.770
 3820TIP3    H111424   4.752   3.666   1.860
 3820TIP3    H211425   4.771   3.790   1.776
 3821TIP3   OH211426   1.367   1.994   3.316
 3821TIP3    H111427   1.384   1.946   3.235
 3821TIP3    H211428   1.406   2.080   3.302
 3822TIP3   OH211429   1.494   6.035   1.323
 3822TIP3    H111430   1.415   6.073   1.286
 3822TIP3    H211431   1.565   6.087   1.285
 3823TIP3   OH211432   0.545   1.489   1.920
 3823TIP3    H111433   0.513   1.409   1.878
 3823TIP3    H211434   0.504   1.488   2.006
 3824TIP3   OH211435   1.015   6.731   1.394
 3824TIP3    H111436   1.049   6.814   1.427
 3824TIP3    H211437   0.944   6.708   1.454
 3825TIP3   OH211438   3.133   0.154   1.170
 3825TIP3    H111439   3.179   0.084   1.124
 3825TIP3    H211440   3.087   0.202   1.101
 3826TIP3   OH211441   3.883   1.456   3.896
 3826TIP3    H111442   3.854   1.365   3.896
 3826TIP3    H211443   3.932   1.465   3.815
 3827TIP3   OH211444   0.233   4.250   2.908
 3827TIP3    H111445   0.196   4.321   2.960
 3827TIP3    H211446   0.295   4.207   2.967
 3828TIP3   OH211447   3.009   3.174   4.399
 3828TIP3    H111448   2.974   3.226   4.471
 3828TIP3    H211449   2.980   3.220   4.320
 3829TIP3   OH211450   3.645   0.004   5.842
 3829TIP3    H111451   3.657  -0.016   5.935
 3829TIP3    H211452   3.638   0.099   5.839
 3830TIP3   OH211453   1.586   3.049   3.936
 3830TIP3    H111454   1.665   3.097   3.910
 3830TIP3    H211455   1.603   2.959   3.908
 3831TIP3   OH211456   2.210   5.521   0.687
 3831TIP3    H111457   2.188   5.448   0.745
 3831TIP3    H211458   2.127   5.546   0.646
 3832TIP3   OH211459   4.572   0.819   4.350
 3832TIP3    H111460   4.478   0.817   4.363
 3832TIP3    H211461   4.586   0.781   4.264
 3833TIP3   OH211462   3.500   0.737   4.767
 3833TIP3    H111463   3.444   0.750   4.691
 3833TIP3    H211464   3.588   0.722   4.730
 3834TIP3   OH211465   5.688   0.527   0.383
 3834TIP3    H111466   5.700   0.461   0.451
 3834TIP3    H211467   5.733   0.604   0.416
 3835TIP3   OH211468   3.632   0.283   5.792
 3835TIP3    H111469   3.693   0.338   5.841
 3835TIP3    H211470   3.588   0.343   5.731
 3836TIP3   OH211471   4.895   6.202   5.873
 3836TIP3    H111472   4.881   6.221   5.780
 3836TIP3    H211473   4.971   6.256   5.897
 3837TIP3   OH211474   4.746   4.263   5.698
 3837TIP3    H111475   4.783   4.336   5.649
 3837TIP3    H211476   4.822   4.221   5.739
 3838TIP3   OH211477   1.384   0.668   0.278
 3838TIP3    H111478   1.293   0.689   0.258
 3838TIP3    H211479   1.396   0.697   0.369
 3839TIP3   OH211480   6.199   2.787   3.162
 3839TIP3    H111481   6.294   2.791   3.160
 3839TIP3    H211482   6.172   2.809   3.072
 3840TIP3   OH211483   0.081   0.985   4.099
 3840TIP3    H111484   0.061   0.924   4.171
 3840TIP3    H211485   0.066   1.072   4.137
 3841TIP3   OH211486   0.190   5.606   5.795
 3841TIP3    H111487   0.149   5.613   5.709
 3841TIP3    H211488   0.263   5.545   5.782
 3842TIP3   OH211489   4.706   2.054   3.860
 3842TIP3    H111490   4.612   2.034   3.854
 3842TIP3    H211491   4.722   2.064   3.954
 3843TIP3   OH211492   4.477   3.490   1.958
 3843TIP3    H111493   4.536   3.465   1.887
 3843TIP3    H211494   4.516   3.569   1.995
 3844TIP3   OH211495   5.129   0.888   3.930
 3844TIP3    H111496   5.134   0.954   3.861
 3844TIP3    H211497   5.181   0.815   3.896
 3845TIP3   OH211498   0.659   4.021   0.533
 3845TIP3    H111499   0.660   3.973   0.616
 3845TIP3    H211500   0.627   4.108   0.556
 3846TIP3   OH211501   1.604   2.673   1.202
 3846TIP3    H111502   1.611   2.618   1.280
 3846TIP3    H211503   1.549   2.623   1.142
 3847TIP3   OH211504   0.183   5.089   1.042
 3847TIP3    H111505   0.167   5.088   0.948
 3847TIP3    H211506   0.134   5.164   1.075
 3848TIP3   OH211507   0.869   2.734   0.398
 3848TIP3    H111508   0.878   2.791   0.474
 3848TIP3    H211509   0.796   2.676   0.420
 3849TIP3   OH211510   5.687   3.216   4.534
 3849TIP3    H111511   5.641   3.149   4.483
 3849TIP3    H211512   5.779   3.190   4.530
 3850TIP3   OH211513   6.973   0.208   5.296
 3850TIP3    H111514   7.006   0.120   5.311
 3850TIP3    H211515   6.941   0.236   5.382
 3851TIP3   OH211516   0.498   0.420   4.364
 3851TIP3    H111517   0.445   0.341   4.367
 3851TIP3    H211518   0.524   0.427   4.272
 3852TIP3   OH211519   0.413   4.153   1.132
 3852TIP3    H111520   0.475   4.128   1.064
 3852TIP3    H211521   0.328   4.150   1.089
 3853TIP3   OH211522   0.568   3.348   1.791
 3853TIP3    H111523   0.517   3.269   1.805
 3853TIP3    H211524   0.653   3.317   1.759
 3854TIP3   OH211525   2.976   4.232   1.244
 3854TIP3    H111526   3.007   4.194   1.162
 3854TIP3    H211527   2.916   4.302   1.216
 3855TIP3   OH211528   3.374   1.947   2.700
 3855TIP3    H111529   3.391   1.962   2.607
 3855TIP3    H211530   3.455   1.973   2.743
 3856TIP3   OH211531   0.336   3.852   1.054
 3856TIP3    H111532   0.338   3.797   0.975
 3856TIP3    H211533   0.408   3.818   1.107
 3857TIP3   OH211534   6.644   2.712   3.618
 3857TIP3    H111535   6.704   2.638   3.630
 3857TIP3    H211536   6.613   2.702   3.528
 3858TIP3   OH211537   1.974   4.462   1.856
 3858TIP3    H111538   2.068   4.448   1.867
 3858TIP3    H211539   1.966   4.503   1.770
 3859TIP3   OH211540   6.243   1.665   0.385
 3859TIP3    H111541   6.250   1.719   0.463
 3859TIP3    H211542   6.324   1.614   0.383
 3860TIP3   OH211543   6.346   6.556   5.767
 3860TIP3    H111544   6.360   6.651   5.769
 3860TIP3    H211545   6.427   6.519   5.803
 3861TIP3   OH211546   3.451   5.731   5.367
 3861TIP3    H111547   3.392   5.726   5.442
 3861TIP3    H211548   3.398   5.702   5.292
 3862TIP3   OH211549   4.957   5.411   0.495
 3862TIP3    H111550   5.007   5.330   0.483
 3862TIP3    H211551   4.960   5.426   0.589
 3863TIP3   OH211552   3.315   1.783   2.984
 3863TIP3    H111553   3.254   1.815   2.917
 3863TIP3    H211554   3.402   1.791   2.943
 3864TIP3   OH211555   3.325   0.476   2.156
 3864TIP3    H111556   3.278   0.556   2.181
 3864TIP3    H211557   3.374   0.452   2.235
 3865TIP3   OH211558   3.012   4.102   1.502
 3865TIP3    H111559   3.043   4.171   1.560
 3865TIP3    H211560   2.978   4.149   1.426
 3866TIP3   OH211561   6.546   6.582   3.649
 3866TIP3    H111562   6.537   6.673   3.677
 3866TIP3    H211563   6.473   6.536   3.690
 3867TIP3   OH211564   6.803   3.734   1.216
 3867TIP3    H111565   6.882   3.776   1.251
 3867TIP3    H211566   6.782   3.665   1.279
 3868TIP3   OH211567   0.427   3.727   2.102
 3868TIP3    H111568   0.400   3.819   2.104
 3868TIP3    H211569   0.508   3.727   2.051
 3869TIP3   OH211570   3.394   2.603   5.075
 3869TIP3    H111571   3.489   2.613   5.085
 3869TIP3    H211572   3.384   2.516   5.036
 3870TIP3   OH211573   3.922   4.727   5.816
 3870TIP3    H111574   3.931   4.734   5.911
 3870TIP3    H211575   3.837   4.685   5.803
 3871TIP3   OH211576   7.143   2.038   1.636
 3871TIP3    H111577   7.210   1.983   1.677
 3871TIP3    H211578   7.069   1.980   1.622
 3872TIP3   OH211579   3.461   5.378   3.501
 3872TIP3    H111580   3.545   5.421   3.490
 3872TIP3    H211581   3.417   5.389   3.416
 3873TIP3   OH211582   2.168   4.248   1.531
 3873TIP3    H111583   2.082   4.263   1.491
 3873TIP3    H211584   2.169   4.305   1.608
 3874TIP3   OH211585   6.201   4.670   2.212
 3874TIP3    H111586   6.221   4.678   2.306
 3874TIP3    H211587   6.144   4.593   2.206
 3875TIP3   OH211588   0.083   6.022   4.044
 3875TIP3    H111589   0.099   6.105   3.999
 3875TIP3    H211590   0.170   5.988   4.063
 3876TIP3   OH211591   3.982   2.086   3.281
 3876TIP3    H111592   3.994   2.181   3.281
 3876TIP3    H211593   4.015   2.058   3.195
 3877TIP3   OH211594   0.569   2.022   4.977
 3877TIP3    H111595   0.515   1.948   5.005
 3877TIP3    H211596   0.519   2.064   4.908
 3878TIP3   OH211597   3.060   3.806   5.794
 3878TIP3    H111598   3.069   3.900   5.811
 3878TIP3    H211599   3.013   3.803   5.710
 3879TIP3   OH211600   4.682   3.227   1.378
 3879TIP3    H111601   4.767   3.266   1.396
 3879TIP3    H211602   4.619   3.296   1.399
 3880TIP3   OH211603   6.197   1.271   1.538
 3880TIP3    H111604   6.163   1.271   1.628
 3880TIP3    H211605   6.119   1.259   1.483
 3881TIP3   OH211606   4.182   6.362   1.472
 3881TIP3    H111607   4.167   6.400   1.385
 3881TIP3    H211608   4.114   6.400   1.527
 3882TIP3   OH211609   3.635   2.777   5.460
 3882TIP3    H111610   3.579   2.855   5.453
 3882TIP3    H211611   3.617   2.743   5.547
 3883TIP3   OH211612   6.281   5.551   3.937
 3883TIP3    H111613   6.191   5.522   3.955
 3883TIP3    H211614   6.326   5.542   4.020
 3884TIP3   OH211615   6.701   2.206   0.334
 3884TIP3    H111616   6.644   2.145   0.287
 3884TIP3    H211617   6.642   2.277   0.361
 3885TIP3   OH211618   4.417   4.686   3.825
 3885TIP3    H111619   4.441   4.631   3.898
 3885TIP3    H211620   4.491   4.681   3.765
 3886TIP3   OH211621   2.824   4.237   4.245
 3886TIP3    H111622   2.812   4.207   4.155
 3886TIP3    H211623   2.890   4.178   4.282
 3887TIP3   OH211624   3.711   3.676  -0.013
 3887TIP3    H111625   3.704   3.694   0.081
 3887TIP3    H211626   3.676   3.755  -0.054
 3888TIP3   OH211627   6.576   1.815   3.225
 3888TIP3    H111628   6.602   1.815   3.133
 3888TIP3    H211629   6.537   1.901   3.240
 3889TIP3   OH211630   6.135   4.915   1.061
 3889TIP3    H111631   6.074   4.948   1.127
 3889TIP3    H211632   6.138   4.983   0.995
 3890TIP3   OH211633   2.835   2.421   4.798
 3890TIP3    H111634   2.903   2.354   4.797
 3890TIP3    H211635   2.780   2.402   4.722
 3891TIP3   OH211636   2.820   4.146   1.841
 3891TIP3    H111637   2.778   4.136   1.927
 3891TIP3    H211638   2.783   4.076   1.788
 3892TIP3   OH211639   6.640   2.622   4.630
 3892TIP3    H111640   6.611   2.692   4.571
 3892TIP3    H211641   6.559   2.578   4.655
 3893TIP3   OH211642   4.314   2.315   3.139
 3893TIP3    H111643   4.322   2.224   3.167
 3893TIP3    H211644   4.275   2.360   3.214
 3894TIP3   OH211645   1.505   5.429   3.271
 3894TIP3    H111646   1.562   5.503   3.249
 3894TIP3    H211647   1.562   5.352   3.265
 3895TIP3   OH211648   1.607   1.861   0.704
 3895TIP3    H111649   1.659   1.941   0.709
 3895TIP3    H211650   1.658   1.796   0.753
 3896TIP3   OH211651   4.147   1.576   5.708
 3896TIP3    H111652   4.178   1.665   5.691
 3896TIP3    H211653   4.057   1.576   5.675
 3897TIP3   OH211654   4.152   4.372   1.648
 3897TIP3    H111655   4.223   4.307   1.643
 3897TIP3    H211656   4.073   4.319   1.658
 3898TIP3   OH211657   4.729   3.641   3.264
 3898TIP3    H111658   4.658   3.702   3.284
 3898TIP3    H211659   4.746   3.655   3.170
 3899TIP3   OH211660   0.752   0.511   0.164
 3899TIP3    H111661   0.754   0.593   0.116
 3899TIP3    H211662   0.688   0.458   0.116
 3900TIP3   OH211663   0.587   2.957   1.061
 3900TIP3    H111664   0.632   2.911   1.132
 3900TIP3    H211665   0.657   2.979   0.999
 3901TIP3   OH211666   6.746   2.537   0.072
 3901TIP3    H111667   6.673   2.485   0.038
 3901TIP3    H211668   6.705   2.605   0.124
 3902TIP3   OH211669   0.115   2.261   3.991
 3902TIP3    H111670   0.076   2.188   3.942
 3902TIP3    H211671   0.071   2.258   4.076
 3903TIP3   OH211672   5.610   4.633   3.472
 3903TIP3    H111673   5.703   4.615   3.454
 3903TIP3    H211674   5.567   4.625   3.387
 3904TIP3   OH211675   6.983   2.729   1.915
 3904TIP3    H111676   7.000   2.812   1.958
 3904TIP3    H211677   6.953   2.671   1.985
 3905TIP3   OH211678   6.410   1.022   4.573
 3905TIP3    H111679   6.410   0.927   4.557
 3905TIP3    H211680   6.455   1.032   4.657
 3906TIP3   OH211681   5.818   3.645   0.199
 3906TIP3    H111682   5.827   3.649   0.294
 3906TIP3    H211683   5.844   3.732   0.169
 3907TIP3   OH211684   5.127   3.137   2.129
 3907TIP3    H111685   5.035   3.156   2.114
 3907TIP3    H211686   5.173   3.216   2.101
 3908TIP3   OH211687   6.423   3.648   0.370
 3908TIP3    H111688   6.489   3.644   0.439
 3908TIP3    H211689   6.473   3.668   0.291
 3909TIP3   OH211690   0.657   1.963   3.947
 3909TIP3    H111691   0.745   1.987   3.919
 3909TIP3    H211692   0.624   2.040   3.992
 3910TIP3   OH211693   6.934   6.035   2.700
 3910TIP3    H111694   6.957   5.968   2.764
 3910TIP3    H211695   6.940   5.991   2.616
 3911TIP3   OH211696   1.562   5.048   5.426
 3911TIP3    H111697   1.486   5.103   5.405
 3911TIP3    H211698   1.620   5.106   5.476
 3912TIP3   OH211699   0.407   6.537   3.944
 3912TIP3    H111700   0.459   6.617   3.936
 3912TIP3    H211701   0.470   6.469   3.966
 3913TIP3   OH211702   3.317   6.194   3.132
 3913TIP3    H111703   3.381   6.253   3.094
 3913TIP3    H211704   3.351   6.106   3.114
 3914TIP3   OH211705   1.613   2.339   0.283
 3914TIP3    H111706   1.538   2.302   0.237
 3914TIP3    H211707   1.690   2.309   0.234
 3915TIP3   OH211708   6.753   0.023   5.532
 3915TIP3    H111709   6.669   0.055   5.565
 3915TIP3    H211710   6.756   0.054   5.441
 3916TIP3   OH211711   3.355   2.970   1.542
 3916TIP3    H111712   3.341   2.963   1.448
 3916TIP3    H211713   3.387   3.059   1.555
 3917TIP3   OH211714   5.496   0.487   2.188
 3917TIP3    H111715   5.498   0.506   2.282
 3917TIP3    H211716   5.587   0.492   2.160
 3918TIP3   OH211717   1.342   4.233   4.606
 3918TIP3    H111718   1.321   4.140   4.600
 3918TIP3    H211719   1.259   4.278   4.589
 3919TIP3   OH211720   1.820   0.243   1.229
 3919TIP3    H111721   1.825   0.230   1.134
 3919TIP3    H211722   1.885   0.311   1.248
 3920TIP3   OH211723   2.698   0.795   4.585
 3920TIP3    H111724   2.761   0.750   4.528
 3920TIP3    H211725   2.685   0.881   4.543
 3921TIP3   OH211726   2.208   2.792   3.397
 3921TIP3    H111727   2.191   2.716   3.452
 3921TIP3    H211728   2.253   2.756   3.320
 3922TIP3   OH211729   2.410   2.512   1.173
 3922TIP3    H111730   2.412   2.588   1.231
 3922TIP3    H211731   2.502   2.494   1.152
 3923TIP3   OH211732   5.279   1.085   3.422
 3923TIP3    H111733   5.329   1.061   3.345
 3923TIP3    H211734   5.257   1.002   3.464
 3924TIP3   OH211735   1.987   6.180   1.635
 3924TIP3    H111736   1.969   6.112   1.570
 3924TIP3    H211737   1.961   6.262   1.593
 3925TIP3   OH211738   2.642   5.207   0.700
 3925TIP3    H111739   2.696   5.148   0.753
 3925TIP3    H211740   2.585   5.149   0.650
 3926TIP3   OH211741   3.713   2.689   0.308
 3926TIP3    H111742   3.703   2.609   0.358
 3926TIP3    H211743   3.773   2.666   0.237
 3927TIP3   OH211744   2.140   4.633   3.938
 3927TIP3    H111745   2.125   4.705   3.998
 3927TIP3    H211746   2.218   4.588   3.973
 3928TIP3   OH211747   3.792   2.304   2.587
 3928TIP3    H111748   3.784   2.384   2.638
 3928TIP3    H211749   3.871   2.261   2.621
 3929TIP3   OH211750   4.010   1.936   4.835
 3929TIP3    H111751   4.040   1.921   4.745
 3929TIP3    H211752   3.922   1.898   4.838
 3930TIP3   OH211753   5.706   3.484   2.070
 3930TIP3    H111754   5.733   3.529   1.990
 3930TIP3    H211755   5.707   3.391   2.048
 3931TIP3   OH211756   4.389   6.371   1.663
 3931TIP3    H111757   4.398   6.466   1.654
 3931TIP3    H211758   4.304   6.351   1.623
 3932TIP3   OH211759   2.065   1.675   3.631
 3932TIP3    H111760   2.070   1.766   3.659
 3932TIP3    H211761   1.974   1.663   3.605
 3933TIP3   OH211762   5.924   1.544   1.266
 3933TIP3    H111763   5.986   1.591   1.322
 3933TIP3    H211764   5.838   1.575   1.296
 3934TIP3   OH211765   2.336   1.018   1.220
 3934TIP3    H111766   2.329   1.034   1.314
 3934TIP3    H211767   2.425   1.048   1.197
 3935TIP3   OH211768   1.313   4.486   5.614
 3935TIP3    H111769   1.324   4.549   5.543
 3935TIP3    H211770   1.316   4.400   5.571
 3936TIP3   OH211771   5.144   0.231   3.979
 3936TIP3    H111772   5.119   0.288   4.053
 3936TIP3    H211773   5.102   0.271   3.903
 3937TIP3   OH211774   6.262   5.688   0.453
 3937TIP3    H111775   6.238   5.601   0.486
 3937TIP3    H211776   6.245   5.747   0.527
 3938TIP3   OH211777   2.604   4.370   0.975
 3938TIP3    H111778   2.615   4.315   0.897
 3938TIP3    H211779   2.511   4.392   0.975
 3939TIP3   OH211780   5.060   2.777   1.829
 3939TIP3    H111781   5.047   2.758   1.736
 3939TIP3    H211782   5.133   2.722   1.855
 3940TIP3   OH211783   2.936   6.118   3.744
 3940TIP3    H111784   2.879   6.044   3.724
 3940TIP3    H211785   2.989   6.130   3.665
 3941TIP3   OH211786   6.516   3.922   0.905
 3941TIP3    H111787   6.427   3.891   0.891
 3941TIP3    H211788   6.564   3.844   0.936
 3942TIP3   OH211789   0.105   4.923   3.644
 3942TIP3    H111790   0.015   4.902   3.670
 3942TIP3    H211791   0.103   4.922   3.548
 3943TIP3   OH211792   6.391   0.930   2.269
 3943TIP3    H111793   6.395   1.021   2.237
 3943TIP3    H211794   6.481   0.911   2.296
 3944TIP3   OH211795   2.413   1.884   3.125
 3944TIP3    H111796   2.322   1.900   3.153
 3944TIP3    H211797   2.408   1.804   3.074
 3945TIP3   OH211798   4.914   0.798   3.141
 3945TIP3    H111799   4.839   0.803   3.201
 3945TIP3    H211800   4.966   0.876   3.162
 3946TIP3   OH211801   4.369   0.640   1.601
 3946TIP3    H111802   4.340   0.709   1.660
 3946TIP3    H211803   4.288   0.604   1.564
 3947TIP3   OH211804   2.079   0.408   3.627
 3947TIP3    H111805   2.135   0.456   3.688
 3947TIP3    H211806   2.025   0.475   3.587
 3948TIP3   OH211807   6.679   4.396   1.105
 3948TIP3    H111808   6.681   4.488   1.077
 3948TIP3    H211809   6.646   4.400   1.195
 3949TIP3   OH211810   0.271   0.524   0.693
 3949TIP3    H111811   0.333   0.591   0.722
 3949TIP3    H211812   0.211   0.514   0.767
 3950TIP3   OH211813   4.683   3.287   3.265
 3950TIP3    H111814   4.668   3.197   3.236
 3950TIP3    H211815   4.607   3.308   3.319
 3951TIP3   OH211816   0.387   5.632   2.972
 3951TIP3    H111817   0.481   5.647   2.980
 3951TIP3    H211818   0.358   5.614   3.061
 3952TIP3   OH211819   5.459   6.324   5.710
 3952TIP3    H111820   5.425   6.354   5.794
 3952TIP3    H211821   5.548   6.358   5.706
 3953TIP3   OH211822   4.255   0.220   4.995
 3953TIP3    H111823   4.206   0.299   4.976
 3953TIP3    H211824   4.224   0.156   4.931
 3954TIP3   OH211825   1.410   4.047   4.917
 3954TIP3    H111826   1.429   3.961   4.879
 3954TIP3    H211827   1.470   4.054   4.990
 3955TIP3   OH211828   2.597   2.870   1.176
 3955TIP3    H111829   2.643   2.952   1.196
 3955TIP3    H211830   2.627   2.848   1.087
 3956TIP3   OH211831   6.061   3.920   4.881
 3956TIP3    H111832   6.075   3.872   4.799
 3956TIP3    H211833   5.967   3.917   4.894
 3957TIP3   OH211834   3.354   0.832   4.481
 3957TIP3    H111835   3.281   0.829   4.419
 3957TIP3    H211836   3.390   0.744   4.481
 3958TIP3   OH211837   4.379   2.804   3.713
 3958TIP3    H111838   4.393   2.891   3.751
 3958TIP3    H211839   4.403   2.815   3.621
 3959TIP3   OH211840   0.606   3.631   1.888
 3959TIP3    H111841   0.578   3.540   1.877
 3959TIP3    H211842   0.697   3.624   1.916
 3960TIP3   OH211843   3.550   1.152   0.814
 3960TIP3    H111844   3.634   1.197   0.803
 3960TIP3    H211845   3.535   1.153   0.909
 3961TIP3   OH211846   2.633   0.049   1.778
 3961TIP3    H111847   2.693  -0.005   1.829
 3961TIP3    H211848   2.678   0.062   1.694
 3962TIP3   OH211849   5.359   1.059   5.212
 3962TIP3    H111850   5.382   0.991   5.277
 3962TIP3    H211851   5.285   1.021   5.164
 3963TIP3   OH211852   0.187   0.959   0.759
 3963TIP3    H111853   0.108   1.006   0.734
 3963TIP3    H211854   0.201   0.895   0.688
 3964TIP3   OH211855   6.403   6.499   5.464
 3964TIP3    H111856   6.403   6.591   5.489
 3964TIP3    H211857   6.435   6.499   5.373
 3965TIP3   OH211858   3.305   4.972   4.703
 3965TIP3    H111859   3.369   4.944   4.638
 3965TIP3    H211860   3.304   5.068   4.696
 3966TIP3   OH211861   2.895   2.737   5.268
 3966TIP3    H111862   2.853   2.698   5.192
 3966TIP3    H211863   2.956   2.801   5.232
 3967TIP3   OH211864   2.970   2.054   1.557
 3967TIP3    H111865   3.025   1.986   1.518
 3967TIP3    H211866   3.018   2.136   1.540
 3968TIP3   OH211867   5.504   4.028   2.922
 3968TIP3    H111868   5.463   3.983   2.849
 3968TIP3    H211869   5.450   4.105   2.937
 3969TIP3   OH211870   5.946   6.525   3.547
 3969TIP3    H111871   5.973   6.433   3.550
 3969TIP3    H211872   6.028   6.575   3.549
 3970TIP3   OH211873   2.752   1.047   4.447
 3970TIP3    H111874   2.731   1.112   4.514
 3970TIP3    H211875   2.755   1.096   4.365
 3971TIP3   OH211876   3.714   6.144   5.427
 3971TIP3    H111877   3.626   6.156   5.463
 3971TIP3    H211878   3.773   6.154   5.501
 3972TIP3   OH211879   5.009   4.983   3.777
 3972TIP3    H111880   5.030   5.009   3.866
 3972TIP3    H211881   5.089   5.001   3.727
 3973TIP3   OH211882   7.061   4.622   1.421
 3973TIP3    H111883   7.144   4.638   1.466
 3973TIP3    H211884   6.996   4.664   1.477
 3974TIP3   OH211885   2.720   1.879   2.380
 3974TIP3    H111886   2.806   1.921   2.381
 3974TIP3    H211887   2.658   1.951   2.368
 3975TIP3   OH211888   5.898   0.452   1.617
 3975TIP3    H111889   5.862   0.531   1.657
 3975TIP3    H211890   5.986   0.444   1.653
 3976TIP3   OH211891   6.648   3.849   4.677
 3976TIP3    H111892   6.693   3.766   4.684
 3976TIP3    H211893   6.557   3.826   4.657
 3977TIP3   OH211894   0.858   3.765   4.937
 3977TIP3    H111895   0.800   3.814   4.994
 3977TIP3    H211896   0.855   3.812   4.854
 3978TIP3   OH211897   4.091   0.620   0.857
 3978TIP3    H111898   4.112   0.677   0.782
 3978TIP3    H211899   4.033   0.554   0.820
 3979TIP3   OH211900   4.136   0.983   2.644
 3979TIP3    H111901   4.103   1.058   2.695
 3979TIP3    H211902   4.131   1.012   2.553
 3980TIP3   OH211903   5.771   4.885   4.973
 3980TIP3    H111904   5.835   4.858   5.039
 3980TIP3    H211905   5.781   4.980   4.968
 3981TIP3   OH211906   4.642   3.966   0.717
 3981TIP3    H111907   4.578   4.037   0.725
 3981TIP3    H211908   4.603   3.893   0.766
 3982TIP3   OH211909   7.170   6.584   0.985
 3982TIP3    H111910   7.192   6.670   1.020
 3982TIP3    H211911   7.144   6.533   1.062
 3983TIP3   OH211912   2.934   5.228   5.777
 3983TIP3    H111913   2.947   5.310   5.826
 3983TIP3    H211914   2.938   5.255   5.685
 3984TIP3   OH211915   4.103   3.526   4.950
 3984TIP3    H111916   4.035   3.583   4.913
 3984TIP3    H211917   4.055   3.462   5.002
 3985TIP3   OH211918   5.267   2.624   4.643
 3985TIP3    H111919   5.298   2.691   4.582
 3985TIP3    H211920   5.285   2.662   4.730
 3986TIP3   OH211921   1.836   2.455   4.319
 3986TIP3    H111922   1.877   2.375   4.287
 3986TIP3    H211923   1.909   2.513   4.341
 3987TIP3   OH211924   6.743   2.844   2.720
 3987TIP3    H111925   6.751   2.752   2.695
 3987TIP3    H211926   6.833   2.874   2.729
 3988TIP3   OH211927   4.361   1.044   2.892
 3988TIP3    H111928   4.394   0.987   2.822
 3988TIP3    H211929   4.358   0.987   2.970
 3989TIP3   OH211930   2.110   1.592   4.454
 3989TIP3    H111931   2.033   1.544   4.484
 3989TIP3    H211932   2.116   1.573   4.360
 3990TIP3   OH211933   5.356   0.952   2.543
 3990TIP3    H111934   5.424   0.997   2.493
 3990TIP3    H211935   5.279   0.953   2.485
 3991TIP3   OH211936   6.931   5.531   2.424
 3991TIP3    H111937   6.852   5.537   2.478
 3991TIP3    H211938   6.909   5.579   2.344
 3992TIP3   OH211939   5.786   6.687   5.136
 3992TIP3    H111940   5.786   6.691   5.040
 3992TIP3    H211941   5.758   6.597   5.156
 3993TIP3   OH211942   5.055   4.656   4.584
 3993TIP3    H111943   5.049   4.732   4.642
 3993TIP3    H211944   4.964   4.633   4.566
 3994TIP3   OH211945   1.908   1.875   5.151
 3994TIP3    H111946   1.818   1.904   5.134
 3994TIP3    H211947   1.922   1.804   5.088
 3995TIP3   OH211948   6.827   1.200   1.605
 3995TIP3    H111949   6.772   1.136   1.560
 3995TIP3    H211950   6.765   1.263   1.642
 3996TIP3   OH211951   0.821   6.663   5.374
 3996TIP3    H111952   0.909   6.693   5.354
 3996TIP3    H211953   0.833   6.577   5.414
 3997TIP3   OH211954   2.716   4.592   5.121
 3997TIP3    H111955   2.632   4.636   5.130
 3997TIP3    H211956   2.767   4.623   5.195
 3998TIP3   OH211957   5.115   2.017   1.525
 3998TIP3    H111958   5.055   2.088   1.503
 3998TIP3    H211959   5.060   1.938   1.527
 3999TIP3   OH211960   5.758   4.286   0.715
 3999TIP3    H111961   5.679   4.332   0.686
 3999TIP3    H211962   5.829   4.329   0.667
 4000TIP3   OH211963   4.386   2.393   0.239
 4000TIP3    H111964   4.403   2.323   0.176
 4000TIP3    H211965   4.306   2.366   0.284
 4001TIP3   OH211966   2.714   1.313   0.748
 4001TIP3    H111967   2.754   1.234   0.711
 4001TIP3    H211968   2.654   1.344   0.680
 4002TIP3   OH211969   3.776   6.626   3.859
 4002TIP3    H111970   3.708   6.561   3.875
 4002TIP3    H211971   3.805   6.608   3.769
 4003TIP3   OH211972   3.147   5.938   4.075
 4003TIP3    H111973   3.064   5.898   4.103
 4003TIP3    H211974   3.207   5.922   4.148
 4004TIP3   OH211975   7.075   4.385   4.303
 4004TIP3    H111976   6.992   4.398   4.349
 4004TIP3    H211977   7.065   4.300   4.261
 4005TIP3   OH211978   4.758   1.909   1.242
 4005TIP3    H111979   4.665   1.893   1.226
 4005TIP3    H211980   4.794   1.931   1.156
 4006TIP3   OH211981   1.797   0.604   0.725
 4006TIP3    H111982   1.724   0.665   0.725
 4006TIP3    H211983   1.861   0.643   0.665
 4007TIP3   OH211984   3.948   3.725   0.338
 4007TIP3    H111985   3.991   3.807   0.314
 4007TIP3    H211986   3.855   3.743   0.329
 4008TIP3   OH211987   1.352   4.950   0.544
 4008TIP3    H111988   1.352   4.855   0.552
 4008TIP3    H211989   1.428   4.970   0.490
 4009TIP3   OH211990   5.659   5.824   0.046
 4009TIP3    H111991   5.652   5.784  -0.041
 4009TIP3    H211992   5.574   5.809   0.086
 4010TIP3   OH211993   4.306   4.359   3.561
 4010TIP3    H111994   4.301   4.326   3.471
 4010TIP3    H211995   4.325   4.452   3.551
 4011TIP3   OH211996   1.553   5.474   0.086
 4011TIP3    H111997   1.475   5.472   0.030
 4011TIP3    H211998   1.521   5.506   0.170
 4012TIP3   OH211999  -0.007   2.821   2.811
 4012TIP3    H112000   0.029   2.750   2.758
 4012TIP3    H212001   0.000   2.790   2.901
 4013TIP3   OH212002   5.715   0.386   4.918
 4013TIP3    H112003   5.648   0.344   4.972
 4013TIP3    H212004   5.671   0.403   4.835
 4014TIP3   OH212005   4.791   5.825   2.218
 4014TIP3    H112006   4.797   5.731   2.238
 4014TIP3    H212007   4.699   5.838   2.194
 4015TIP3   OH212008   3.146   5.515   0.379
 4015TIP3    H112009   3.066   5.463   0.386
 4015TIP3    H212010   3.214   5.461   0.420
 4016TIP3   OH212011   5.724   4.357   4.051
 4016TIP3    H112012   5.729   4.452   4.049
 4016TIP3    H212013   5.687   4.337   4.137
 4017TIP3   OH212014   1.754   2.639   1.583
 4017TIP3    H112015   1.761   2.733   1.599
 4017TIP3    H212016   1.749   2.600   1.670
 4018TIP3   OH212017   2.192   0.750   2.220
 4018TIP3    H112018   2.162   0.828   2.174
 4018TIP3    H212019   2.270   0.721   2.172
 4019TIP3   OH212020   4.601   4.716   5.883
 4019TIP3    H112021   4.612   4.786   5.948
 4019TIP3    H212022   4.543   4.753   5.817
 4020TIP3   OH212023   4.428   3.521   0.732
 4020TIP3    H112024   4.481   3.442   0.723
 4020TIP3    H212025   4.352   3.494   0.783
 4021TIP3   OH212026   1.427   1.994   3.016
 4021TIP3    H112027   1.346   2.041   3.032
 4021TIP3    H212028   1.443   2.004   2.922
 4022TIP3   OH212029   0.576   5.969   3.129
 4022TIP3    H112030   0.558   5.939   3.218
 4022TIP3    H212031   0.497   6.016   3.103
 4023TIP3   OH212032   6.598   3.050   0.142
 4023TIP3    H112033   6.602   2.991   0.067
 4023TIP3    H212034   6.615   3.137   0.106
 4024TIP3   OH212035   6.140   0.359   3.562
 4024TIP3    H112036   6.134   0.420   3.636
 4024TIP3    H212037   6.073   0.293   3.579
 4025TIP3   OH212038   4.416   2.599   0.533
 4025TIP3    H112039   4.322   2.603   0.550
 4025TIP3    H212040   4.451   2.678   0.575
 4026TIP3   OH212041   7.169   2.769   4.858
 4026TIP3    H112042   7.204   2.783   4.770
 4026TIP3    H212043   7.097   2.707   4.845
 4027TIP3   OH212044   7.126   3.856   2.231
 4027TIP3    H112045   7.089   3.769   2.223
 4027TIP3    H212046   7.052   3.912   2.253
 4028TIP3   OH212047   3.160   6.517   5.815
 4028TIP3    H112048   3.084   6.570   5.790
 4028TIP3    H212049   3.189   6.476   5.733
 4029TIP3   OH212050   2.959   0.844   3.362
 4029TIP3    H112051   3.039   0.894   3.376
 4029TIP3    H212052   2.969   0.806   3.274
 4030TIP3   OH212053   0.191   1.470   1.660
 4030TIP3    H112054   0.098   1.449   1.648
 4030TIP3    H212055   0.198   1.494   1.753
 4031TIP3   OH212056   0.199   2.503   4.571
 4031TIP3    H112057   0.193   2.417   4.613
 4031TIP3    H212058   0.272   2.546   4.615
 4032TIP3   OH212059   2.968   4.179   3.126
 4032TIP3    H112060   2.899   4.171   3.060
 4032TIP3    H212061   3.014   4.095   3.123
 4033TIP3   OH212062   0.607   2.282   3.394
 4033TIP3    H112063   0.618   2.207   3.336
 4033TIP3    H212064   0.649   2.256   3.476
 4034TIP3   OH212065   3.756   3.499   2.438
 4034TIP3    H112066   3.729   3.407   2.430
 4034TIP3    H212067   3.847   3.494   2.469
 4035TIP3   OH212068   1.821   6.422   4.213
 4035TIP3    H112069   1.784   6.507   4.236
 4035TIP3    H212070   1.816   6.420   4.117
 4036TIP3   OH212071   1.293   5.696   4.592
 4036TIP3    H112072   1.226   5.649   4.640
 4036TIP3    H212073   1.363   5.632   4.579
 4037TIP3   OH212074   0.322   2.277   1.659
 4037TIP3    H112075   0.301   2.273   1.752
 4037TIP3    H212076   0.366   2.361   1.648
 4038TIP3   OH212077   4.564   1.906   0.593
 4038TIP3    H112078   4.654   1.898   0.560
 4038TIP3    H212079   4.527   1.818   0.583
 4039TIP3   OH212080   5.196   0.560   0.148
 4039TIP3    H112081   5.204   0.652   0.173
 4039TIP3    H212082   5.132   0.561   0.076
 4040TIP3   OH212083   0.535   4.044   1.988
 4040TIP3    H112084   0.514   4.064   1.897
 4040TIP3    H212085   0.466   4.088   2.039
 4041TIP3   OH212086   7.075   4.638   1.864
 4041TIP3    H112087   7.085   4.733   1.869
 4041TIP3    H212088   7.117   4.615   1.781
 4042TIP3   OH212089   5.626   5.948   2.318
 4042TIP3    H112090   5.668   6.031   2.341
 4042TIP3    H212091   5.532   5.966   2.324
 4043TIP3   OH212092   1.403   2.284   3.077
 4043TIP3    H112093   1.322   2.319   3.114
 4043TIP3    H212094   1.384   2.277   2.983
 4044TIP3   OH212095   0.758   3.227   3.213
 4044TIP3    H112096   0.665   3.206   3.207
 4044TIP3    H212097   0.760   3.323   3.220
 4045TIP3   OH212098   3.645   0.756   0.443
 4045TIP3    H112099   3.612   0.695   0.509
 4045TIP3    H212100   3.587   0.744   0.368
 4046TIP3   OH212101   4.149   3.139   3.909
 4046TIP3    H112102   4.221   3.086   3.874
 4046TIP3    H212103   4.120   3.090   3.986
 4047TIP3   OH212104   0.159   1.465   0.864
 4047TIP3    H112105   0.155   1.371   0.881
 4047TIP3    H212106   0.131   1.506   0.946
 4048TIP3   OH212107   1.681   3.526   3.588
 4048TIP3    H112108   1.593   3.548   3.556
 4048TIP3    H212109   1.688   3.431   3.576
 4049TIP3   OH212110   5.317   3.199   5.669
 4049TIP3    H112111   5.299   3.124   5.612
 4049TIP3    H212112   5.399   3.235   5.636
 4050TIP3   OH212113   0.872   2.916   1.964
 4050TIP3    H112114   0.841   2.840   2.014
 4050TIP3    H212115   0.793   2.970   1.953
 4051TIP3   OH212116   2.805   5.687   5.302
 4051TIP3    H112117   2.756   5.765   5.329
 4051TIP3    H212118   2.778   5.619   5.364
 4052TIP3   OH212119   0.356   3.921   2.655
 4052TIP3    H112120   0.328   3.835   2.623
 4052TIP3    H212121   0.442   3.906   2.693
 4053TIP3   OH212122   1.747   5.233   4.670
 4053TIP3    H112123   1.696   5.298   4.717
 4053TIP3    H212124   1.789   5.281   4.599
 4054TIP3   OH212125   5.822   2.215   1.172
 4054TIP3    H112126   5.799   2.123   1.159
 4054TIP3    H212127   5.784   2.261   1.097
 4055TIP3   OH212128   0.204   5.131   4.334
 4055TIP3    H112129   0.110   5.116   4.320
 4055TIP3    H212130   0.233   5.054   4.383
 4056TIP3   OH212131   4.144   1.291   0.282
 4056TIP3    H112132   4.140   1.316   0.374
 4056TIP3    H212133   4.053   1.294   0.252
 4057TIP3   OH212134   1.565   5.796   3.420
 4057TIP3    H112135   1.541   5.883   3.388
 4057TIP3    H212136   1.501   5.777   3.488
 4058TIP3   OH212137   3.199   6.352   3.479
 4058TIP3    H112138   3.216   6.261   3.506
 4058TIP3    H212139   3.128   6.381   3.537
 4059TIP3   OH212140   1.202   1.397   0.010
 4059TIP3    H112141   1.154   1.390   0.092
 4059TIP3    H212142   1.228   1.489   0.005
 4060TIP3   OH212143   4.545   6.236   1.226
 4060TIP3    H112144   4.636   6.241   1.198
 4060TIP3    H212145   4.498   6.203   1.150
 4061TIP3   OH212146   1.041   1.936   4.411
 4061TIP3    H112147   1.103   1.878   4.366
 4061TIP3    H212148   0.998   1.879   4.475
 4062TIP3   OH212149   1.638   5.691   4.615
 4062TIP3    H112150   1.670   5.665   4.529
 4062TIP3    H212151   1.622   5.608   4.661
 4063TIP3   OH212152   5.767   4.986   0.392
 4063TIP3    H112153   5.773   5.030   0.476
 4063TIP3    H212154   5.833   5.028   0.337
 4064TIP3   OH212155   5.912   5.851   2.517
 4064TIP3    H112156   5.847   5.900   2.566
 4064TIP3    H212157   5.908   5.887   2.428
 4065TIP3   OH212158   4.170   1.627   3.732
 4065TIP3    H112159   4.139   1.696   3.673
 4065TIP3    H212160   4.214   1.564   3.675
 4066TIP3   OH212161   4.087   4.797   2.908
 4066TIP3    H112162   4.024   4.825   2.974
 4066TIP3    H212163   4.171   4.831   2.938
 4067TIP3   OH212164   4.040   1.771   1.585
 4067TIP3    H112165   4.095   1.816   1.649
 4067TIP3    H212166   3.952   1.775   1.622
 4068TIP3   OH212167   5.620   0.795   3.758
 4068TIP3    H112168   5.550   0.859   3.771
 4068TIP3    H212169   5.582   0.712   3.787
 4069TIP3   OH212170   1.689   4.460   4.401
 4069TIP3    H112171   1.666   4.391   4.339
 4069TIP3    H212172   1.771   4.497   4.366
 4070TIP3   OH212173   4.419   3.406   0.021
 4070TIP3    H112174   4.368   3.438   0.095
 4070TIP3    H212175   4.476   3.338   0.059
 4071TIP3   OH212176   2.708   4.932   2.907
 4071TIP3    H112177   2.735   5.006   2.852
 4071TIP3    H212178   2.782   4.872   2.904
 4072TIP3   OH212179   6.598   4.919   0.884
 4072TIP3    H112180   6.588   4.899   0.977
 4072TIP3    H212181   6.622   5.011   0.881
 4073TIP3   OH212182   0.652   0.720   0.969
 4073TIP3    H112183   0.741   0.726   0.935
 4073TIP3    H212184   0.628   0.809   0.993
 4074TIP3   OH212185   6.906   2.746   5.126
 4074TIP3    H112186   6.868   2.769   5.211
 4074TIP3    H212187   6.831   2.739   5.067
 4075TIP3   OH212188   4.071   0.219   4.039
 4075TIP3    H112189   4.116   0.249   4.118
 4075TIP3    H212190   4.135   0.162   3.995
 4076TIP3   OH212191   4.175   3.743   0.834
 4076TIP3    H112192   4.220   3.782   0.909
 4076TIP3    H212193   4.195   3.649   0.840
 4077TIP3   OH212194   1.099   0.835   4.140
 4077TIP3    H112195   1.064   0.747   4.126
 4077TIP3    H212196   1.182   0.821   4.185
 4078TIP3   OH212197   2.904   6.529   1.528
 4078TIP3    H112198   2.909   6.615   1.488
 4078TIP3    H212199   2.990   6.515   1.566
 4079TIP3   OH212200   0.489   6.229   5.370
 4079TIP3    H112201   0.426   6.227   5.442
 4079TIP3    H212202   0.469   6.310   5.323
 4080TIP3   OH212203   6.269   3.160   0.322
 4080TIP3    H112204   6.344   3.218   0.334
 4080TIP3    H212205   6.193   3.218   0.318
 4081TIP3   OH212206   5.343   6.401   5.196
 4081TIP3    H112207   5.426   6.386   5.242
 4081TIP3    H212208   5.282   6.426   5.265
 4082TIP3   OH212209   3.616   1.636   5.511
 4082TIP3    H112210   3.560   1.651   5.434
 4082TIP3    H212211   3.615   1.720   5.558
 4083TIP3   OH212212   7.214   5.804   1.104
 4083TIP3    H112213   7.133   5.855   1.112
 4083TIP3    H212214   7.246   5.825   1.016
 4084TIP3   OH212215   1.583   0.355   5.820
 4084TIP3    H112216   1.581   0.324   5.729
 4084TIP3    H212217   1.498   0.329   5.856
 4085TIP3   OH212218   2.284   1.644   5.501
 4085TIP3    H112219   2.370   1.665   5.464
 4085TIP3    H212220   2.228   1.630   5.425
 4086TIP3   OH212221   3.947   5.616   0.036
 4086TIP3    H112222   4.012   5.686   0.035
 4086TIP3    H212223   3.863   5.662   0.044
 4087TIP3   OH212224   6.366   1.867   5.056
 4087TIP3    H112225   6.357   1.864   5.151
 4087TIP3    H212226   6.323   1.948   5.030
 4088TIP3   OH212227   0.175   1.280   4.413
 4088TIP3    H112228   0.125   1.272   4.332
 4088TIP3    H212229   0.265   1.256   4.389
 4089TIP3   OH212230   1.213   4.811   4.745
 4089TIP3    H112231   1.133   4.797   4.696
 4089TIP3    H212232   1.262   4.729   4.738
 4090TIP3   OH212233   4.729   4.918   0.304
 4090TIP3    H112234   4.822   4.896   0.297
 4090TIP3    H212235   4.692   4.893   0.219
 4091TIP3   OH212236   4.167   1.340   5.164
 4091TIP3    H112237   4.130   1.260   5.200
 4091TIP3    H212238   4.262   1.329   5.174
 4092TIP3   OH212239   3.395   4.800   3.320
 4092TIP3    H112240   3.409   4.875   3.377
 4092TIP3    H212241   3.367   4.730   3.380
 4093TIP3   OH212242   4.628   0.397   2.627
 4093TIP3    H112243   4.687   0.393   2.551
 4093TIP3    H212244   4.609   0.490   2.639
 4094TIP3   OH212245   0.107   3.128   1.850
 4094TIP3    H112246   0.120   3.140   1.756
 4094TIP3    H212247   0.076   3.213   1.881
 4095TIP3   OH212248   1.884   4.424   2.239
 4095TIP3    H112249   1.835   4.503   2.216
 4095TIP3    H212250   1.853   4.357   2.178
 4096TIP3   OH212251   6.125   1.115   4.511
 4096TIP3    H112252   6.159   1.204   4.518
 4096TIP3    H212253   6.197   1.059   4.540
 4097TIP3   OH212254   5.238   3.547   5.479
 4097TIP3    H112255   5.228   3.598   5.399
 4097TIP3    H212256   5.320   3.499   5.467
 4098TIP3   OH212257   0.304   6.019   2.535
 4098TIP3    H112258   0.347   5.945   2.493
 4098TIP3    H212259   0.219   5.985   2.562
 4099TIP3   OH212260   6.127   3.454   0.551
 4099TIP3    H112261   6.128   3.549   0.538
 4099TIP3    H212262   6.179   3.440   0.629
 4100TIP3   OH212263   0.574   1.228   4.679
 4100TIP3    H112264   0.486   1.196   4.694
 4100TIP3    H212265   0.571   1.265   4.591
 4101TIP3   OH212266   6.326   6.237   2.752
 4101TIP3    H112267   6.286   6.280   2.677
 4101TIP3    H212268   6.393   6.180   2.714
 4102TIP3   OH212269   6.525   4.309   3.499
 4102TIP3    H112270   6.475   4.267   3.569
 4102TIP3    H212271   6.616   4.298   3.525
 4103TIP3   OH212272   0.702   6.004   4.511
 4103TIP3    H112273   0.608   6.012   4.523
 4103TIP3    H212274   0.727   5.928   4.563
 4104TIP3   OH212275   1.676   6.184   0.428
 4104TIP3    H112276   1.591   6.226   0.437
 4104TIP3    H212277   1.682   6.124   0.502
 4105TIP3   OH212278   6.756   1.061   2.825
 4105TIP3    H112279   6.690   1.093   2.886
 4105TIP3    H212280   6.714   0.988   2.781
 4106TIP3   OH212281   0.733   0.828   4.775
 4106TIP3    H112282   0.689   0.808   4.857
 4106TIP3    H212283   0.688   0.774   4.710
 4107TIP3   OH212284   7.206   2.683   4.586
 4107TIP3    H112285   7.258   2.604   4.603
 4107TIP3    H212286   7.141   2.656   4.522
 4108TIP3   OH212287   0.679   6.087   4.128
 4108TIP3    H112288   0.609   6.040   4.174
 4108TIP3    H212289   0.750   6.092   4.192
 4109TIP3   OH212290   2.347   2.376   0.476
 4109TIP3    H112291   2.348   2.438   0.549
 4109TIP3    H212292   2.426   2.397   0.426
 4110TIP3   OH212293   2.393   4.533   4.493
 4110TIP3    H112294   2.310   4.509   4.533
 4110TIP3    H212295   2.384   4.626   4.471
 4111TIP3   OH212296   4.267   1.572   1.566
 4111TIP3    H112297   4.208   1.496   1.557
 4111TIP3    H212298   4.208   1.648   1.564
 4112TIP3   OH212299   4.796   1.011   3.416
 4112TIP3    H112300   4.712   1.029   3.375
 4112TIP3    H212301   4.860   1.023   3.346
 4113TIP3   OH212302   0.097   6.304   0.072
 4113TIP3    H112303   0.075   6.216   0.103
 4113TIP3    H212304   0.013   6.345   0.052
 4114TIP3   OH212305   6.406   5.645   3.716
 4114TIP3    H112306   6.353   5.599   3.782
 4114TIP3    H212307   6.477   5.585   3.697
 4115TIP3   OH212308   4.692   1.714   0.946
 4115TIP3    H112309   4.734   1.798   0.964
 4115TIP3    H212310   4.610   1.717   0.994
 4116TIP3   OH212311   2.455   4.700   2.014
 4116TIP3    H112312   2.385   4.724   1.953
 4116TIP3    H212313   2.418   4.628   2.065
 4117TIP3   OH212314   0.867   5.257   0.752
 4117TIP3    H112315   0.830   5.169   0.742
 4117TIP3    H212316   0.944   5.257   0.695
 4118TIP3   OH212317   4.239   1.831   0.927
 4118TIP3    H112318   4.161   1.776   0.927
 4118TIP3    H212319   4.307   1.774   0.891
 4119TIP3   OH212320   0.185   6.593   0.796
 4119TIP3    H112321   0.157   6.673   0.752
 4119TIP3    H212322   0.112   6.569   0.853
 4120TIP3   OH212323   0.829   0.175   3.603
 4120TIP3    H112324   0.898   0.194   3.539
 4120TIP3    H212325   0.820   0.256   3.654
 4121TIP3   OH212326   3.421   0.658   3.824
 4121TIP3    H112327   3.366   0.653   3.902
 4121TIP3    H212328   3.497   0.603   3.845
 4122TIP3   OH212329   1.279   6.751   3.925
 4122TIP3    H112330   1.246   6.841   3.932
 4122TIP3    H212331   1.290   6.723   4.016
 4123TIP3   OH212332   0.268   2.658   0.858
 4123TIP3    H112333   0.181   2.626   0.880
 4123TIP3    H212334   0.281   2.735   0.914
 4124TIP3   OH212335   1.560   5.882   0.927
 4124TIP3    H112336   1.479   5.854   0.970
 4124TIP3    H212337   1.534   5.958   0.874
 4125TIP3   OH212338   5.018   0.818   2.440
 4125TIP3    H112339   4.922   0.816   2.446
 4125TIP3    H212340   5.043   0.896   2.490
 4126TIP3   OH212341   7.060   3.845   1.288
 4126TIP3    H112342   7.047   3.897   1.367
 4126TIP3    H212343   7.153   3.856   1.267
 4127TIP3   OH212344   3.160   6.231   5.472
 4127TIP3    H112345   3.081   6.189   5.504
 4127TIP3    H212346   3.181   6.298   5.538
 4128TIP3   OH212347   6.913   5.134   1.093
 4128TIP3    H112348   6.878   5.048   1.068
 4128TIP3    H212349   6.845   5.172   1.148
 4129TIP3   OH212350   3.276   1.628   4.377
 4129TIP3    H112351   3.199   1.644   4.432
 4129TIP3    H212352   3.348   1.672   4.423
 4130TIP3   OH212353   6.005   5.436   3.015
 4130TIP3    H112354   5.920   5.463   2.982
 4130TIP3    H212355   5.986   5.361   3.072
 4131TIP3   OH212356   3.004   6.587   3.460
 4131TIP3    H112357   3.081   6.634   3.490
 4131TIP3    H212358   2.936   6.653   3.454
 4132TIP3   OH212359   6.834   0.959   1.807
 4132TIP3    H112360   6.853   1.016   1.732
 4132TIP3    H212361   6.917   0.912   1.822
 4133TIP3   OH212362   5.238   5.405   2.737
 4133TIP3    H112363   5.238   5.373   2.647
 4133TIP3    H212364   5.216   5.498   2.728
 4134TIP3   OH212365   7.100   6.045   5.743
 4134TIP3    H112366   7.044   6.018   5.670
 4134TIP3    H212367   7.039   6.068   5.813
 4135TIP3   OH212368   3.341   6.675   4.016
 4135TIP3    H112369   3.376   6.723   4.091
 4135TIP3    H212370   3.267   6.626   4.051
 4136TIP3   OH212371   4.764   5.561   0.355
 4136TIP3    H112372   4.823   5.495   0.392
 4136TIP3    H212373   4.708   5.587   0.428
 4137TIP3   OH212374   6.639   6.355   2.609
 4137TIP3    H112375   6.597   6.291   2.666
 4137TIP3    H212376   6.699   6.304   2.555
 4138TIP3   OH212377   6.134   1.014   1.323
 4138TIP3    H112378   6.149   0.934   1.271
 4138TIP3    H212379   6.124   1.083   1.258
 4139TIP3   OH212380   2.591   5.068   4.567
 4139TIP3    H112381   2.650   5.001   4.601
 4139TIP3    H212382   2.635   5.100   4.488
 4140TIP3   OH212383   3.138   3.086   3.209
 4140TIP3    H112384   3.148   3.169   3.163
 4140TIP3    H212385   3.211   3.033   3.178
 4141TIP3   OH212386   1.958   5.139   5.500
 4141TIP3    H112387   1.878   5.183   5.530
 4141TIP3    H212388   1.937   5.108   5.412
 4142TIP3   OH212389   0.883   2.645   2.153
 4142TIP3    H112390   0.888   2.550   2.147
 4142TIP3    H212391   0.837   2.662   2.235
 4143TIP3   OH212392   4.512   4.337   2.879
 4143TIP3    H112393   4.482   4.265   2.823
 4143TIP3    H212394   4.537   4.295   2.961
 4144TIP3   OH212395   4.457   6.534   5.550
 4144TIP3    H112396   4.391   6.534   5.481
 4144TIP3    H212397   4.460   6.624   5.581
 4145TIP3   OH212398   5.354   1.140   1.816
 4145TIP3    H112399   5.317   1.118   1.901
 4145TIP3    H212400   5.299   1.092   1.753
 4146TIP3   OH212401   2.325   5.249   1.125
 4146TIP3    H112402   2.394   5.315   1.133
 4146TIP3    H212403   2.371   5.165   1.128
 4147TIP3   OH212404   2.679   6.563   1.893
 4147TIP3    H112405   2.736   6.616   1.838
 4147TIP3    H212406   2.687   6.601   1.981
 4148TIP3   OH212407   5.046   6.021   4.224
 4148TIP3    H112408   4.958   6.006   4.258
 4148TIP3    H212409   5.100   5.957   4.270
 4149TIP3   OH212410   4.567   0.227   4.204
 4149TIP3    H112411   4.646   0.174   4.194
 4149TIP3    H212412   4.554   0.233   4.298
 4150TIP3   OH212413   3.278   5.902   1.518
 4150TIP3    H112414   3.233   5.922   1.436
 4150TIP3    H212415   3.243   5.965   1.581
 4151TIP3   OH212416   1.494   1.705   1.904
 4151TIP3    H112417   1.549   1.630   1.881
 4151TIP3    H212418   1.554   1.780   1.901
 4152TIP3   OH212419   2.201   0.079   4.757
 4152TIP3    H112420   2.270   0.024   4.794
 4152TIP3    H212421   2.247   0.154   4.721
 4153TIP3   OH212422   2.817   0.460   4.215
 4153TIP3    H112423   2.803   0.460   4.309
 4153TIP3    H212424   2.794   0.549   4.187
 4154TIP3   OH212425   4.033   5.167   0.819
 4154TIP3    H112426   4.126   5.154   0.838
 4154TIP3    H212427   3.988   5.131   0.895
 4155TIP3   OH212428   5.475   2.403   2.086
 4155TIP3    H112429   5.559   2.384   2.129
 4155TIP3    H212430   5.497   2.406   1.992
 4156TIP3   OH212431   5.088   1.557   3.738
 4156TIP3    H112432   5.158   1.593   3.683
 4156TIP3    H212433   5.132   1.534   3.820
 4157TIP3   OH212434   1.504   2.263   0.597
 4157TIP3    H112435   1.557   2.331   0.639
 4157TIP3    H212436   1.568   2.200   0.563
 4158TIP3   OH212437   0.634   2.056   1.136
 4158TIP3    H112438   0.664   1.976   1.092
 4158TIP3    H212439   0.553   2.031   1.179
 4159TIP3   OH212440   0.330   2.861   1.078
 4159TIP3    H112441   0.312   2.944   1.120
 4159TIP3    H212442   0.417   2.873   1.038
 4160TIP3   OH212443   5.862   5.154   4.920
 4160TIP3    H112444   5.863   5.147   4.824
 4160TIP3    H212445   5.809   5.232   4.938
 4161TIP3   OH212446   5.097   2.934   1.444
 4161TIP3    H112447   5.069   2.978   1.524
 4161TIP3    H212448   5.169   2.987   1.411
 4162TIP3   OH212449   2.579   0.543   1.943
 4162TIP3    H112450   2.579   0.450   1.922
 4162TIP3    H212451   2.557   0.586   1.860
 4163TIP3   OH212452   2.243   0.564   1.341
 4163TIP3    H112453   2.194   0.639   1.308
 4163TIP3    H212454   2.333   0.596   1.351
 4164TIP3   OH212455   3.763   6.675   3.360
 4164TIP3    H112456   3.840   6.699   3.309
 4164TIP3    H212457   3.732   6.759   3.395
 4165TIP3   OH212458   5.547   3.129   3.263
 4165TIP3    H112459   5.618   3.081   3.220
 4165TIP3    H212460   5.590   3.207   3.299
 4166TIP3   OH212461   4.436   4.304   5.700
 4166TIP3    H112462   4.489   4.290   5.779
 4166TIP3    H212463   4.427   4.399   5.693
 4167TIP3   OH212464   3.560   6.397  -0.028
 4167TIP3    H112465   3.492   6.333  -0.049
 4167TIP3    H212466   3.539   6.427   0.060
 4168TIP3   OH212467   0.458   2.311   4.480
 4168TIP3    H112468   0.469   2.349   4.568
 4168TIP3    H212469   0.490   2.378   4.421
 4169TIP3   OH212470   0.964   1.110   2.981
 4169TIP3    H112471   1.042   1.089   2.929
 4169TIP3    H212472   0.927   1.188   2.939
 4170TIP3   OH212473   5.123   3.851   0.031
 4170TIP3    H112474   5.090   3.941   0.029
 4170TIP3    H212475   5.057   3.800  -0.015
 4171TIP3   OH212476   1.872   2.682   2.739
 4171TIP3    H112477   1.778   2.680   2.757
 4171TIP3    H212478   1.894   2.775   2.737
 4172TIP3   OH212479   5.801   0.844   0.077
 4172TIP3    H112480   5.850   0.912   0.030
 4172TIP3    H212481   5.710   0.875   0.077
 4173TIP3   OH212482   0.144   2.244   4.678
 4173TIP3    H112483   0.165   2.191   4.602
 4173TIP3    H212484   0.213   2.223   4.742
 4174TIP3   OH212485   1.722   1.596   0.722
 4174TIP3    H112486   1.700   1.548   0.642
 4174TIP3    H212487   1.706   1.533   0.793
 4175TIP3   OH212488   6.352   0.433   1.388
 4175TIP3    H112489   6.300   0.511   1.406
 4175TIP3    H212490   6.392   0.412   1.472
 4176TIP3   OH212491   1.677   2.447   0.719
 4176TIP3    H112492   1.703   2.529   0.761
 4176TIP3    H212493   1.758   2.410   0.685
 4177TIP3   OH212494   0.518   4.515   3.818
 4177TIP3    H112495   0.587   4.581   3.826
 4177TIP3    H212496   0.450   4.543   3.879
 4178TIP3   OH212497   4.630   4.729   5.033
 4178TIP3    H112498   4.626   4.640   5.069
 4178TIP3    H212499   4.548   4.770   5.059
 4179TIP3   OH212500   1.908   3.913   2.099
 4179TIP3    H112501   1.988   3.878   2.061
 4179TIP3    H212502   1.925   3.915   2.194
 4180TIP3   OH212503   5.417   2.682   5.253
 4180TIP3    H112504   5.447   2.733   5.177
 4180TIP3    H212505   5.463   2.721   5.327
 4181TIP3   OH212506   0.955   2.438   0.866
 4181TIP3    H112507   0.904   2.458   0.945
 4181TIP3    H212508   1.032   2.392   0.899
 4182TIP3   OH212509   3.044   2.490   4.400
 4182TIP3    H112510   3.094   2.540   4.336
 4182TIP3    H212511   3.090   2.406   4.405
 4183TIP3   OH212512   3.523   4.463   0.739
 4183TIP3    H112513   3.442   4.479   0.691
 4183TIP3    H212514   3.545   4.548   0.777
 4184TIP3   OH212515   0.297   2.700   0.556
 4184TIP3    H112516   0.393   2.698   0.558
 4184TIP3    H212517   0.271   2.698   0.648
 4185TIP3   OH212518   0.116   4.652   2.264
 4185TIP3    H112519   0.159   4.732   2.232
 4185TIP3    H212520   0.137   4.585   2.199
 4186TIP3   OH212521   6.230   5.166   3.965
 4186TIP3    H112522   6.224   5.126   4.051
 4186TIP3    H212523   6.140   5.189   3.942
 4187TIP3   OH212524   0.894   3.276   2.862
 4187TIP3    H112525   0.910   3.370   2.859
 4187TIP3    H212526   0.973   3.237   2.825
 4188TIP3   OH212527   0.334   0.303   2.206
 4188TIP3    H112528   0.356   0.216   2.173
 4188TIP3    H212529   0.317   0.355   2.127
 4189TIP3   OH212530   4.745   3.346   3.692
 4189TIP3    H112531   4.807   3.276   3.672
 4189TIP3    H212532   4.665   3.322   3.644
 4190TIP3   OH212533   5.993   1.997   0.977
 4190TIP3    H112534   5.952   1.914   1.001
 4190TIP3    H212535   5.929   2.040   0.920
 4191TIP3   OH212536   6.860   1.057   5.336
 4191TIP3    H112537   6.789   1.010   5.379
 4191TIP3    H212538   6.901   1.108   5.406
 4192TIP3   OH212539   4.816   5.133   0.906
 4192TIP3    H112540   4.903   5.174   0.902
 4192TIP3    H212541   4.832   5.041   0.885
 4193TIP3   OH212542   3.163   0.733   4.705
 4193TIP3    H112543   3.200   0.782   4.778
 4193TIP3    H212544   3.202   0.772   4.627
 4194TIP3   OH212545   5.185   5.746   4.283
 4194TIP3    H112546   5.147   5.774   4.367
 4194TIP3    H212547   5.216   5.657   4.299
 4195TIP3   OH212548   0.940   5.820   4.105
 4195TIP3    H112549   1.015   5.877   4.119
 4195TIP3    H212550   0.929   5.774   4.188
 4196TIP3   OH212551   6.713   3.030   2.520
 4196TIP3    H112552   6.685   2.985   2.440
 4196TIP3    H212553   6.703   2.964   2.589
 4197TIP3   OH212554   3.447   4.895   4.919
 4197TIP3    H112555   3.375   4.925   4.863
 4197TIP3    H212556   3.424   4.805   4.941
 4198TIP3   OH212557   6.390   4.555   3.448
 4198TIP3    H112558   6.442   4.480   3.476
 4198TIP3    H212559   6.314   4.517   3.404
 4199TIP3   OH212560   3.970   6.461   1.642
 4199TIP3    H112561   3.892   6.414   1.613
 4199TIP3    H212562   3.944   6.504   1.723
 4200TIP3   OH212563   7.065   2.375   1.004
 4200TIP3    H112564   7.028   2.423   1.078
 4200TIP3    H212565   7.156   2.404   1.000
 4201TIP3   OH212566   3.647   6.404   5.705
 4201TIP3    H112567   3.735   6.367   5.699
 4201TIP3    H212568   3.590   6.327   5.714
 4202TIP3   OH212569   4.031   6.454   5.621
 4202TIP3    H112570   4.112   6.484   5.579
 4202TIP3    H212571   4.006   6.526   5.679
 4203TIP3   OH212572   6.681   1.911   1.088
 4203TIP3    H112573   6.734   1.875   1.017
 4203TIP3    H212574   6.633   1.984   1.048
 4204TIP3   OH212575   4.965   1.466   2.291
 4204TIP3    H112576   4.986   1.439   2.381
 4204TIP3    H212577   5.023   1.413   2.237
 4205TIP3   OH212578   4.645   5.387   0.174
 4205TIP3    H112579   4.636   5.316   0.239
 4205TIP3    H212580   4.691   5.456   0.221
 4206TIP3   OH212581   1.590   0.560   4.187
 4206TIP3    H112582   1.495   0.554   4.197
 4206TIP3    H212583   1.603   0.575   4.094
 4207TIP3   OH212584   4.492   1.789   0.090
 4207TIP3    H112585   4.410   1.798   0.138
 4207TIP3    H212586   4.501   1.695   0.076
 4208TIP3   OH212587   5.438   2.871   1.558
 4208TIP3    H112588   5.424   2.935   1.627
 4208TIP3    H212589   5.353   2.828   1.547
 4209TIP3   OH212590   2.315   6.358   4.310
 4209TIP3    H112591   2.322   6.395   4.222
 4209TIP3    H212592   2.403   6.370   4.347
 4210TIP3   OH212593   1.104   3.980   0.608
 4210TIP3    H112594   1.128   3.907   0.550
 4210TIP3    H212595   1.146   3.960   0.691
 4211TIP3   OH212596   5.578   1.984   2.309
 4211TIP3    H112597   5.632   1.989   2.231
 4211TIP3    H212598   5.492   2.013   2.281
 4212TIP3   OH212599   6.817   6.118   1.274
 4212TIP3    H112600   6.726   6.114   1.244
 4212TIP3    H212601   6.811   6.146   1.365
 4213TIP3   OH212602   3.610   2.152   3.734
 4213TIP3    H112603   3.519   2.123   3.741
 4213TIP3    H212604   3.609   2.242   3.768
 4214TIP3   OH212605   0.113   3.934   1.204
 4214TIP3    H112606   0.196   3.900   1.170
 4214TIP3    H212607   0.077   3.986   1.132
 4215TIP3   OH212608   3.894   3.179   2.804
 4215TIP3    H112609   3.982   3.211   2.781
 4215TIP3    H212610   3.844   3.258   2.822
 4216TIP3   OH212611   1.456   6.628   5.779
 4216TIP3    H112612   1.522   6.693   5.754
 4216TIP3    H212613   1.375   6.678   5.785
 4217TIP3   OH212614   4.307   5.513   5.057
 4217TIP3    H112615   4.324   5.541   5.146
 4217TIP3    H212616   4.386   5.538   5.008
 4218TIP3   OH212617   2.511   3.398   3.517
 4218TIP3    H112618   2.451   3.472   3.526
 4218TIP3    H212619   2.537   3.377   3.607
 4219TIP3   OH212620   5.996   4.105   5.147
 4219TIP3    H112621   5.941   4.064   5.081
 4219TIP3    H212622   5.949   4.184   5.174
 4220TIP3   OH212623   2.751   1.905   1.470
 4220TIP3    H112624   2.823   1.958   1.505
 4220TIP3    H212625   2.689   1.969   1.434
 4221TIP3   OH212626   5.407   5.945   3.831
 4221TIP3    H112627   5.369   5.879   3.889
 4221TIP3    H212628   5.332   5.983   3.785
 4222TIP3   OH212629   1.265   0.060   5.717
 4222TIP3    H112630   1.268   0.135   5.776
 4222TIP3    H212631   1.356   0.046   5.690
 4223TIP3   OH212632   5.012   3.097   5.670
 4223TIP3    H112633   5.069   3.171   5.651
 4223TIP3    H212634   4.989   3.062   5.583
 4224TIP3   OH212635   2.976   0.530   1.389
 4224TIP3    H112636   3.062   0.493   1.405
 4224TIP3    H212637   2.948   0.563   1.475
 4225TIP3   OH212638   1.386   2.901   2.912
 4225TIP3    H112639   1.479   2.887   2.927
 4225TIP3    H212640   1.381   2.986   2.867
 4226TIP3   OH212641   2.061   1.727   2.283
 4226TIP3    H112642   2.003   1.746   2.357
 4226TIP3    H212643   2.083   1.813   2.247
 4227TIP3   OH212644   6.702   0.836   1.282
 4227TIP3    H112645   6.674   0.745   1.269
 4227TIP3    H212646   6.724   0.841   1.375
 4228TIP3   OH212647   3.807   1.267   0.826
 4228TIP3    H112648   3.862   1.256   0.748
 4228TIP3    H212649   3.843   1.205   0.890
 4229TIP3   OH212650   2.086   2.393   3.869
 4229TIP3    H112651   2.104   2.315   3.817
 4229TIP3    H212652   2.172   2.432   3.885
 4230TIP3   OH212653   3.605   5.112   2.225
 4230TIP3    H112654   3.528   5.091   2.277
 4230TIP3    H212655   3.580   5.091   2.135
 4231TIP3   OH212656   3.539   2.813   1.018
 4231TIP3    H112657   3.583   2.848   0.941
 4231TIP3    H212658   3.455   2.781   0.986
 4232TIP3   OH212659   0.675   3.423   0.913
 4232TIP3    H112660   0.738   3.424   0.985
 4232TIP3    H212661   0.628   3.340   0.923
 4233TIP3   OH212662   0.193   4.804   1.825
 4233TIP3    H112663   0.189   4.725   1.879
 4233TIP3    H212664   0.174   4.875   1.885
 4234TIP3   OH212665   0.773   6.151   3.514
 4234TIP3    H112666   0.729   6.177   3.595
 4234TIP3    H212667   0.802   6.061   3.531
 4235TIP3   OH212668   3.273   5.659   1.226
 4235TIP3    H112669   3.192   5.692   1.265
 4235TIP3    H212670   3.253   5.569   1.202
 4236TIP3   OH212671   6.846   5.379   2.766
 4236TIP3    H112672   6.801   5.377   2.682
 4236TIP3    H212673   6.895   5.461   2.766
 4237TIP3   OH212674   2.389   3.060   4.583
 4237TIP3    H112675   2.473   3.026   4.613
 4237TIP3    H212676   2.329   2.986   4.590
 4238TIP3   OH212677   2.980   2.910   5.809
 4238TIP3    H112678   2.998   2.871   5.894
 4238TIP3    H212679   2.905   2.968   5.825
 4239TIP3   OH212680   6.756   0.468   3.792
 4239TIP3    H112681   6.822   0.487   3.725
 4239TIP3    H212682   6.718   0.384   3.765
 4240TIP3   OH212683   5.046   6.290   2.232
 4240TIP3    H112684   4.993   6.213   2.211
 4240TIP3    H212685   5.094   6.266   2.311
 4241TIP3   OH212686   3.288   2.997   0.176
 4241TIP3    H112687   3.300   2.902   0.176
 4241TIP3    H212688   3.374   3.033   0.154
 4242TIP3   OH212689   0.310   0.735   1.663
 4242TIP3    H112690   0.260   0.812   1.691
 4242TIP3    H212691   0.260   0.699   1.590
 4243TIP3   OH212692   3.942   4.424   5.757
 4243TIP3    H112693   3.974   4.512   5.737
 4243TIP3    H212694   3.857   4.420   5.714
 4244TIP3   OH212695   5.594   4.564  -0.043
 4244TIP3    H112696   5.551   4.498   0.011
 4244TIP3    H212697   5.640   4.620   0.019
 4245TIP3   OH212698   0.266   3.678   2.622
 4245TIP3    H112699   0.193   3.658   2.564
 4245TIP3    H212700   0.344   3.662   2.569
 4246TIP3   OH212701   4.609   2.826   0.585
 4246TIP3    H112702   4.651   2.809   0.501
 4246TIP3    H212703   4.547   2.897   0.568
 4247TIP3   OH212704   3.792   3.252   3.562
 4247TIP3    H112705   3.865   3.310   3.541
 4247TIP3    H212706   3.826   3.195   3.631
 4248TIP3   OH212707   1.056   6.229   0.587
 4248TIP3    H112708   1.109   6.149   0.581
 4248TIP3    H212709   0.968   6.198   0.605
 4249TIP3   OH212710   1.981   5.301   1.914
 4249TIP3    H112711   2.059   5.340   1.953
 4249TIP3    H212712   1.963   5.224   1.969
 4250TIP3   OH212713   2.969   5.517   4.039
 4250TIP3    H112714   2.930   5.538   3.954
 4250TIP3    H212715   3.060   5.543   4.030
 4251TIP3   OH212716   6.504   2.957   0.398
 4251TIP3    H112717   6.429   3.008   0.429
 4251TIP3    H212718   6.543   3.011   0.330
 4252TIP3   OH212719   0.451   1.743   5.262
 4252TIP3    H112720   0.501   1.774   5.185
 4252TIP3    H212721   0.515   1.693   5.312
 4253TIP3   OH212722   5.280   6.016   2.384
 4253TIP3    H112723   5.270   5.962   2.463
 4253TIP3    H212724   5.264   6.105   2.414
 4254TIP3   OH212725   2.982   2.489   3.987
 4254TIP3    H112726   3.033   2.570   3.986
 4254TIP3    H212727   2.936   2.491   4.071
 4255TIP3   OH212728   1.204   4.705   5.001
 4255TIP3    H112729   1.150   4.719   4.923
 4255TIP3    H212730   1.163   4.630   5.045
 4256TIP3   OH212731   2.973   4.475   0.287
 4256TIP3    H112732   2.926   4.392   0.286
 4256TIP3    H212733   2.906   4.541   0.302
 4257TIP3   OH212734   6.848   0.536   4.307
 4257TIP3    H112735   6.858   0.446   4.276
 4257TIP3    H212736   6.931   0.578   4.287
 4258TIP3   OH212737   1.293   1.067   4.963
 4258TIP3    H112738   1.311   1.117   5.042
 4258TIP3    H212739   1.373   1.072   4.911
 4259TIP3   OH212740   2.105   5.117   1.242
 4259TIP3    H112741   2.182   5.144   1.192
 4259TIP3    H212742   2.082   5.193   1.295
 4260TIP3   OH212743   1.398   2.387   3.853
 4260TIP3    H112744   1.307   2.405   3.830
 4260TIP3    H212745   1.403   2.292   3.857
 4261TIP3   OH212746   2.429   5.094   3.834
 4261TIP3    H112747   2.413   5.188   3.842
 4261TIP3    H212748   2.358   5.062   3.779
 4262TIP3   OH212749   2.619   3.897   2.198
 4262TIP3    H112750   2.540   3.941   2.229
 4262TIP3    H212751   2.661   3.962   2.141
 4263TIP3   OH212752   1.565   1.015   2.798
 4263TIP3    H112753   1.602   0.932   2.766
 4263TIP3    H212754   1.486   1.027   2.746
 4264TIP3   OH212755   6.572   1.226   2.983
 4264TIP3    H112756   6.596   1.309   3.024
 4264TIP3    H212757   6.491   1.245   2.935
 4265TIP3   OH212758   2.912   4.201   4.614
 4265TIP3    H112759   2.993   4.200   4.666
 4265TIP3    H212760   2.923   4.275   4.554
 4266TIP3   OH212761   0.142   2.505   5.743
 4266TIP3    H112762   0.163   2.569   5.811
 4266TIP3    H212763   0.051   2.480   5.761
 4267TIP3   OH212764   6.894   3.140   0.211
 4267TIP3    H112765   6.799   3.131   0.214
 4267TIP3    H212766   6.915   3.204   0.279
 4268TIP3   OH212767   2.442   2.973   0.747
 4268TIP3    H112768   2.465   3.045   0.806
 4268TIP3    H212769   2.483   2.896   0.786
 4269TIP3   OH212770   3.826   4.507   0.916
 4269TIP3    H112771   3.760   4.450   0.955
 4269TIP3    H212772   3.775   4.578   0.876
 4270TIP3   OH212773   0.887   6.646   0.670
 4270TIP3    H112774   0.979   6.674   0.668
 4270TIP3    H212775   0.877   6.591   0.593
 4271TIP3   OH212776   0.484   1.941   4.247
 4271TIP3    H112777   0.531   2.006   4.195
 4271TIP3    H212778   0.431   1.992   4.307
 4272TIP3   OH212779   6.486   2.456   3.318
 4272TIP3    H112780   6.417   2.401   3.355
 4272TIP3    H212781   6.451   2.484   3.233
 4273TIP3   OH212782   4.787   3.296   4.326
 4273TIP3    H112783   4.737   3.377   4.313
 4273TIP3    H212784   4.724   3.226   4.310
 4274TIP3   OH212785   2.257   0.665   5.718
 4274TIP3    H112786   2.304   0.747   5.703
 4274TIP3    H212787   2.316   0.597   5.686
 4275TIP3   OH212788   4.063   0.296   2.971
 4275TIP3    H112789   4.097   0.324   2.886
 4275TIP3    H212790   4.114   0.218   2.993
 4276TIP3   OH212791   4.927   4.895   0.857
 4276TIP3    H112792   4.911   4.823   0.796
 4276TIP3    H212793   5.022   4.896   0.868
 4277TIP3   OH212794   1.510   1.138   4.764
 4277TIP3    H112795   1.535   1.060   4.715
 4277TIP3    H212796   1.493   1.204   4.697
 4278TIP3   OH212797   5.295   0.500   0.863
 4278TIP3    H112798   5.361   0.430   0.858
 4278TIP3    H212799   5.296   0.526   0.956
 4279TIP3   OH212800   0.978   5.705   2.879
 4279TIP3    H112801   0.934   5.712   2.794
 4279TIP3    H212802   1.022   5.789   2.890
 4280TIP3   OH212803   4.696   0.865   2.888
 4280TIP3    H112804   4.707   0.954   2.856
 4280TIP3    H212805   4.717   0.809   2.812
 4281TIP3   OH212806   5.680   1.382   2.063
 4281TIP3    H112807   5.657   1.338   1.981
 4281TIP3    H212808   5.770   1.354   2.081
 4282TIP3   OH212809   2.681   4.079   4.751
 4282TIP3    H112810   2.664   4.016   4.681
 4282TIP3    H212811   2.760   4.124   4.724
 4283TIP3   OH212812   2.735   0.368   4.480
 4283TIP3    H112813   2.653   0.386   4.434
 4283TIP3    H212814   2.734   0.274   4.496
 4284TIP3   OH212815   4.844   4.422   0.953
 4284TIP3    H112816   4.774   4.484   0.936
 4284TIP3    H212817   4.801   4.347   0.994
 4285TIP3   OH212818   1.202   3.546   5.865
 4285TIP3    H112819   1.121   3.582   5.902
 4285TIP3    H212820   1.256   3.523   5.940
 4286TIP3   OH212821   6.147   5.889   0.237
 4286TIP3    H112822   6.063   5.846   0.220
 4286TIP3    H212823   6.201   5.822   0.278
 4287TIP3   OH212824   3.539   1.591   2.648
 4287TIP3    H112825   3.450   1.567   2.674
 4287TIP3    H212826   3.528   1.642   2.568
 4288TIP3   OH212827   2.440   0.047   1.048
 4288TIP3    H112828   2.489   0.118   1.091
 4288TIP3    H212829   2.388   0.090   0.981
 4289TIP3   OH212830   4.474   2.090   0.769
 4289TIP3    H112831   4.504   2.005   0.740
 4289TIP3    H212832   4.535   2.153   0.730
 4290TIP3   OH212833   4.531   1.947   4.759
 4290TIP3    H112834   4.601   1.964   4.822
 4290TIP3    H212835   4.499   2.033   4.734
 4291TIP3   OH212836   5.120   2.456   4.490
 4291TIP3    H112837   5.140   2.538   4.536
 4291TIP3    H212838   5.126   2.478   4.397
 4292TIP3   OH212839   1.105   5.672   2.555
 4292TIP3    H112840   1.135   5.654   2.644
 4292TIP3    H212841   1.133   5.762   2.538
 4293TIP3   OH212842   4.838   4.174   2.895
 4293TIP3    H112843   4.803   4.093   2.859
 4293TIP3    H212844   4.816   4.172   2.988
 4294TIP3   OH212845   3.606   1.292   0.230
 4294TIP3    H112846   3.600   1.359   0.298
 4294TIP3    H212847   3.540   1.227   0.255
 4295TIP3   OH212848   3.843   0.650   2.648
 4295TIP3    H112849   3.774   0.592   2.680
 4295TIP3    H212850   3.838   0.644   2.553
 4296TIP3   OH212851   6.082   0.493   0.577
 4296TIP3    H112852   6.094   0.416   0.521
 4296TIP3    H212853   6.152   0.552   0.550
 4297TIP3   OH212854   1.339   0.475   3.036
 4297TIP3    H112855   1.310   0.563   3.014
 4297TIP3    H212856   1.267   0.418   3.009
 4298TIP3   OH212857   1.604   3.908   1.399
 4298TIP3    H112858   1.597   3.945   1.487
 4298TIP3    H212859   1.682   3.852   1.403
 4299TIP3   OH212860   5.696   1.114   5.044
 4299TIP3    H112861   5.783   1.134   5.080
 4299TIP3    H212862   5.647   1.080   5.118
 4300TIP3   OH212863   1.801   3.212   3.886
 4300TIP3    H112864   1.883   3.192   3.931
 4300TIP3    H212865   1.827   3.269   3.813
 4301TIP3   OH212866   0.271   0.192   3.654
 4301TIP3    H112867   0.262   0.139   3.575
 4301TIP3    H212868   0.363   0.220   3.654
 4302TIP3   OH212869   4.446   6.625   3.969
 4302TIP3    H112870   4.430   6.702   3.915
 4302TIP3    H212871   4.536   6.599   3.949
 4303TIP3   OH212872   2.345   1.907   2.682
 4303TIP3    H112873   2.262   1.868   2.653
 4303TIP3    H212874   2.409   1.836   2.675
 4304TIP3   OH212875   2.465   3.605   0.027
 4304TIP3    H112876   2.500   3.524  -0.009
 4304TIP3    H212877   2.458   3.588   0.121
 4305TIP3   OH212878   6.748   3.571   0.255
 4305TIP3    H112879   6.674   3.602   0.203
 4305TIP3    H212880   6.811   3.643   0.253
 4306TIP3   OH212881   3.575   0.103   1.912
 4306TIP3    H112882   3.585   0.042   1.839
 4306TIP3    H212883   3.483   0.131   1.907
 4307TIP3   OH212884   1.109   0.309   2.910
 4307TIP3    H112885   1.030   0.330   2.961
 4307TIP3    H212886   1.086   0.327   2.820
 4308TIP3   OH212887   1.226   3.150   3.334
 4308TIP3    H112888   1.181   3.108   3.260
 4308TIP3    H212889   1.274   3.079   3.376
 4309TIP3   OH212890   4.440   5.990   1.760
 4309TIP3    H112891   4.386   6.047   1.816
 4309TIP3    H212892   4.379   5.955   1.695
 4310TIP3   OH212893   4.949   4.402   4.171
 4310TIP3    H112894   4.963   4.342   4.244
 4310TIP3    H212895   5.006   4.369   4.102
 4311TIP3   OH212896   4.780   1.284   0.444
 4311TIP3    H112897   4.817   1.347   0.383
 4311TIP3    H212898   4.852   1.224   0.464
 4312TIP3   OH212899   3.760   4.100   4.500
 4312TIP3    H112900   3.814   4.036   4.545
 4312TIP3    H212901   3.670   4.067   4.510
 4313TIP3   OH212902   6.886   1.340   4.048
 4313TIP3    H112903   6.847   1.325   4.135
 4313TIP3    H212904   6.908   1.433   4.047
 4314TIP3   OH212905   5.950   1.427   5.301
 4314TIP3    H112906   5.856   1.438   5.288
 4314TIP3    H212907   5.961   1.335   5.325
 4315TIP3   OH212908   0.176   4.184   0.975
 4315TIP3    H112909   0.102   4.224   1.020
 4315TIP3    H212910   0.140   4.104   0.937
 4316TIP3   OH212911   4.034   4.457   3.249
 4316TIP3    H112912   3.984   4.502   3.317
 4316TIP3    H212913   4.072   4.526   3.196
 4317TIP3   OH212914   3.470   5.573   0.721
 4317TIP3    H112915   3.559   5.592   0.751
 4317TIP3    H212916   3.482   5.539   0.632
 4318TIP3   OH212917   4.092   2.404   0.009
 4318TIP3    H112918   4.029   2.461   0.053
 4318TIP3    H212919   4.042   2.325  -0.014
 4319TIP3   OH212920   6.406   4.233   2.472
 4319TIP3    H112921   6.367   4.217   2.558
 4319TIP3    H212922   6.437   4.147   2.443
 4320TIP3   OH212923   4.056   0.740   2.324
 4320TIP3    H112924   4.061   0.741   2.229
 4320TIP3    H212925   3.971   0.699   2.344
 4321TIP3   OH212926   1.884   1.879   0.309
 4321TIP3    H112927   1.929   1.801   0.342
 4321TIP3    H212928   1.951   1.926   0.261
 4322TIP3   OH212929   6.708   1.709   2.981
 4322TIP3    H112930   6.629   1.707   2.927
 4322TIP3    H212931   6.778   1.732   2.920
 4323TIP3   OH212932   5.058   1.815   3.271
 4323TIP3    H112933   5.149   1.818   3.300
 4323TIP3    H212934   5.049   1.730   3.228
 4324TIP3   OH212935   4.592   0.427   1.057
 4324TIP3    H112936   4.630   0.505   1.097
 4324TIP3    H212937   4.595   0.444   0.963
 4325TIP3   OH212938   3.260   2.429   4.865
 4325TIP3    H112939   3.228   2.484   4.793
 4325TIP3    H212940   3.214   2.463   4.942
 4326TIP3   OH212941   5.506   4.305   3.881
 4326TIP3    H112942   5.475   4.299   3.972
 4326TIP3    H212943   5.595   4.338   3.888
 4327TIP3   OH212944   5.251   3.163   0.159
 4327TIP3    H112945   5.270   3.240   0.211
 4327TIP3    H212946   5.192   3.194   0.090
 4328TIP3   OH212947   5.264   5.798   5.108
 4328TIP3    H112948   5.317   5.722   5.131
 4328TIP3    H212949   5.223   5.774   5.024
 4329TIP3   OH212950   2.610   6.676   2.154
 4329TIP3    H112951   2.605   6.770   2.139
 4329TIP3    H212952   2.676   6.666   2.223
 4330TIP3   OH212953   5.128   0.009   1.511
 4330TIP3    H112954   5.167   0.003   1.598
 4330TIP3    H212955   5.201  -0.003   1.451
 4331TIP3   OH212956   6.802   4.329   1.796
 4331TIP3    H112957   6.797   4.411   1.845
 4331TIP3    H212958   6.884   4.289   1.823
 4332TIP3   OH212959   0.652   6.514   1.759
 4332TIP3    H112960   0.668   6.450   1.690
 4332TIP3    H212961   0.674   6.468   1.840
 4333TIP3   OH212962   1.631   0.863   0.851
 4333TIP3    H112963   1.559   0.808   0.818
 4333TIP3    H212964   1.591   0.949   0.864
 4334TIP3   OH212965   3.249   4.013   0.335
 4334TIP3    H112966   3.320   4.072   0.360
 4334TIP3    H212967   3.268   3.989   0.245
 4335TIP3   OH212968   3.509   4.611   2.632
 4335TIP3    H112969   3.480   4.520   2.628
 4335TIP3    H212970   3.592   4.608   2.680
 4336TIP3   OH212971   5.184   2.322   0.528
 4336TIP3    H112972   5.203   2.381   0.600
 4336TIP3    H212973   5.270   2.302   0.491
 4337TIP3   OH212974   2.144   3.895   2.264
 4337TIP3    H112975   2.091   3.953   2.318
 4337TIP3    H212976   2.118   3.807   2.292
 4338TIP3   OH212977   0.527   4.789   1.980
 4338TIP3    H112978   0.504   4.817   1.891
 4338TIP3    H212979   0.614   4.827   1.995
 4339TIP3   OH212980   0.539   0.690   2.410
 4339TIP3    H112981   0.543   0.602   2.371
 4339TIP3    H212982   0.553   0.750   2.337
 4340TIP3   OH212983   1.708   3.574   5.442
 4340TIP3    H112984   1.696   3.479   5.445
 4340TIP3    H212985   1.780   3.590   5.503
 4341TIP3   OH212986   1.058   6.500   1.897
 4341TIP3    H112987   1.012   6.449   1.830
 4341TIP3    H212988   0.988   6.536   1.951
 4342TIP3   OH212989   1.165   3.968   1.740
 4342TIP3    H112990   1.155   4.060   1.765
 4342TIP3    H212991   1.193   3.971   1.649
 4343TIP3   OH212992   4.742   2.208   3.426
 4343TIP3    H112993   4.699   2.144   3.369
 4343TIP3    H212994   4.686   2.213   3.503
 4344TIP3   OH212995   6.311   5.935   5.615
 4344TIP3    H112996   6.393   5.969   5.652
 4344TIP3    H212997   6.245   5.953   5.682
 4345TIP3   OH212998   6.677   1.220   0.640
 4345TIP3    H112999   6.631   1.201   0.558
 4345TIP3    H213000   6.612   1.266   0.693
 4346TIP3   OH213001   3.795   2.781   5.231
 4346TIP3    H113002   3.777   2.869   5.197
 4346TIP3    H213003   3.750   2.778   5.315
 4347TIP3   OH213004   3.702   3.760   1.602
 4347TIP3    H113005   3.722   3.716   1.519
 4347TIP3    H213006   3.668   3.690   1.658
 4348TIP3   OH213007   5.466   2.501   0.766
 4348TIP3    H113008   5.442   2.586   0.728
 4348TIP3    H213009   5.477   2.519   0.859
 4349TIP3   OH213010   6.172   5.948   4.098
 4349TIP3    H113011   6.203   5.870   4.144
 4349TIP3    H213012   6.076   5.943   4.104
 4350TIP3   OH213013   3.734   2.960   4.337
 4350TIP3    H113014   3.731   3.048   4.375
 4350TIP3    H213015   3.823   2.930   4.356
 4351TIP3   OH213016   5.389   6.337   3.892
 4351TIP3    H113017   5.335   6.289   3.954
 4351TIP3    H213018   5.436   6.401   3.945
 4352TIP3   OH213019   2.991   4.079   5.852
 4352TIP3    H113020   2.976   4.167   5.818
 4352TIP3    H213021   2.966   4.084   5.944
 4353TIP3   OH213022   6.982   4.211   1.309
 4353TIP3    H113023   6.985   4.145   1.379
 4353TIP3    H213024   6.889   4.231   1.299
 4354TIP3   OH213025   5.551   5.451   2.393
 4354TIP3    H113026   5.637   5.448   2.352
 4354TIP3    H213027   5.549   5.536   2.438
 4355TIP3   OH213028   5.398   3.198   3.890
 4355TIP3    H113029   5.491   3.211   3.870
 4355TIP3    H213030   5.370   3.280   3.930
 4356TIP3   OH213031   0.539   4.917   3.514
 4356TIP3    H113032   0.494   4.834   3.494
 4356TIP3    H213033   0.470   4.973   3.550
 4357TIP3   OH213034   1.201   2.660   4.387
 4357TIP3    H113035   1.261   2.643   4.460
 4357TIP3    H213036   1.154   2.577   4.376
 4358TIP3   OH213037   4.053   6.475   2.892
 4358TIP3    H113038   4.143   6.506   2.908
 4358TIP3    H213039   4.056   6.382   2.910
 4359TIP3   OH213040   6.282   6.654   2.089
 4359TIP3    H113041   6.248   6.643   2.001
 4359TIP3    H213042   6.377   6.648   2.079
 4360TIP3   OH213043   6.746   3.620   1.826
 4360TIP3    H113044   6.677   3.631   1.761
 4360TIP3    H213045   6.761   3.708   1.861
 4361TIP3   OH213046   2.129   2.503   1.129
 4361TIP3    H113047   2.126   2.597   1.113
 4361TIP3    H213048   2.214   2.488   1.170
 4362TIP3   OH213049   2.750   3.996   1.607
 4362TIP3    H113050   2.752   3.901   1.602
 4362TIP3    H213051   2.833   4.024   1.568
 4363TIP3   OH213052   6.151   6.241   0.981
 4363TIP3    H113053   6.155   6.324   0.933
 4363TIP3    H213054   6.231   6.195   0.957
 4364TIP3   OH213055   5.841   5.140   1.619
 4364TIP3    H113056   5.802   5.148   1.533
 4364TIP3    H213057   5.933   5.165   1.607
 4365TIP3   OH213058   2.286   1.534   3.827
 4365TIP3    H113059   2.295   1.547   3.733
 4365TIP3    H213060   2.265   1.621   3.861
 4366TIP3   OH213061   5.306   2.024   1.279
 4366TIP3    H113062   5.369   2.046   1.348
 4366TIP3    H213063   5.252   1.955   1.318
 4367TIP3   OH213064   4.274   3.607   3.372
 4367TIP3    H113065   4.329   3.568   3.304
 4367TIP3    H213066   4.307   3.568   3.454
 4368TIP3   OH213067   3.970   4.383   2.471
 4368TIP3    H113068   3.890   4.357   2.425
 4368TIP3    H213069   3.993   4.468   2.433
 4369TIP3   OH213070   6.953   1.423   0.191
 4369TIP3    H113071   6.938   1.509   0.152
 4369TIP3    H213072   6.900   1.423   0.270
 4370TIP3   OH213073   1.232   0.068   1.632
 4370TIP3    H113074   1.223   0.102   1.543
 4370TIP3    H213075   1.212  -0.026   1.624
 4371TIP3   OH213076   2.967   5.914   0.192
 4371TIP3    H113077   2.965   5.902   0.287
 4371TIP3    H213078   3.021   5.992   0.179
 4372TIP3   OH213079   5.830   3.410   2.558
 4372TIP3    H113080   5.748   3.450   2.588
 4372TIP3    H213081   5.835   3.430   2.465
 4373TIP3   OH213082   7.049   6.224   0.232
 4373TIP3    H113083   7.030   6.308   0.273
 4373TIP3    H213084   6.995   6.223   0.154
 4374TIP3   OH213085   5.363   3.233   0.449
 4374TIP3    H113086   5.293   3.214   0.511
 4374TIP3    H213087   5.437   3.180   0.478
 4375TIP3   OH213088   0.387   6.079   5.045
 4375TIP3    H113089   0.359   6.020   4.975
 4375TIP3    H213090   0.393   6.023   5.122
 4376TIP3   OH213091   6.503   2.659   1.497
 4376TIP3    H113092   6.587   2.697   1.520
 4376TIP3    H213093   6.449   2.734   1.470
 4377TIP3   OH213094   6.405   4.293   1.440
 4377TIP3    H113095   6.380   4.386   1.441
 4377TIP3    H213096   6.496   4.294   1.409
 4378TIP3   OH213097   0.199   3.817   1.753
 4378TIP3    H113098   0.246   3.737   1.776
 4378TIP3    H213099   0.108   3.799   1.776
 4379TIP3   OH213100   5.387   3.778   4.305
 4379TIP3    H113101   5.341   3.809   4.227
 4379TIP3    H213102   5.371   3.684   4.307
 4380TIP3   OH213103   7.106   0.554   1.828
 4380TIP3    H113104   7.127   0.469   1.790
 4380TIP3    H213105   7.013   0.566   1.810
 4381TIP3   OH213106   2.955   3.977   0.676
 4381TIP3    H113107   2.897   3.906   0.701
 4381TIP3    H213108   2.944   3.986   0.582
 4382TIP3   OH213109   0.921   1.404   1.121
 4382TIP3    H113110   0.847   1.405   1.182
 4382TIP3    H213111   0.979   1.473   1.154
 4383TIP3   OH213112   0.576   0.167   4.849
 4383TIP3    H113113   0.606   0.132   4.932
 4383TIP3    H213114   0.645   0.144   4.787
 4384TIP3   OH213115   1.037   3.878   3.157
 4384TIP3    H113116   1.083   3.925   3.226
 4384TIP3    H213117   0.945   3.885   3.181
 4385TIP3   OH213118   6.156   4.161   1.613
 4385TIP3    H113119   6.241   4.118   1.619
 4385TIP3    H213120   6.136   4.162   1.519
 4386TIP3   OH213121   3.498   5.652   1.378
 4386TIP3    H113122   3.531   5.732   1.419
 4386TIP3    H213123   3.409   5.674   1.349
 4387TIP3   OH213124   6.436   6.245   4.322
 4387TIP3    H113125   6.415   6.192   4.246
 4387TIP3    H213126   6.360   6.237   4.379
 4388TIP3   OH213127   6.807   3.210   2.316
 4388TIP3    H113128   6.751   3.269   2.367
 4388TIP3    H213129   6.814   3.132   2.371
 4389TIP3   OH213130   0.753   5.253   5.252
 4389TIP3    H113131   0.685   5.299   5.203
 4389TIP3    H213132   0.831   5.260   5.197
 4390TIP3   OH213133   3.407   6.397   1.667
 4390TIP3    H113134   3.477   6.425   1.607
 4390TIP3    H213135   3.372   6.318   1.627
 4391TIP3   OH213136   0.387   2.431   2.627
 4391TIP3    H113137   0.444   2.355   2.617
 4391TIP3    H213138   0.318   2.417   2.562
 4392TIP3   OH213139   2.249   1.519   1.715
 4392TIP3    H113140   2.253   1.569   1.634
 4392TIP3    H213141   2.245   1.585   1.784
 4393TIP3   OH213142   1.875   2.267   5.730
 4393TIP3    H113143   1.911   2.355   5.713
 4393TIP3    H213144   1.897   2.217   5.651
 4394TIP3   OH213145   3.850   0.969   3.265
 4394TIP3    H113146   3.817   1.021   3.193
 4394TIP3    H213147   3.909   0.905   3.224
 4395TIP3   OH213148   6.665   0.583   0.939
 4395TIP3    H113149   6.663   0.539   0.854
 4395TIP3    H213150   6.575   0.577   0.971
 4396TIP3   OH213151   1.748   0.524   2.136
 4396TIP3    H113152   1.662   0.491   2.160
 4396TIP3    H213153   1.754   0.509   2.042
 4397TIP3   OH213154   3.232   1.336   3.737
 4397TIP3    H113155   3.143   1.370   3.738
 4397TIP3    H213156   3.223   1.245   3.766
 4398TIP3   OH213157   1.109   2.816   0.558
 4398TIP3    H113158   1.136   2.890   0.504
 4398TIP3    H213159   1.188   2.765   0.572
 4399TIP3   OH213160   0.222   2.246   0.938
 4399TIP3    H113161   0.210   2.187   1.012
 4399TIP3    H213162   0.257   2.326   0.977
 4400TIP3   OH213163   3.679   4.865   5.170
 4400TIP3    H113164   3.621   4.894   5.100
 4400TIP3    H213165   3.712   4.780   5.141
 4401TIP3   OH213166   1.811   1.111   1.344
 4401TIP3    H113167   1.884   1.166   1.371
 4401TIP3    H213168   1.841   1.066   1.265
 4402TIP3   OH213169   6.623   2.753   0.235
 4402TIP3    H113170   6.542   2.760   0.186
 4402TIP3    H213171   6.606   2.800   0.317
 4403TIP3   OH213172   0.193   2.145   1.199
 4403TIP3    H113173   0.201   2.127   1.293
 4403TIP3    H213174   0.207   2.239   1.191
 4404TIP3   OH213175   5.482   6.593   4.007
 4404TIP3    H113176   5.556   6.602   4.066
 4404TIP3    H213177   5.406   6.621   4.059
 4405TIP3   OH213178   1.549   5.070   4.128
 4405TIP3    H113179   1.593   5.054   4.212
 4405TIP3    H213180   1.486   5.000   4.119
 4406TIP3   OH213181   5.153   6.591   2.512
 4406TIP3    H113182   5.180   6.659   2.573
 4406TIP3    H213183   5.103   6.638   2.445
 4407TIP3   OH213184   4.970   5.303   1.649
 4407TIP3    H113185   4.934   5.351   1.573
 4407TIP3    H213186   5.001   5.221   1.612
 4408TIP3   OH213187   1.020   3.673   2.562
 4408TIP3    H113188   1.044   3.581   2.573
 4408TIP3    H213189   1.101   3.722   2.576
 4409TIP3   OH213190   4.600   6.082   3.400
 4409TIP3    H113191   4.505   6.088   3.389
 4409TIP3    H213192   4.620   6.146   3.469
 4410TIP3   OH213193   1.881   0.379   3.406
 4410TIP3    H113194   1.951   0.319   3.430
 4410TIP3    H213195   1.921   0.466   3.411
 4411TIP3   OH213196   3.115   6.083   1.651
 4411TIP3    H113197   3.123   6.166   1.605
 4411TIP3    H213198   3.088   6.107   1.740
 4412TIP3   OH213199   1.936   1.926   1.274
 4412TIP3    H113200   1.859   1.980   1.289
 4412TIP3    H213201   1.920   1.847   1.325
 4413TIP3   OH213202   4.733   5.300   1.782
 4413TIP3    H113203   4.824   5.291   1.756
 4413TIP3    H213204   4.687   5.231   1.733
 4414TIP3   OH213205   1.540   2.525   2.413
 4414TIP3    H113206   1.490   2.508   2.493
 4414TIP3    H213207   1.474   2.553   2.349
 4415TIP3   OH213208   2.051   4.642   2.076
 4415TIP3    H113209   2.085   4.686   1.998
 4415TIP3    H213210   1.956   4.646   2.067
 4416TIP3   OH213211   4.628   0.821   4.072
 4416TIP3    H113212   4.595   0.783   3.990
 4416TIP3    H213213   4.724   0.822   4.061
 4417TIP3   OH213214   6.799   4.181   0.274
 4417TIP3    H113215   6.885   4.176   0.315
 4417TIP3    H213216   6.793   4.271   0.241
 4418TIP3   OH213217   6.275   1.439   2.666
 4418TIP3    H113218   6.204   1.502   2.676
 4418TIP3    H213219   6.255   1.392   2.585
 4419TIP3   OH213220   6.035   0.083   5.312
 4419TIP3    H113221   6.054   0.044   5.226
 4419TIP3    H213222   6.118   0.117   5.342
 4420TIP3   OH213223   0.484   1.747   0.137
 4420TIP3    H113224   0.565   1.787   0.167
 4420TIP3    H213225   0.493   1.741   0.042
 4421TIP3   OH213226   6.740   3.594   1.443
 4421TIP3    H113227   6.664   3.535   1.443
 4421TIP3    H213228   6.703   3.681   1.454
 4422TIP3   OH213229   3.045   4.556   0.680
 4422TIP3    H113230   2.996   4.638   0.669
 4422TIP3    H213231   2.978   4.488   0.684
 4423TIP3   OH213232   5.332   1.082   4.371
 4423TIP3    H113233   5.402   1.026   4.337
 4423TIP3    H213234   5.253   1.048   4.329
 4424TIP3   OH213235   5.780   0.981   5.294
 4424TIP3    H113236   5.696   0.936   5.306
 4424TIP3    H213237   5.768   1.066   5.337
 4425TIP3   OH213238   6.847   6.110   3.160
 4425TIP3    H113239   6.873   6.148   3.077
 4425TIP3    H213240   6.804   6.182   3.207
 4426TIP3   OH213241   1.325   5.071   0.156
 4426TIP3    H113242   1.408   5.118   0.152
 4426TIP3    H213243   1.348   4.979   0.143
 4427TIP3   OH213244   3.476   5.959   5.909
 4427TIP3    H113245   3.516   5.908   5.839
 4427TIP3    H213246   3.491   6.050   5.884
 4428TIP3   OH213247   0.209   6.014   1.206
 4428TIP3    H113248   0.228   6.062   1.125
 4428TIP3    H213249   0.122   5.977   1.192
 4429TIP3   OH213250   3.988   2.732   5.051
 4429TIP3    H113251   3.918   2.776   5.100
 4429TIP3    H213252   3.943   2.687   4.980
 4430TIP3   OH213253   1.748   6.314   1.901
 4430TIP3    H113254   1.789   6.399   1.884
 4430TIP3    H213255   1.822   6.254   1.913
 4431TIP3   OH213256   0.755   2.265   1.239
 4431TIP3    H113257   0.730   2.346   1.195
 4431TIP3    H213258   0.713   2.196   1.187
 4432TIP3   OH213259   2.346   1.380   3.407
 4432TIP3    H113260   2.362   1.336   3.324
 4432TIP3    H213261   2.260   1.348   3.436
 4433TIP3   OH213262   0.429   5.203   1.934
 4433TIP3    H113263   0.409   5.279   1.879
 4433TIP3    H213264   0.464   5.241   2.015
 4434TIP3   OH213265   4.212   0.019   3.896
 4434TIP3    H113266   4.230  -0.072   3.872
 4434TIP3    H213267   4.193   0.062   3.812
 4435TIP3   OH213268   7.036   6.329   3.678
 4435TIP3    H113269   7.061   6.391   3.609
 4435TIP3    H213270   6.969   6.375   3.729
 4436TIP3   OH213271   0.674   4.756   3.756
 4436TIP3    H113272   0.621   4.833   3.741
 4436TIP3    H213273   0.690   4.720   3.669
 4437TIP3   OH213274   1.839   1.627   3.488
 4437TIP3    H113275   1.772   1.560   3.477
 4437TIP3    H213276   1.851   1.665   3.401
 4438TIP3   OH213277   0.961   6.561   5.624
 4438TIP3    H113278   0.962   6.484   5.567
 4438TIP3    H213279   1.053   6.582   5.638
 4439TIP3   OH213280   4.550   4.163   4.646
 4439TIP3    H113281   4.615   4.104   4.607
 4439TIP3    H213282   4.471   4.109   4.655
 4440TIP3   OH213283   5.370   5.945   1.820
 4440TIP3    H113284   5.290   5.995   1.806
 4440TIP3    H213285   5.370   5.879   1.750
 4441TIP3   OH213286   2.806   3.883   0.146
 4441TIP3    H113287   2.828   3.805   0.198
 4441TIP3    H213288   2.725   3.915   0.185
 4442TIP3   OH213289   6.154   6.138   2.949
 4442TIP3    H113290   6.206   6.153   2.870
 4442TIP3    H213291   6.063   6.144   2.920
 4443TIP3   OH213292   0.407   6.249   0.742
 4443TIP3    H113293   0.373   6.252   0.832
 4443TIP3    H213294   0.360   6.318   0.696
 4444TIP3   OH213295   2.858   2.879   1.038
 4444TIP3    H113296   2.949   2.888   1.008
 4444TIP3    H213297   2.865   2.860   1.132
 4445TIP3   OH213298   0.757   4.042   4.057
 4445TIP3    H113299   0.722   4.132   4.054
 4445TIP3    H213300   0.818   4.044   4.131
 4446TIP3   OH213301   5.260   1.800   5.608
 4446TIP3    H113302   5.168   1.823   5.598
 4446TIP3    H213303   5.304   1.884   5.627
 4447TIP3   OH213304   2.932   3.296   4.165
 4447TIP3    H113305   2.919   3.380   4.209
 4447TIP3    H213306   2.847   3.276   4.125
 4448TIP3   OH213307   4.449   6.561   0.986
 4448TIP3    H113308   4.444   6.510   1.067
 4448TIP3    H213309   4.526   6.617   0.996
 4449TIP3   OH213310   0.741   3.653   3.039
 4449TIP3    H113311   0.740   3.604   3.122
 4449TIP3    H213312   0.736   3.585   2.972
 4450TIP3   OH213313   1.335   2.293   2.812
 4450TIP3    H113314   1.284   2.366   2.847
 4450TIP3    H213315   1.300   2.279   2.725
 4451TIP3   OH213316   5.227   0.712   1.473
 4451TIP3    H113317   5.238   0.669   1.557
 4451TIP3    H213318   5.136   0.740   1.471
 4452TIP3   OH213319   6.753   1.257   5.151
 4452TIP3    H113320   6.789   1.177   5.189
 4452TIP3    H213321   6.815   1.326   5.175
 4453TIP3   OH213322   3.894   2.312   0.300
 4453TIP3    H113323   3.890   2.401   0.335
 4453TIP3    H213324   3.804   2.294   0.273
 4454TIP3   OH213325   4.347   4.608   1.872
 4454TIP3    H113326   4.371   4.565   1.954
 4454TIP3    H213327   4.286   4.677   1.898
 4455TIP3   OH213328   0.217   6.093   0.929
 4455TIP3    H113329   0.178   6.180   0.931
 4455TIP3    H213330   0.157   6.041   0.874
 4456TIP3   OH213331   1.266   5.541   5.506
 4456TIP3    H113332   1.355   5.570   5.527
 4456TIP3    H213333   1.236   5.498   5.586
 4457TIP3   OH213334   1.556   0.949   1.128
 4457TIP3    H113335   1.567   0.859   1.098
 4457TIP3    H213336   1.633   0.995   1.095
 4458TIP3   OH213337   3.677   1.411   3.641
 4458TIP3    H113338   3.644   1.417   3.731
 4458TIP3    H213339   3.601   1.383   3.590
 4459TIP3   OH213340   4.711   0.132   5.282
 4459TIP3    H113341   4.636   0.158   5.229
 4459TIP3    H213342   4.745   0.054   5.238
 4460TIP3   OH213343   3.871   2.742   3.169
 4460TIP3    H113344   3.776   2.757   3.170
 4460TIP3    H213345   3.908   2.828   3.190
 4461TIP3   OH213346   2.360   4.612   5.564
 4461TIP3    H113347   2.295   4.542   5.563
 4461TIP3    H213348   2.392   4.614   5.655
 4462TIP3   OH213349   6.659   2.848   2.296
 4462TIP3    H113350   6.700   2.904   2.231
 4462TIP3    H213351   6.679   2.759   2.269
 4463TIP3   OH213352   1.260   4.088   2.085
 4463TIP3    H113353   1.228   4.023   2.022
 4463TIP3    H213354   1.223   4.171   2.055
 4464TIP3   OH213355   0.039   3.395   0.016
 4464TIP3    H113356  -0.014   3.318  -0.005
 4464TIP3    H213357   0.086   3.372   0.096
 4465TIP3   OH213358   4.080   1.936   5.097
 4465TIP3    H113359   4.008   1.995   5.120
 4465TIP3    H213360   4.055   1.898   5.013
 4466TIP3   OH213361   3.843   4.599   4.758
 4466TIP3    H113362   3.888   4.662   4.702
 4466TIP3    H213363   3.912   4.560   4.811
 4467TIP3   OH213364   2.641   1.233   4.650
 4467TIP3    H113365   2.650   1.328   4.652
 4467TIP3    H213366   2.667   1.205   4.738
 4468TIP3   OH213367   7.055   0.033   5.513
 4468TIP3    H113368   7.041  -0.016   5.432
 4468TIP3    H213369   6.967   0.044   5.550
 4469TIP3   OH213370   6.154   0.417   1.742
 4469TIP3    H113371   6.199   0.335   1.763
 4469TIP3    H213372   6.206   0.485   1.783
 4470TIP3   OH213373   2.629   6.790   0.515
 4470TIP3    H113374   2.623   6.718   0.578
 4470TIP3    H213375   2.706   6.840   0.543
 4471TIP3   OH213376   2.544   5.637   4.166
 4471TIP3    H113377   2.547   5.715   4.110
 4471TIP3    H213378   2.493   5.574   4.116
 4472TIP3   OH213379   0.975   0.936   4.406
 4472TIP3    H113380   0.880   0.928   4.397
 4472TIP3    H213381   1.008   0.938   4.317
 4473TIP3   OH213382   3.409   2.838   5.679
 4473TIP3    H113383   3.446   2.879   5.758
 4473TIP3    H213384   3.412   2.906   5.613
 4474TIP3   OH213385   1.174   6.764   3.258
 4474TIP3    H113386   1.229   6.690   3.284
 4474TIP3    H213387   1.098   6.758   3.316
 4475TIP3   OH213388   3.918   3.136   0.161
 4475TIP3    H113389   3.998   3.183   0.184
 4475TIP3    H213390   3.896   3.167   0.073
 4476TIP3   OH213391   6.888   3.910   1.766
 4476TIP3    H113392   6.972   3.865   1.759
 4476TIP3    H213393   6.888   3.947   1.854
 4477TIP3   OH213394   3.602   6.203   3.762
 4477TIP3    H113395   3.587   6.117   3.802
 4477TIP3    H213396   3.548   6.263   3.814
 4478TIP3   OH213397   3.196   1.568   5.757
 4478TIP3    H113398   3.183   1.551   5.664
 4478TIP3    H213399   3.117   1.615   5.785
 4479TIP3   OH213400   3.125   3.678   4.545
 4479TIP3    H113401   3.062   3.736   4.589
 4479TIP3    H213402   3.151   3.615   4.613
 4480TIP3   OH213403   5.041   2.226   3.426
 4480TIP3    H113404   5.044   2.131   3.420
 4480TIP3    H213405   4.949   2.248   3.406
 4481TIP3   OH213406   0.619   3.045   5.485
 4481TIP3    H113407   0.644   3.066   5.395
 4481TIP3    H213408   0.576   2.959   5.478
 4482TIP3   OH213409   4.487   0.683   3.331
 4482TIP3    H113410   4.417   0.629   3.293
 4482TIP3    H213411   4.557   0.679   3.266
 4483TIP3   OH213412   3.391   0.593   3.034
 4483TIP3    H113413   3.328   0.542   2.983
 4483TIP3    H213414   3.467   0.603   2.977
 4484TIP3   OH213415   6.374   4.602   5.503
 4484TIP3    H113416   6.386   4.554   5.585
 4484TIP3    H213417   6.423   4.551   5.439
 4485TIP3   OH213418   5.537   5.950   4.370
 4485TIP3    H113419   5.567   5.874   4.320
 4485TIP3    H213420   5.511   6.013   4.304
 4486TIP3   OH213421   1.732   5.965   0.583
 4486TIP3    H113422   1.663   5.948   0.520
 4486TIP3    H213423   1.813   5.945   0.537
 4487TIP3   OH213424   6.184   4.336   4.897
 4487TIP3    H113425   6.254   4.360   4.957
 4487TIP3    H213426   6.215   4.365   4.811
 4488TIP3   OH213427   1.713   3.258   1.428
 4488TIP3    H113428   1.803   3.225   1.439
 4488TIP3    H213429   1.682   3.274   1.517
 4489TIP3   OH213430   4.136   2.942   1.756
 4489TIP3    H113431   4.057   2.927   1.809
 4489TIP3    H213432   4.103   2.958   1.668
 4490TIP3   OH213433   0.133   3.253   3.720
 4490TIP3    H113434   0.126   3.320   3.652
 4490TIP3    H213435   0.042   3.226   3.736
 4491TIP3   OH213436   3.185   4.314   0.287
 4491TIP3    H113437   3.141   4.247   0.233
 4491TIP3    H213438   3.122   4.386   0.291
 4492TIP3   OH213439   5.701   0.344   2.444
 4492TIP3    H113440   5.620   0.392   2.463
 4492TIP3    H213441   5.747   0.398   2.380
 4493TIP3   OH213442   2.718   1.636   1.720
 4493TIP3    H113443   2.779   1.701   1.684
 4493TIP3    H213444   2.638   1.646   1.668
 4494TIP3   OH213445   1.011   0.807   0.543
 4494TIP3    H113446   1.088   0.788   0.489
 4494TIP3    H213447   0.990   0.724   0.585
 4495TIP3   OH213448   3.691   0.620   3.438
 4495TIP3    H113449   3.596   0.627   3.445
 4495TIP3    H213450   3.711   0.650   3.350
 4496TIP3   OH213451   1.775   4.867   2.986
 4496TIP3    H113452   1.733   4.791   2.945
 4496TIP3    H213453   1.798   4.838   3.074
 4497TIP3   OH213454   4.996   5.158   2.837
 4497TIP3    H113455   5.056   5.221   2.877
 4497TIP3    H213456   4.942   5.211   2.779
 4498TIP3   OH213457   4.291   4.386   0.846
 4498TIP3    H113458   4.309   4.370   0.753
 4498TIP3    H213459   4.375   4.377   0.889
 4499TIP3   OH213460   5.093   6.034   1.342
 4499TIP3    H113461   5.105   6.044   1.247
 4499TIP3    H213462   5.102   5.939   1.357
 4500TIP3   OH213463   1.632  -0.001   2.661
 4500TIP3    H113464   1.575   0.046   2.721
 4500TIP3    H213465   1.671   0.067   2.606
 4501TIP3   OH213466   2.943   6.215   3.992
 4501TIP3    H113467   2.897   6.294   4.021
 4501TIP3    H213468   2.927   6.212   3.898
 4502TIP3   OH213469   6.321   4.057   0.545
 4502TIP3    H113470   6.338   4.025   0.456
 4502TIP3    H213471   6.352   4.147   0.544
 4503TIP3   OH213472   4.139   6.647   3.165
 4503TIP3    H113473   4.116   6.645   3.072
 4503TIP3    H213474   4.216   6.703   3.170
 4504TIP3   OH213475   3.376   3.129   4.981
 4504TIP3    H113476   3.375   3.167   4.893
 4504TIP3    H213477   3.315   3.055   4.976
 4505TIP3   OH213478   6.266   2.778   4.502
 4505TIP3    H113479   6.317   2.753   4.579
 4505TIP3    H213480   6.175   2.761   4.527
 4506TIP3   OH213481   5.298   3.511   1.797
 4506TIP3    H113482   5.353   3.465   1.733
 4506TIP3    H213483   5.242   3.568   1.743
 4507TIP3   OH213484   0.266   4.451   3.570
 4507TIP3    H113485   0.175   4.444   3.540
 4507TIP3    H213486   0.263   4.517   3.640
 4508TIP3   OH213487   3.168   2.359   5.154
 4508TIP3    H113488   3.230   2.288   5.167
 4508TIP3    H213489   3.101   2.323   5.095
 4509TIP3   OH213490   2.532   0.334   0.624
 4509TIP3    H113491   2.499   0.404   0.568
 4509TIP3    H213492   2.539   0.258   0.566
 4510TIP3   OH213493   4.840   1.266   1.156
 4510TIP3    H113494   4.763   1.323   1.153
 4510TIP3    H213495   4.881   1.277   1.070
 4511TIP3   OH213496   5.331   0.419   1.646
 4511TIP3    H113497   5.288   0.333   1.640
 4511TIP3    H213498   5.374   0.417   1.732
 4512TIP3   OH213499   5.695   0.539   5.239
 4512TIP3    H113500   5.652   0.454   5.253
 4512TIP3    H213501   5.640   0.583   5.174
 4513TIP3   OH213502   4.515   2.202   5.838
 4513TIP3    H113503   4.484   2.134   5.899
 4513TIP3    H213504   4.562   2.154   5.770
 4514TIP3   OH213505   3.421   1.330   3.544
 4514TIP3    H113506   3.347   1.315   3.603
 4514TIP3    H213507   3.381   1.358   3.462
 4515TIP3   OH213508   1.474   1.357   0.216
 4515TIP3    H113509   1.415   1.318   0.281
 4515TIP3    H213510   1.440   1.446   0.203
 4516TIP3   OH213511   5.203   2.825   1.178
 4516TIP3    H113512   5.153   2.843   1.099
 4516TIP3    H213513   5.152   2.866   1.248
 4517TIP3   OH213514   1.920   4.095   3.490
 4517TIP3    H113515   1.839   4.097   3.439
 4517TIP3    H213516   1.981   4.151   3.441
 4518TIP3   OH213517   2.034   3.595   5.363
 4518TIP3    H113518   2.020   3.501   5.356
 4518TIP3    H213519   2.065   3.621   5.276
 4519TIP3   OH213520   4.552   3.808   4.176
 4519TIP3    H113521   4.466   3.830   4.141
 4519TIP3    H213522   4.560   3.714   4.162
 4520TIP3   OH213523   5.039   3.055   5.235
 4520TIP3    H113524   4.950   3.074   5.264
 4520TIP3    H213525   5.050   2.962   5.251
 4521TIP3   OH213526   2.852   2.268   1.219
 4521TIP3    H113527   2.796   2.213   1.273
 4521TIP3    H213528   2.939   2.228   1.226
 4522TIP3   OH213529   1.634   4.375   1.395
 4522TIP3    H113530   1.686   4.425   1.332
 4522TIP3    H213531   1.644   4.284   1.368
 4523TIP3   OH213532   4.297   3.568   1.405
 4523TIP3    H113533   4.203   3.550   1.416
 4523TIP3    H213534   4.300   3.661   1.380
 4524TIP3   OH213535   4.447   0.649   5.207
 4524TIP3    H113536   4.376   0.593   5.237
 4524TIP3    H213537   4.469   0.703   5.283
 4525TIP3   OH213538   4.112   3.265   3.333
 4525TIP3    H113539   4.067   3.186   3.362
 4525TIP3    H213540   4.092   3.330   3.401
 4526TIP3   OH213541   4.227   5.147   2.795
 4526TIP3    H113542   4.260   5.085   2.731
 4526TIP3    H213543   4.264   5.119   2.879
 4527TIP3   OH213544   1.134   2.724   2.028
 4527TIP3    H113545   1.097   2.810   2.007
 4527TIP3    H213546   1.060   2.672   2.058
 4528TIP3   OH213547   4.698   6.141   5.305
 4528TIP3    H113548   4.727   6.214   5.359
 4528TIP3    H213549   4.732   6.063   5.350
 4529TIP3   OH213550   1.940   5.085   5.253
 4529TIP3    H113551   1.913   4.994   5.263
 4529TIP3    H213552   1.984   5.088   5.168
 4530TIP3   OH213553   1.493   1.119   0.866
 4530TIP3    H113554   1.400   1.100   0.876
 4530TIP3    H213555   1.497   1.212   0.844
 4531TIP3   OH213556   2.116   3.614   0.798
 4531TIP3    H113557   2.153   3.649   0.879
 4531TIP3    H213558   2.059   3.543   0.826
 4532TIP3   OH213559   0.529   2.443   2.331
 4532TIP3    H113560   0.562   2.389   2.259
 4532TIP3    H213561   0.520   2.382   2.404
 4533TIP3   OH213562   5.681   4.656   4.034
 4533TIP3    H113563   5.715   4.667   3.945
 4533TIP3    H213564   5.658   4.744   4.062
 4534TIP3   OH213565   6.956   6.336   5.452
 4534TIP3    H113566   6.880   6.279   5.439
 4534TIP3    H213567   7.007   6.325   5.372
 4535TIP3   OH213568   2.913   4.079   3.395
 4535TIP3    H113569   2.886   4.157   3.346
 4535TIP3    H213570   3.009   4.082   3.394
 4536TIP3   OH213571   2.708   5.032   1.839
 4536TIP3    H113572   2.692   4.961   1.901
 4536TIP3    H213573   2.802   5.028   1.822
 4537TIP3   OH213574   5.900   6.550   3.165
 4537TIP3    H113575   5.894   6.454   3.160
 4537TIP3    H213576   5.820   6.577   3.209
 4538TIP3   OH213577   0.726   0.597   3.561
 4538TIP3    H113578   0.632   0.606   3.579
 4538TIP3    H213579   0.756   0.687   3.547
 4539TIP3   OH213580   1.746   5.870   5.401
 4539TIP3    H113581   1.816   5.849   5.340
 4539TIP3    H213582   1.767   5.821   5.481
 4540TIP3   OH213583   4.914   3.988   0.682
 4540TIP3    H113584   4.911   4.041   0.602
 4540TIP3    H213585   4.822   3.968   0.700
 4541TIP3   OH213586   4.926   4.357   1.276
 4541TIP3    H113587   4.922   4.292   1.346
 4541TIP3    H213588   4.974   4.314   1.205
 4542TIP3   OH213589   4.201   4.913   0.271
 4542TIP3    H113590   4.263   4.972   0.226
 4542TIP3    H213591   4.156   4.867   0.200
 4543TIP3   OH213592   6.695   0.505   5.334
 4543TIP3    H113593   6.731   0.560   5.404
 4543TIP3    H213594   6.628   0.453   5.377
 4544TIP3   OH213595   4.357   1.927   4.136
 4544TIP3    H113596   4.338   1.912   4.043
 4544TIP3    H213597   4.424   1.862   4.157
 4545TIP3   OH213598   3.195   3.524   5.721
 4545TIP3    H113599   3.123   3.482   5.674
 4545TIP3    H213600   3.177   3.618   5.712
 4546TIP3   OH213601   0.721   2.468   5.724
 4546TIP3    H113602   0.733   2.431   5.636
 4546TIP3    H213603   0.810   2.485   5.755
 4547TIP3   OH213604   0.987   3.562   0.930
 4547TIP3    H113605   0.938   3.558   1.013
 4547TIP3    H213606   0.979   3.653   0.903
 4548TIP3   OH213607   0.420   4.054   2.381
 4548TIP3    H113608   0.357   3.986   2.357
 4548TIP3    H213609   0.399   4.076   2.472
 4549TIP3   OH213610   1.511   4.624   0.419
 4549TIP3    H113611   1.445   4.573   0.466
 4549TIP3    H213612   1.562   4.666   0.488
 4550TIP3   OH213613   1.303   3.194   5.429
 4550TIP3    H113614   1.273   3.104   5.442
 4550TIP3    H213615   1.271   3.219   5.342
 4551TIP3   OH213616   5.320   5.476   0.320
 4551TIP3    H113617   5.297   5.384   0.314
 4551TIP3    H213618   5.400   5.478   0.373
 4552TIP3   OH213619   0.628   2.169   2.281
 4552TIP3    H113620   0.554   2.120   2.317
 4552TIP3    H213621   0.691   2.175   2.353
 4553TIP3   OH213622   2.490   6.215   2.562
 4553TIP3    H113623   2.459   6.153   2.495
 4553TIP3    H213624   2.474   6.171   2.645
 4554TIP3   OH213625   5.806   4.267   2.318
 4554TIP3    H113626   5.734   4.297   2.262
 4554TIP3    H213627   5.792   4.173   2.328
 4555TIP3   OH213628   0.580   6.311   3.999
 4555TIP3    H113629   0.599   6.218   4.016
 4555TIP3    H213630   0.639   6.358   4.058
 4556TIP3   OH213631   0.676   3.084   5.763
 4556TIP3    H113632   0.680   2.991   5.784
 4556TIP3    H213633   0.636   3.087   5.676
 4557TIP3   OH213634   3.848   3.589   5.445
 4557TIP3    H113635   3.767   3.622   5.405
 4557TIP3    H213636   3.818   3.547   5.526
 4558TIP3   OH213637   1.233   5.220   1.348
 4558TIP3    H113638   1.292   5.281   1.392
 4558TIP3    H213639   1.158   5.273   1.322
 4559TIP3   OH213640   6.748   2.845   0.533
 4559TIP3    H113641   6.826   2.894   0.559
 4559TIP3    H213642   6.692   2.909   0.490
 4560TIP3   OH213643   0.339   1.503   4.751
 4560TIP3    H113644   0.332   1.438   4.681
 4560TIP3    H213645   0.390   1.574   4.713
 4561TIP3   OH213646   6.414   2.613   2.069
 4561TIP3    H113647   6.463   2.618   1.987
 4561TIP3    H213648   6.413   2.702   2.103
 4562TIP3   OH213649   6.374   2.630   4.738
 4562TIP3    H113650   6.342   2.697   4.799
 4562TIP3    H213651   6.327   2.550   4.763
 4563TIP3   OH213652   2.738   3.890   4.116
 4563TIP3    H113653   2.703   3.811   4.158
 4563TIP3    H213654   2.830   3.870   4.100
 4564TIP3   OH213655   6.167   2.384   4.594
 4564TIP3    H113656   6.121   2.462   4.625
 4564TIP3    H213657   6.257   2.412   4.579
 4565TIP3   OH213658   6.624   4.783   5.732
 4565TIP3    H113659   6.624   4.693   5.766
 4565TIP3    H213660   6.674   4.778   5.650
 4566TIP3   OH213661   2.335   5.186   1.653
 4566TIP3    H113662   2.253   5.174   1.702
 4566TIP3    H213663   2.404   5.168   1.717
 4567TIP3   OH213664   0.709   3.599   4.194
 4567TIP3    H113665   0.641   3.539   4.225
 4567TIP3    H213666   0.706   3.592   4.099
 4568TIP3   OH213667   5.152   2.814   2.879
 4568TIP3    H113668   5.156   2.885   2.943
 4568TIP3    H213669   5.228   2.828   2.823
 4569TIP3   OH213670   2.435   5.590   2.570
 4569TIP3    H113671   2.501   5.656   2.549
 4569TIP3    H213672   2.421   5.599   2.664
 4570TIP3   OH213673   1.599   4.176   5.163
 4570TIP3    H113674   1.674   4.158   5.108
 4570TIP3    H213675   1.535   4.217   5.105
 4571TIP3   OH213676   6.433   4.404   0.998
 4571TIP3    H113677   6.515   4.373   1.037
 4571TIP3    H213678   6.414   4.486   1.045
 4572TIP3   OH213679   4.522   6.620   1.652
 4572TIP3    H113680   4.514   6.665   1.568
 4572TIP3    H213681   4.613   6.594   1.657
 4573TIP3   OH213682   6.546   1.174   5.545
 4573TIP3    H113683   6.563   1.152   5.636
 4573TIP3    H213684   6.575   1.098   5.496
 4574TIP3   OH213685   5.761   5.391   4.988
 4574TIP3    H113686   5.670   5.422   4.989
 4574TIP3    H213687   5.781   5.375   5.080
 4575TIP3   OH213688   5.525   4.114   2.573
 4575TIP3    H113689   5.446   4.074   2.610
 4575TIP3    H213690   5.592   4.046   2.579
 4576TIP3   OH213691   1.503   4.962   1.541
 4576TIP3    H113692   1.500   4.870   1.514
 4576TIP3    H213693   1.545   5.007   1.467
 4577TIP3   OH213694   6.033   1.671   3.262
 4577TIP3    H113695   6.113   1.632   3.298
 4577TIP3    H213696   5.990   1.710   3.337
 4578TIP3   OH213697   0.754   3.499   5.019
 4578TIP3    H113698   0.665   3.529   5.034
 4578TIP3    H213699   0.791   3.564   4.959
 4579TIP3   OH213700   0.909   3.894   2.330
 4579TIP3    H113701   0.982   3.939   2.374
 4579TIP3    H213702   0.836   3.955   2.338
 4580TIP3   OH213703   3.770   6.375   3.205
 4580TIP3    H113704   3.736   6.423   3.129
 4580TIP3    H213705   3.785   6.442   3.271
 4581TIP3   OH213706   4.471   0.929   0.750
 4581TIP3    H113707   4.431   0.855   0.795
 4581TIP3    H213708   4.443   0.919   0.658
 4582TIP3   OH213709   0.508   3.556   5.096
 4582TIP3    H113710   0.483   3.621   5.030
 4582TIP3    H213711   0.425   3.515   5.122
 4583TIP3   OH213712   1.389   2.198   0.879
 4583TIP3    H113713   1.445   2.254   0.826
 4583TIP3    H213714   1.450   2.147   0.932
 4584TIP3   OH213715   0.049   6.245   0.678
 4584TIP3    H113716   0.105   6.183   0.631
 4584TIP3    H213717   0.056   6.327   0.628
 4585TIP3   OH213718   3.260   0.568   2.510
 4585TIP3    H113719   3.340   0.523   2.484
 4585TIP3    H213720   3.224   0.604   2.429
 4586TIP3   OH213721   5.164   1.285   2.219
 4586TIP3    H113722   5.221   1.248   2.286
 4586TIP3    H213723   5.166   1.221   2.147
 4587TIP3   OH213724   2.388   3.456   5.637
 4587TIP3    H113725   2.437   3.427   5.713
 4587TIP3    H213726   2.298   3.468   5.670
 4588TIP3   OH213727   5.083   3.532   5.050
 4588TIP3    H113728   5.118   3.577   5.127
 4588TIP3    H213729   5.143   3.459   5.036
 4589TIP3   OH213730   4.712   1.011   0.022
 4589TIP3    H113731   4.648   0.941   0.034
 4589TIP3    H213732   4.751   1.023   0.109
 4590TIP3   OH213733   5.576   4.855   2.346
 4590TIP3    H113734   5.623   4.876   2.266
 4590TIP3    H213735   5.534   4.771   2.329
 4591TIP3   OH213736   3.753   2.130   4.313
 4591TIP3    H113737   3.766   2.212   4.266
 4591TIP3    H213738   3.721   2.156   4.399
 4592TIP3   OH213739   4.203   6.770   2.071
 4592TIP3    H113740   4.210   6.714   1.993
 4592TIP3    H213741   4.259   6.726   2.135
 4593TIP3   OH213742   6.846   6.760   3.385
 4593TIP3    H113743   6.858   6.797   3.472
 4593TIP3    H213744   6.767   6.707   3.392
 4594TIP3   OH213745   6.990   1.821   3.895
 4594TIP3    H113746   7.085   1.822   3.896
 4594TIP3    H213747   6.964   1.912   3.902
 4595TIP3   OH213748   6.055   3.063   0.729
 4595TIP3    H113749   6.106   3.078   0.809
 4595TIP3    H213750   6.116   3.016   0.672
 4596TIP3   OH213751   4.807   2.905   1.991
 4596TIP3    H113752   4.897   2.873   1.980
 4596TIP3    H213753   4.751   2.834   1.961
 4597TIP3   OH213754   3.301   4.615   0.628
 4597TIP3    H113755   3.220   4.566   0.641
 4597TIP3    H213756   3.332   4.586   0.542
 4598TIP3   OH213757   2.684   1.552   0.865
 4598TIP3    H113758   2.675   1.528   0.957
 4598TIP3    H213759   2.700   1.470   0.819
 4599TIP3   OH213760   4.143   6.016   1.268
 4599TIP3    H113761   4.064   5.973   1.300
 4599TIP3    H213762   4.138   6.105   1.303
 4600TIP3   OH213763   6.244   0.136   4.826
 4600TIP3    H113764   6.245   0.134   4.730
 4600TIP3    H213765   6.323   0.089   4.852
 4601TIP3   OH213766   4.655   4.031   1.482
 4601TIP3    H113767   4.646   3.939   1.459
 4601TIP3    H213768   4.732   4.034   1.539
 4602TIP3   OH213769   3.223   4.881   1.996
 4602TIP3    H113770   3.282   4.859   2.068
 4602TIP3    H213771   3.277   4.870   1.917
 4603TIP3   OH213772   0.516   3.377   3.618
 4603TIP3    H113773   0.589   3.403   3.675
 4603TIP3    H213774   0.505   3.284   3.635
 4604TIP3   OH213775   0.494   2.805   3.811
 4604TIP3    H113776   0.508   2.872   3.878
 4604TIP3    H213777   0.416   2.758   3.841
 4605TIP3   OH213778   5.242   3.707   5.774
 4605TIP3    H113779   5.214   3.615   5.770
 4605TIP3    H213780   5.308   3.709   5.844
 4606TIP3   OH213781   0.649   3.528   3.926
 4606TIP3    H113782   0.714   3.521   3.856
 4606TIP3    H213783   0.609   3.441   3.931
 4607TIP3   OH213784   4.848   5.588   1.844
 4607TIP3    H113785   4.758   5.604   1.873
 4607TIP3    H213786   4.848   5.496   1.816
 4608TIP3   OH213787   3.151   2.169   3.371
 4608TIP3    H113788   3.055   2.169   3.382
 4608TIP3    H213789   3.185   2.173   3.461
 4609TIP3   OH213790   2.675   5.166   4.274
 4609TIP3    H113791   2.677   5.237   4.338
 4609TIP3    H213792   2.667   5.210   4.189
 4610TIP3   OH213793   5.147   4.888   5.453
 4610TIP3    H113794   5.212   4.856   5.515
 4610TIP3    H213795   5.116   4.810   5.407
 4611TIP3   OH213796   4.385   1.353   0.181
 4611TIP3    H113797   4.373   1.380   0.090
 4611TIP3    H213798   4.296   1.337   0.213
 4612TIP3   OH213799   6.294   3.819   5.146
 4612TIP3    H113800   6.214   3.837   5.196
 4612TIP3    H213801   6.293   3.884   5.076
 4613TIP3   OH213802   1.432   3.149   2.783
 4613TIP3    H113803   1.462   3.105   2.704
 4613TIP3    H213804   1.507   3.202   2.811
 4614TIP3   OH213805   3.816   4.349   2.186
 4614TIP3    H113806   3.729   4.383   2.166
 4614TIP3    H213807   3.803   4.256   2.201
 4615TIP3   OH213808   1.523   3.505   5.210
 4615TIP3    H113809   1.434   3.472   5.223
 4615TIP3    H213810   1.552   3.530   5.298
 4616TIP3   OH213811   5.311   3.426   4.021
 4616TIP3    H113812   5.255   3.492   3.981
 4616TIP3    H213813   5.346   3.468   4.100
 4617TIP3   OH213814   6.633   4.634   4.296
 4617TIP3    H113815   6.589   4.595   4.372
 4617TIP3    H213816   6.663   4.720   4.327
 4618TIP3   OH213817   0.828   4.583   1.362
 4618TIP3    H113818   0.822   4.526   1.439
 4618TIP3    H213819   0.815   4.671   1.396
 4619TIP3   OH213820   6.898   1.075   1.241
 4619TIP3    H113821   6.880   1.034   1.157
 4619TIP3    H213822   6.814   1.075   1.287
 4620TIP3   OH213823   6.175   2.548   0.564
 4620TIP3    H113824   6.212   2.605   0.631
 4620TIP3    H213825   6.210   2.582   0.481
 4621TIP3   OH213826   2.154   2.178   3.710
 4621TIP3    H113827   2.209   2.239   3.661
 4621TIP3    H213828   2.122   2.117   3.644
 4622TIP3   OH213829   6.564   0.045   2.753
 4622TIP3    H113830   6.659   0.041   2.766
 4622TIP3    H213831   6.528   0.003   2.831
 4623TIP3   OH213832   1.153   4.517   4.015
 4623TIP3    H113833   1.092   4.444   4.014
 4623TIP3    H213834   1.211   4.501   3.941
 4624TIP3   OH213835   5.925   3.701   2.472
 4624TIP3    H113836   5.851   3.677   2.527
 4624TIP3    H213837   5.944   3.622   2.422
 4625TIP3   OH213838   5.493   0.126   4.812
 4625TIP3    H113839   5.493   0.137   4.907
 4625TIP3    H213840   5.438   0.049   4.798
 4626TIP3   OH213841   1.366   4.246   4.247
 4626TIP3    H113842   1.284   4.223   4.292
 4626TIP3    H213843   1.342   4.320   4.190
 4627TIP3   OH213844   0.237   6.716   3.292
 4627TIP3    H113845   0.212   6.686   3.204
 4627TIP3    H213846   0.327   6.685   3.303
 4628TIP3   OH213847   5.157   1.986   4.613
 4628TIP3    H113848   5.225   2.052   4.606
 4628TIP3    H213849   5.160   1.939   4.529
 4629TIP3   OH213850   5.123   3.754   1.869
 4629TIP3    H113851   5.068   3.713   1.802
 4629TIP3    H213852   5.090   3.720   1.952
 4630TIP3   OH213853   0.124   6.172   5.782
 4630TIP3    H113854   0.040   6.128   5.794
 4630TIP3    H213855   0.109   6.233   5.710
 4631TIP3   OH213856   0.156   2.758   0.257
 4631TIP3    H113857   0.074   2.710   0.262
 4631TIP3    H213858   0.194   2.730   0.173
 4632TIP3   OH213859   2.938   0.235   2.710
 4632TIP3    H113860   2.861   0.262   2.659
 4632TIP3    H213861   2.903   0.173   2.774
 4633TIP3   OH213862   6.111   0.794   0.385
 4633TIP3    H113863   6.153   0.879   0.385
 4633TIP3    H213864   6.170   0.737   0.435
 4634TIP3   OH213865   4.074   3.972   0.318
 4634TIP3    H113866   4.072   4.003   0.409
 4634TIP3    H213867   4.136   4.030   0.274
 4635TIP3   OH213868   5.483   0.936   3.343
 4635TIP3    H113869   5.525   0.866   3.393
 4635TIP3    H213870   5.479   0.903   3.253
 4636TIP3   OH213871   3.041   4.044   2.235
 4636TIP3    H113872   2.994   3.976   2.187
 4636TIP3    H213873   2.973   4.104   2.264
 4637TIP3   OH213874   4.524   6.302   5.839
 4637TIP3    H113875   4.523   6.227   5.780
 4637TIP3    H213876   4.458   6.280   5.906
 4638TIP3   OH213877   5.934   5.996   1.831
 4638TIP3    H113878   5.887   5.997   1.747
 4638TIP3    H213879   5.865   6.007   1.896
 4639TIP3   OH213880   3.595   0.344   0.148
 4639TIP3    H113881   3.603   0.360   0.243
 4639TIP3    H213882   3.647   0.413   0.108
 4640TIP3   OH213883   5.424   6.601   4.499
 4640TIP3    H113884   5.518   6.585   4.514
 4640TIP3    H213885   5.396   6.527   4.444
 4641TIP3   OH213886   1.982   3.839   4.422
 4641TIP3    H113887   2.011   3.839   4.513
 4641TIP3    H213888   2.046   3.895   4.377
 4642TIP3   OH213889   3.680   6.754   1.887
 4642TIP3    H113890   3.613   6.794   1.942
 4642TIP3    H213891   3.632   6.723   1.810
 4643TIP3   OH213892   7.181   0.112   2.220
 4643TIP3    H113893   7.114   0.108   2.152
 4643TIP3    H213894   7.240   0.181   2.191
 4644TIP3   OH213895   3.593   1.342   1.993
 4644TIP3    H113896   3.655   1.270   1.984
 4644TIP3    H213897   3.645   1.421   1.979
 4645TIP3   OH213898   7.175   5.031   1.224
 4645TIP3    H113899   7.142   5.117   1.199
 4645TIP3    H213900   7.229   5.046   1.301
 4646TIP3   OH213901   6.039   2.264   4.192
 4646TIP3    H113902   5.948   2.236   4.198
 4646TIP3    H213903   6.090   2.186   4.213
 4647TIP3   OH213904   1.291   1.812   3.627
 4647TIP3    H113905   1.213   1.787   3.678
 4647TIP3    H213906   1.359   1.752   3.657
 4648TIP3   OH213907   6.811   2.245   4.169
 4648TIP3    H113908   6.756   2.245   4.091
 4648TIP3    H213909   6.806   2.155   4.202
 4649TIP3   OH213910   2.560   0.663   0.847
 4649TIP3    H113911   2.573   0.569   0.838
 4649TIP3    H213912   2.507   0.673   0.926
 4650TIP3   OH213913   2.286   3.565   3.076
 4650TIP3    H113914   2.341   3.542   3.152
 4650TIP3    H213915   2.282   3.486   3.024
 4651TIP3   OH213916   5.711   6.290   3.445
 4651TIP3    H113917   5.768   6.251   3.378
 4651TIP3    H213918   5.644   6.223   3.460
 4652TIP3   OH213919   3.539   1.197   3.899
 4652TIP3    H113920   3.457   1.188   3.852
 4652TIP3    H213921   3.553   1.111   3.939
 4653TIP3   OH213922   5.682   4.432   5.512
 4653TIP3    H113923   5.593   4.464   5.496
 4653TIP3    H213924   5.716   4.490   5.580
 4654TIP3   OH213925   1.383   2.590   4.598
 4654TIP3    H113926   1.443   2.657   4.631
 4654TIP3    H213927   1.370   2.531   4.672
 4655TIP3   OH213928   6.642   3.150   3.852
 4655TIP3    H113929   6.599   3.064   3.846
 4655TIP3    H213930   6.599   3.193   3.927
 4656TIP3   OH213931   3.439   5.946   5.625
 4656TIP3    H113932   3.519   5.899   5.600
 4656TIP3    H213933   3.393   5.960   5.542
 4657TIP3   OH213934   4.042   2.292   5.588
 4657TIP3    H113935   3.986   2.338   5.650
 4657TIP3    H213936   4.123   2.276   5.637
 4658TIP3   OH213937   3.200   4.420   1.218
 4658TIP3    H113938   3.209   4.332   1.254
 4658TIP3    H213939   3.159   4.407   1.133
 4659TIP3   OH213940   1.458   4.019   3.059
 4659TIP3    H113941   1.432   4.045   2.971
 4659TIP3    H213942   1.543   4.060   3.073
 4660TIP3   OH213943   6.255   4.529   1.418
 4660TIP3    H113944   6.161   4.546   1.409
 4660TIP3    H213945   6.296   4.614   1.405
 4661TIP3   OH213946   7.089   0.359   3.286
 4661TIP3    H113947   7.130   0.290   3.233
 4661TIP3    H213948   7.136   0.438   3.261
 4662TIP3   OH213949   4.586   4.302   3.959
 4662TIP3    H113950   4.652   4.310   3.890
 4662TIP3    H213951   4.504   4.287   3.913
 4663TIP3   OH213952   1.290   0.463   2.039
 4663TIP3    H113953   1.332   0.504   1.964
 4663TIP3    H213954   1.198   0.490   2.032
 4664TIP3   OH213955   4.390   5.676   2.803
 4664TIP3    H113956   4.388   5.581   2.793
 4664TIP3    H213957   4.382   5.690   2.897
 4665TIP3   OH213958   1.577   0.670   4.873
 4665TIP3    H113959   1.525   0.686   4.794
 4665TIP3    H213960   1.666   0.655   4.840
 4666TIP3   OH213961   6.729   0.290   3.051
 4666TIP3    H113962   6.754   0.301   3.143
 4666TIP3    H213963   6.732   0.379   3.016
 4667TIP3   OH213964   4.044   5.787   5.586
 4667TIP3    H113965   4.051   5.850   5.514
 4667TIP3    H213966   4.046   5.702   5.543
 4668TIP3   OH213967   1.305   4.482   1.573
 4668TIP3    H113968   1.297   4.531   1.491
 4668TIP3    H213969   1.296   4.391   1.547
 4669TIP3   OH213970   2.062   2.779   5.551
 4669TIP3    H113971   1.993   2.818   5.605
 4669TIP3    H213972   2.016   2.730   5.484
 4670TIP3   OH213973   2.917   6.210   1.319
 4670TIP3    H113974   2.848   6.144   1.323
 4670TIP3    H213975   2.963   6.193   1.237
 4671TIP3   OH213976   3.821   2.517   4.913
 4671TIP3    H113977   3.791   2.430   4.889
 4671TIP3    H213978   3.746   2.556   4.959
 4672TIP3   OH213979   5.631   6.454   2.650
 4672TIP3    H113980   5.582   6.419   2.575
 4672TIP3    H213981   5.605   6.399   2.723
 4673TIP3   OH213982   6.591   6.745   0.718
 4673TIP3    H113983   6.686   6.741   0.725
 4673TIP3    H213984   6.560   6.664   0.757
 4674TIP3   OH213985   6.332   6.594   0.624
 4674TIP3    H113986   6.335   6.667   0.562
 4674TIP3    H213987   6.291   6.631   0.702
 4675TIP3   OH213988   2.990   3.674   2.569
 4675TIP3    H113989   3.033   3.714   2.644
 4675TIP3    H213990   2.948   3.747   2.523
 4676TIP3   OH213991   2.040   5.759   1.391
 4676TIP3    H113992   1.968   5.809   1.430
 4676TIP3    H213993   2.113   5.820   1.388
 4677TIP3   OH213994   4.933   1.358   3.812
 4677TIP3    H113995   4.908   1.285   3.755
 4677TIP3    H213996   5.000   1.406   3.763
 4678TIP3   OH213997   1.359   0.357   3.820
 4678TIP3    H113998   1.263   0.365   3.814
 4678TIP3    H213999   1.383   0.301   3.746
 4679TIP3   OH214000   2.946   4.454   4.115
 4679TIP3    H114001   2.989   4.375   4.146
 4679TIP3    H214002   2.852   4.434   4.120
 4680TIP3   OH214003   2.636   6.610   4.559
 4680TIP3    H114004   2.543   6.617   4.536
 4680TIP3    H214005   2.675   6.691   4.527
 4681TIP3   OH214006   4.604   0.624   2.281
 4681TIP3    H114007   4.622   0.559   2.213
 4681TIP3    H214008   4.509   0.628   2.287
 4682TIP3   OH214009   5.352   2.845   2.691
 4682TIP3    H114010   5.445   2.868   2.695
 4682TIP3    H214011   5.351   2.757   2.653
 4683TIP3   OH214012   5.050   1.086   2.529
 4683TIP3    H114013   5.075   1.171   2.493
 4683TIP3    H214014   4.956   1.093   2.544
 4684TIP3   OH214015   4.555   2.346  -0.002
 4684TIP3    H114016   4.623   2.366   0.062
 4684TIP3    H214017   4.497   2.422  -0.001
 4685TIP3   OH214018   5.696   6.175   5.008
 4685TIP3    H114019   5.741   6.166   4.925
 4685TIP3    H214020   5.625   6.237   4.991
 4686TIP3   OH214021   2.649   6.670   4.829
 4686TIP3    H114022   2.634   6.601   4.764
 4686TIP3    H214023   2.561   6.703   4.849
 4687TIP3   OH214024   2.982   1.056   1.936
 4687TIP3    H114025   2.901   1.046   1.985
 4687TIP3    H214026   3.051   1.041   2.000
 4688TIP3   OH214027   0.278   6.696   0.453
 4688TIP3    H114028   0.236   6.777   0.423
 4688TIP3    H214029   0.210   6.629   0.443
 4689TIP3   OH214030   6.999   2.328   4.848
 4689TIP3    H114031   6.988   2.337   4.753
 4689TIP3    H214032   6.978   2.414   4.883
 4690TIP3   OH214033   5.681   2.378   0.942
 4690TIP3    H114034   5.632   2.425   1.010
 4690TIP3    H214035   5.720   2.447   0.888
 4691TIP3   OH214036   0.909   2.980   2.271
 4691TIP3    H114037   0.977   2.925   2.234
 4691TIP3    H214038   0.909   3.059   2.218
 4692TIP3   OH214039   2.690   2.735   5.832
 4692TIP3    H114040   2.626   2.807   5.837
 4692TIP3    H214041   2.749   2.752   5.905
 4693TIP3   OH214042   2.853   1.266   0.095
 4693TIP3    H114043   2.765   1.303   0.093
 4693TIP3    H214044   2.889   1.297   0.179
 4694TIP3   OH214045   3.467   5.485   0.228
 4694TIP3    H114046   3.483   5.564   0.175
 4694TIP3    H214047   3.404   5.435   0.178
 4695TIP3   OH214048   3.961   5.975   4.502
 4695TIP3    H114049   3.986   5.961   4.593
 4695TIP3    H214050   3.877   6.021   4.507
 4696TIP3   OH214051   2.884   6.386   3.327
 4696TIP3    H114052   2.905   6.445   3.400
 4696TIP3    H214053   2.958   6.397   3.267
 4697TIP3   OH214054   1.938   4.867   0.583
 4697TIP3    H114055   1.929   4.772   0.596
 4697TIP3    H214056   2.009   4.892   0.643
 4698TIP3   OH214057   0.915   2.687   2.618
 4698TIP3    H114058   0.871   2.672   2.535
 4698TIP3    H214059   0.976   2.759   2.601
 4699TIP3   OH214060   6.846   5.607   1.615
 4699TIP3    H114061   6.791   5.568   1.683
 4699TIP3    H214062   6.793   5.679   1.581
 4700TIP3   OH214063   5.479   2.236   0.763
 4700TIP3    H114064   5.494   2.310   0.821
 4700TIP3    H214065   5.459   2.276   0.678
 4701TIP3   OH214066   3.339   5.818   2.038
 4701TIP3    H114067   3.349   5.723   2.041
 4701TIP3    H214068   3.367   5.849   2.124
 4702TIP3   OH214069   2.761   6.724   1.195
 4702TIP3    H114070   2.776   6.635   1.162
 4702TIP3    H214071   2.834   6.739   1.255
 4703TIP3   OH214072   6.558   0.816   3.199
 4703TIP3    H114073   6.652   0.802   3.213
 4703TIP3    H214074   6.543   0.906   3.227
 4704TIP3   OH214075   0.176   3.043   2.312
 4704TIP3    H114076   0.134   3.091   2.241
 4704TIP3    H214077   0.184   3.107   2.383
 4705TIP3   OH214078   6.475   0.253   0.837
 4705TIP3    H114079   6.423   0.227   0.913
 4705TIP3    H214080   6.562   0.217   0.854
 4706TIP3   OH214081   1.106   0.390   0.506
 4706TIP3    H114082   1.040   0.451   0.474
 4706TIP3    H214083   1.176   0.393   0.440
 4707TIP3   OH214084   3.382   1.168   2.476
 4707TIP3    H114085   3.294   1.154   2.511
 4707TIP3    H214086   3.438   1.167   2.554
 4708TIP3   OH214087   5.737   4.864   5.525
 4708TIP3    H114088   5.813   4.922   5.521
 4708TIP3    H214089   5.731   4.826   5.438
 4709TIP3   OH214090   5.296   6.161   3.689
 4709TIP3    H114091   5.226   6.183   3.751
 4709TIP3    H214092   5.376   6.182   3.736
 4710TIP3   OH214093   6.809   2.691   1.415
 4710TIP3    H114094   6.835   2.738   1.494
 4710TIP3    H214095   6.781   2.760   1.354
 4711TIP3   OH214096   5.553   1.502   2.395
 4711TIP3    H114097   5.464   1.531   2.416
 4711TIP3    H214098   5.541   1.437   2.326
 4712TIP3   OH214099   6.677   1.749   4.012
 4712TIP3    H114100   6.621   1.675   3.990
 4712TIP3    H214101   6.762   1.710   4.031
 4713TIP3   OH214102   4.617   1.082   4.299
 4713TIP3    H114103   4.557   1.094   4.226
 4713TIP3    H214104   4.590   0.999   4.339
 4714TIP3   OH214105   1.566   6.497   5.437
 4714TIP3    H114106   1.493   6.436   5.430
 4714TIP3    H214107   1.618   6.463   5.510
 4715TIP3   OH214108   4.568   2.469   5.580
 4715TIP3    H114109   4.603   2.388   5.543
 4715TIP3    H214110   4.477   2.471   5.550
 4716TIP3   OH214111   6.532   2.111   3.255
 4716TIP3    H114112   6.544   2.162   3.175
 4716TIP3    H214113   6.457   2.152   3.299
 4717TIP3   OH214114   4.802   5.559   2.254
 4717TIP3    H114115   4.740   5.498   2.215
 4717TIP3    H214116   4.888   5.523   2.232
 4718TIP3   OH214117   1.022   5.232   5.501
 4718TIP3    H114118   1.001   5.269   5.415
 4718TIP3    H214119   0.939   5.198   5.534
 4719TIP3   OH214120   2.252   6.460   0.472
 4719TIP3    H114121   2.250   6.443   0.566
 4719TIP3    H214122   2.325   6.407   0.440
 4720TIP3   OH214123   4.346   2.815   5.695
 4720TIP3    H114124   4.411   2.832   5.627
 4720TIP3    H214125   4.395   2.814   5.777
 4721TIP3   OH214126   1.607   3.091   5.779
 4721TIP3    H114127   1.519   3.109   5.811
 4721TIP3    H214128   1.598   3.011   5.726
 4722TIP3   OH214129   3.593   3.538   3.690
 4722TIP3    H114130   3.662   3.504   3.634
 4722TIP3    H214131   3.613   3.631   3.699
 4723TIP3   OH214132   4.920   0.387   1.298
 4723TIP3    H114133   4.939   0.478   1.322
 4723TIP3    H214134   4.891   0.392   1.207
 4724TIP3   OH214135   0.769   4.767   4.025
 4724TIP3    H114136   0.749   4.773   3.932
 4724TIP3    H214137   0.864   4.751   4.028
 4725TIP3   OH214138   0.629   3.948   4.420
 4725TIP3    H114139   0.640   3.934   4.514
 4725TIP3    H214140   0.707   3.910   4.380
 4726TIP3   OH214141   4.194   6.640   1.254
 4726TIP3    H114142   4.215   6.733   1.249
 4726TIP3    H214143   4.279   6.596   1.260
 4727TIP3   OH214144   1.323   2.647   0.557
 4727TIP3    H114145   1.265   2.615   0.489
 4727TIP3    H214146   1.409   2.610   0.535
 4728TIP3   OH214147   3.365   4.504   4.052
 4728TIP3    H114148   3.414   4.563   4.109
 4728TIP3    H214149   3.428   4.438   4.025
 4729TIP3   OH214150   2.608   0.648   2.463
 4729TIP3    H114151   2.524   0.693   2.466
 4729TIP3    H214152   2.663   0.703   2.407
 4730TIP3   OH214153   5.904   1.458   5.012
 4730TIP3    H114154   5.902   1.402   5.089
 4730TIP3    H214155   5.950   1.537   5.041
 4731TIP3   OH214156   2.315   4.067   0.068
 4731TIP3    H114157   2.240   4.030   0.022
 4731TIP3    H214158   2.300   4.046   0.160
 4732TIP3   OH214159   4.967   6.606   4.571
 4732TIP3    H114160   4.969   6.663   4.648
 4732TIP3    H214161   4.927   6.525   4.603
 4733TIP3   OH214162   2.839   1.461   2.617
 4733TIP3    H114163   2.831   1.555   2.633
 4733TIP3    H214164   2.791   1.446   2.536
 4734TIP3   OH214165   1.479   2.887   5.629
 4734TIP3    H114166   1.413   2.819   5.617
 4734TIP3    H214167   1.544   2.869   5.561
 4735TIP3   OH214168   4.347   1.041   0.151
 4735TIP3    H114169   4.397   0.961   0.137
 4735TIP3    H214170   4.408   1.098   0.199
 4736TIP3   OH214171   1.941   5.073   0.378
 4736TIP3    H114172   1.884   5.145   0.406
 4736TIP3    H214173   1.934   5.008   0.448
 4737TIP3   OH214174   3.494   5.422   5.496
 4737TIP3    H114175   3.495   5.326   5.500
 4737TIP3    H214176   3.447   5.442   5.416
 4738TIP3   OH214177   5.532   4.552   2.947
 4738TIP3    H114178   5.552   4.479   2.889
 4738TIP3    H214179   5.450   4.588   2.913
 4739TIP3   OH214180   4.380   3.051   5.332
 4739TIP3    H114181   4.395   3.084   5.421
 4739TIP3    H214182   4.316   2.981   5.344
 4740TIP3   OH214183   1.912   1.814   2.474
 4740TIP3    H114184   1.829   1.776   2.504
 4740TIP3    H214185   1.950   1.853   2.552
 4741TIP3   OH214186   6.449   1.262   4.060
 4741TIP3    H114187   6.433   1.255   4.154
 4741TIP3    H214188   6.525   1.206   4.045
 4742TIP3   OH214189   1.356   1.075   4.148
 4742TIP3    H114190   1.374   1.061   4.241
 4742TIP3    H214191   1.262   1.060   4.138
 4743TIP3   OH214192   5.349   2.588   3.630
 4743TIP3    H114193   5.404   2.521   3.590
 4743TIP3    H214194   5.390   2.606   3.715
 4744TIP3   OH214195   6.329   1.007   3.446
 4744TIP3    H114196   6.257   1.010   3.508
 4744TIP3    H214197   6.290   0.977   3.364
 4745TIP3   OH214198   0.217   3.798   1.490
 4745TIP3    H114199   0.207   3.881   1.444
 4745TIP3    H214200   0.226   3.823   1.582
 4746TIP3   OH214201   1.879   5.832   5.161
 4746TIP3    H114202   1.828   5.886   5.100
 4746TIP3    H214203   1.928   5.772   5.105
 4747TIP3   OH214204   1.653   2.300   4.717
 4747TIP3    H114205   1.575   2.289   4.664
 4747TIP3    H214206   1.626   2.272   4.805
 4748TIP3   OH214207   3.770   5.194   5.234
 4748TIP3    H114208   3.824   5.116   5.225
 4748TIP3    H214209   3.713   5.192   5.156
 4749TIP3   OH214210   2.967   4.497   3.382
 4749TIP3    H114211   3.009   4.583   3.383
 4749TIP3    H214212   2.876   4.514   3.406
 4750TIP3   OH214213   5.525   6.699   3.767
 4750TIP3    H114214   5.484   6.669   3.848
 4750TIP3    H214215   5.586   6.629   3.743
 4751TIP3   OH214216   7.108   3.246   3.843
 4751TIP3    H114217   7.040   3.300   3.803
 4751TIP3    H214218   7.061   3.169   3.876
 4752TIP3   OH214219   1.336   2.768   1.247
 4752TIP3    H114220   1.308   2.853   1.212
 4752TIP3    H214221   1.417   2.748   1.199
 4753TIP3   OH214222   6.296   4.616   4.532
 4753TIP3    H114223   6.242   4.651   4.461
 4753TIP3    H214224   6.261   4.658   4.611
 4754TIP3   OH214225   2.991   5.503   5.202
 4754TIP3    H114226   2.988   5.463   5.115
 4754TIP3    H214227   2.923   5.571   5.199
 4755TIP3   OH214228   7.016   3.479   4.970
 4755TIP3    H114229   6.923   3.466   4.952
 4755TIP3    H214230   7.060   3.446   4.891
 4756TIP3   OH214231   1.426   5.063   1.131
 4756TIP3    H114232   1.475   5.141   1.153
 4756TIP3    H214233   1.493   4.997   1.111
 4757TIP3   OH214234   6.959   1.466   3.193
 4757TIP3    H114235   6.940   1.558   3.209
 4757TIP3    H214236   6.973   1.429   3.280
 4758TIP3   OH214237   7.094   3.425   5.299
 4758TIP3    H114238   7.063   3.341   5.265
 4758TIP3    H214239   7.016   3.469   5.331
 4759TIP3   OH214240   5.856   3.814   5.446
 4759TIP3    H114241   5.944   3.779   5.435
 4759TIP3    H214242   5.829   3.838   5.358
 4760TIP3   OH214243   5.926   4.600   2.830
 4760TIP3    H114244   5.973   4.518   2.816
 4760TIP3    H214245   5.846   4.591   2.778
 4761TIP3   OH214246   2.845   4.353   0.737
 4761TIP3    H114247   2.883   4.265   0.739
 4761TIP3    H214248   2.750   4.338   0.743
 4762TIP3   OH214249   1.570   5.036   0.397
 4762TIP3    H114250   1.562   5.105   0.331
 4762TIP3    H214251   1.608   5.080   0.473
 4763TIP3   OH214252   2.659   4.304   1.650
 4763TIP3    H114253   2.641   4.367   1.720
 4763TIP3    H214254   2.720   4.241   1.689
 4764TIP3   OH214255   5.196   4.803   1.870
 4764TIP3    H114256   5.183   4.753   1.950
 4764TIP3    H214257   5.171   4.744   1.800
 4765TIP3   OH214258   6.817   4.938   1.360
 4765TIP3    H114259   6.772   5.006   1.410
 4765TIP3    H214260   6.825   4.865   1.420
 4766TIP3   OH214261   3.973   4.067   1.445
 4766TIP3    H114262   4.056   4.056   1.399
 4766TIP3    H214263   3.916   4.111   1.382
 4767TIP3   OH214264   7.104   2.499   1.773
 4767TIP3    H114265   7.187   2.547   1.774
 4767TIP3    H214266   7.037   2.567   1.784
 4768TIP3   OH214267   3.425   3.157   4.012
 4768TIP3    H114268   3.382   3.078   3.980
 4768TIP3    H214269   3.384   3.228   3.962
 4769TIP3   OH214270   5.868   0.721   1.727
 4769TIP3    H114271   5.920   0.767   1.661
 4769TIP3    H214272   5.786   0.770   1.732
 4770TIP3   OH214273   3.701   3.489   4.463
 4770TIP3    H114274   3.790   3.522   4.463
 4770TIP3    H214275   3.681   3.474   4.371
 4771TIP3   OH214276   2.845   1.546   4.065
 4771TIP3    H114277   2.788   1.473   4.087
 4771TIP3    H214278   2.819   1.616   4.125
 4772TIP3   OH214279   0.024   1.890   1.351
 4772TIP3    H114280   0.088   1.846   1.407
 4772TIP3    H214281   0.076   1.956   1.304
 4773TIP3   OH214282   0.934   2.246   0.050
 4773TIP3    H114283   0.915   2.297   0.129
 4773TIP3    H214284   0.979   2.168   0.082
 4774TIP3   OH214285   0.593   2.834   5.833
 4774TIP3    H114286   0.519   2.787   5.797
 4774TIP3    H214287   0.590   2.817   5.927
 4775TIP3   OH214288   6.907   4.456   3.398
 4775TIP3    H114289   6.914   4.540   3.443
 4775TIP3    H214290   6.834   4.468   3.336
 4776TIP3   OH214291   2.152   6.411   4.673
 4776TIP3    H114292   2.078   6.357   4.700
 4776TIP3    H214293   2.144   6.417   4.578
 4777TIP3   OH214294   3.127   3.165   1.329
 4777TIP3    H114295   3.128   3.070   1.319
 4777TIP3    H214296   3.081   3.180   1.411
 4778TIP3   OH214297   3.481   3.848   2.546
 4778TIP3    H114298   3.544   3.780   2.568
 4778TIP3    H214299   3.523   3.899   2.476
 4779TIP3   OH214300   4.034   5.053   2.367
 4779TIP3    H114301   4.067   5.136   2.400
 4779TIP3    H214302   4.112   5.006   2.336
 4780TIP3   OH214303   6.568   4.650   1.091
 4780TIP3    H114304   6.582   4.713   1.020
 4780TIP3    H214305   6.638   4.670   1.154
 4781TIP3   OH214306   0.592   3.813   5.512
 4781TIP3    H114307   0.600   3.908   5.511
 4781TIP3    H214308   0.677   3.782   5.544
 4782TIP3   OH214309  -0.011   0.490   4.093
 4782TIP3    H114310   0.070   0.541   4.097
 4782TIP3    H214311  -0.006   0.431   4.168
 4783TIP3   OH214312   0.423   6.508   4.535
 4783TIP3    H114313   0.410   6.598   4.505
 4783TIP3    H214314   0.432   6.456   4.455
 4784TIP3   OH214315   6.887   1.700   2.766
 4784TIP3    H114316   6.970   1.695   2.813
 4784TIP3    H214317   6.863   1.609   2.750
 4785TIP3   OH214318   6.130   0.233   4.573
 4785TIP3    H114319   6.149   0.292   4.647
 4785TIP3    H214320   6.182   0.269   4.501
 4786TIP3   OH214321   0.273   3.691   2.878
 4786TIP3    H114322   0.287   3.677   2.784
 4786TIP3    H214323   0.199   3.752   2.882
 4787TIP3   OH214324   5.350   3.837   2.231
 4787TIP3    H114325   5.266   3.874   2.259
 4787TIP3    H214326   5.385   3.901   2.170
 4788TIP3   OH214327   5.389   0.883   0.387
 4788TIP3    H114328   5.307   0.931   0.400
 4788TIP3    H214329   5.423   0.870   0.476
 4789TIP3   OH214330   2.159   4.028   3.895
 4789TIP3    H114331   2.115   3.968   3.956
 4789TIP3    H214332   2.142   3.992   3.809
 4790TIP3   OH214333   3.521   2.700   3.460
 4790TIP3    H114334   3.493   2.773   3.405
 4790TIP3    H214335   3.459   2.630   3.440
 4791TIP3   OH214336   2.182   2.427   5.492
 4791TIP3    H114337   2.168   2.405   5.400
 4791TIP3    H214338   2.268   2.469   5.494
 4792TIP3   OH214339   0.997   1.429   4.180
 4792TIP3    H114340   1.022   1.399   4.092
 4792TIP3    H214341   1.030   1.362   4.239
 4793TIP3   OH214342   5.168   5.834   5.369
 4793TIP3    H114343   5.177   5.818   5.275
 4793TIP3    H214344   5.223   5.767   5.409
 4794TIP3   OH214345   4.092   1.962   2.608
 4794TIP3    H114346   4.041   2.010   2.673
 4794TIP3    H214347   4.045   1.879   2.597
 4795TIP3   OH214348   0.450   6.308   4.326
 4795TIP3    H114349   0.545   6.303   4.312
 4795TIP3    H214350   0.426   6.219   4.352
 4796TIP3   OH214351   4.331   4.416   0.307
 4796TIP3    H114352   4.346   4.508   0.326
 4796TIP3    H214353   4.394   4.395   0.238
 4797TIP3   OH214354   6.382   5.864   1.281
 4797TIP3    H114355   6.323   5.836   1.212
 4797TIP3    H214356   6.335   5.846   1.362
 4798TIP3   OH214357   1.164   4.210   0.452
 4798TIP3    H114358   1.256   4.192   0.433
 4798TIP3    H214359   1.134   4.133   0.499
 4799TIP3   OH214360   0.951   4.266   2.217
 4799TIP3    H114361   0.978   4.346   2.262
 4799TIP3    H214362   0.931   4.204   2.287
 4800TIP3   OH214363   3.715   6.568   1.178
 4800TIP3    H114364   3.804   6.534   1.163
 4800TIP3    H214365   3.658   6.497   1.150
 4801TIP3   OH214366   5.594   2.143   1.384
 4801TIP3    H114367   5.637   2.102   1.309
 4801TIP3    H214368   5.663   2.152   1.450
 4802TIP3   OH214369   5.659   0.511   3.213
 4802TIP3    H114370   5.703   0.589   3.178
 4802TIP3    H214371   5.712   0.485   3.289
 4803TIP3   OH214372   3.279   4.181   1.351
 4803TIP3    H114373   3.214   4.134   1.404
 4803TIP3    H214374   3.304   4.119   1.282
 4804TIP3   OH214375   3.086   2.826   4.627
 4804TIP3    H114376   3.072   2.869   4.543
 4804TIP3    H214377   3.091   2.898   4.690
 4805TIP3   OH214378   2.896   2.118   3.406
 4805TIP3    H114379   2.811   2.161   3.394
 4805TIP3    H214380   2.891   2.040   3.351
 4806TIP3   OH214381   2.765   0.573   0.506
 4806TIP3    H114382   2.670   0.569   0.506
 4806TIP3    H214383   2.790   0.560   0.415
 4807TIP3   OH214384   0.732   2.377   3.112
 4807TIP3    H114385   0.675   2.453   3.125
 4807TIP3    H214386   0.679   2.302   3.137
 4808TIP3   OH214387   6.186   0.865   0.784
 4808TIP3    H114388   6.201   0.784   0.833
 4808TIP3    H214389   6.262   0.873   0.726
 4809TIP3   OH214390   1.604   0.532   2.427
 4809TIP3    H114391   1.586   0.479   2.350
 4809TIP3    H214392   1.556   0.489   2.498
 4810TIP3   OH214393   4.323   4.682   0.385
 4810TIP3    H114394   4.319   4.767   0.341
 4810TIP3    H214395   4.362   4.701   0.471
 4811TIP3   OH214396   0.226   1.779   2.208
 4811TIP3    H114397   0.224   1.684   2.196
 4811TIP3    H214398   0.150   1.798   2.263
 4812TIP3   OH214399   2.048   6.473   3.369
 4812TIP3    H114400   2.136   6.473   3.330
 4812TIP3    H214401   2.014   6.386   3.352
 4813TIP3   OH214402   6.360   2.155   4.418
 4813TIP3    H114403   6.321   2.226   4.469
 4813TIP3    H214404   6.447   2.143   4.456
 4814TIP3   OH214405   2.654   5.387   4.437
 4814TIP3    H114406   2.684   5.384   4.528
 4814TIP3    H214407   2.561   5.407   4.443
 4815TIP3   OH214408   5.847   1.086   1.788
 4815TIP3    H114409   5.907   1.155   1.818
 4815TIP3    H214410   5.903   1.028   1.735
 4816TIP3   OH214411   7.100   6.526   0.619
 4816TIP3    H114412   7.166   6.594   0.603
 4816TIP3    H214413   7.059   6.553   0.701
 4817TIP3   OH214414   2.258   1.414   1.276
 4817TIP3    H114415   2.199   1.341   1.253
 4817TIP3    H214416   2.201   1.479   1.316
 4818TIP3   OH214417   3.240   6.718   3.221
 4818TIP3    H114418   3.153   6.751   3.199
 4818TIP3    H214419   3.250   6.737   3.314
 4819TIP3   OH214420   3.717   4.709   1.739
 4819TIP3    H114421   3.632   4.665   1.739
 4819TIP3    H214422   3.735   4.726   1.831
 4820TIP3   OH214423   4.450   0.305   0.550
 4820TIP3    H114424   4.409   0.389   0.573
 4820TIP3    H214425   4.376   0.248   0.529
 4821TIP3   OH214426   3.290   2.522   5.338
 4821TIP3    H114427   3.250   2.447   5.294
 4821TIP3    H214428   3.336   2.569   5.269
 4822TIP3   OH214429   6.069   1.866   1.201
 4822TIP3    H114430   6.078   1.940   1.141
 4822TIP3    H214431   6.157   1.827   1.204
 4823TIP3   OH214432   6.485   3.821   0.624
 4823TIP3    H114433   6.483   3.903   0.673
 4823TIP3    H214434   6.569   3.821   0.579
 4824TIP3   OH214435   2.665   0.059   5.295
 4824TIP3    H114436   2.696   0.146   5.319
 4824TIP3    H214437   2.718  -0.001   5.348
 4825TIP3   OH214438   0.276   1.763   3.576
 4825TIP3    H114439   0.350   1.711   3.607
 4825TIP3    H214440   0.229   1.704   3.517
 4826TIP3   OH214441  -0.015   6.525   4.094
 4826TIP3    H114442   0.070   6.492   4.123
 4826TIP3    H214443   0.004   6.573   4.014
 4827TIP3   OH214444   1.727   3.136   5.050
 4827TIP3    H114445   1.723   3.229   5.029
 4827TIP3    H214446   1.657   3.123   5.114
 4828TIP3   OH214447   1.786   5.466   4.491
 4828TIP3    H114448   1.804   5.491   4.582
 4828TIP3    H214449   1.836   5.528   4.439
 4829TIP3   OH214450   2.893   4.244   5.336
 4829TIP3    H114451   2.963   4.281   5.282
 4829TIP3    H214452   2.910   4.150   5.336
 4830TIP3   OH214453   1.033   2.669   3.312
 4830TIP3    H114454   0.956   2.616   3.330
 4830TIP3    H214455   1.009   2.723   3.236
 4831TIP3   OH214456   2.267   3.435   5.250
 4831TIP3    H114457   2.332   3.504   5.259
 4831TIP3    H214458   2.317   3.357   5.226
 4832TIP3   OH214459   4.967   1.183   1.533
 4832TIP3    H114460   4.874   1.173   1.554
 4832TIP3    H214461   4.968   1.248   1.462
 4833TIP3   OH214462   0.926   5.649   5.498
 4833TIP3    H114463   0.912   5.554   5.494
 4833TIP3    H214464   0.892   5.675   5.584
 4834TIP3   OH214465   3.838   6.543   0.493
 4834TIP3    H114466   3.836   6.522   0.400
 4834TIP3    H214467   3.892   6.475   0.532
 4835TIP3   OH214468   3.854   5.052   0.633
 4835TIP3    H114469   3.886   5.119   0.693
 4835TIP3    H214470   3.924   4.986   0.631
 4836TIP3   OH214471   6.534   2.015   0.194
 4836TIP3    H114472   6.454   2.027   0.246
 4836TIP3    H214473   6.552   1.921   0.200
 4837TIP3   OH214474   1.506   4.043   2.547
 4837TIP3    H114475   1.563   3.975   2.510
 4837TIP3    H214476   1.485   4.100   2.472
 4838TIP3   OH214477   1.715   4.402   2.686
 4838TIP3    H114478   1.733   4.372   2.597
 4838TIP3    H214479   1.796   4.445   2.714
 4839TIP3   OH214480   1.358   1.873   4.514
 4839TIP3    H114481   1.330   1.919   4.593
 4839TIP3    H214482   1.322   1.786   4.522
 4840TIP3   OH214483   2.612   2.831   4.423
 4840TIP3    H114484   2.673   2.762   4.452
 4840TIP3    H214485   2.607   2.891   4.497
 4841TIP3   OH214486   2.618   5.843   1.083
 4841TIP3    H114487   2.568   5.776   1.037
 4841TIP3    H214488   2.663   5.892   1.013
 4842TIP3   OH214489   6.051   5.511   5.680
 4842TIP3    H114490   6.141   5.489   5.657
 4842TIP3    H214491   6.058   5.564   5.759
 4843TIP3   OH214492   2.516   3.393   2.065
 4843TIP3    H114493   2.519   3.486   2.089
 4843TIP3    H214494   2.544   3.347   2.144
 4844TIP3   OH214495   1.945   4.207   0.905
 4844TIP3    H114496   1.949   4.262   0.983
 4844TIP3    H214497   1.895   4.130   0.931
 4845TIP3   OH214498   1.129   5.251   3.857
 4845TIP3    H114499   1.211   5.203   3.846
 4845TIP3    H214500   1.124   5.307   3.779
 4846TIP3   OH214501   2.229   0.203   0.408
 4846TIP3    H114502   2.200   0.271   0.348
 4846TIP3    H214503   2.324   0.213   0.412
 4847TIP3   OH214504   0.896   1.455   5.395
 4847TIP3    H114505   0.920   1.362   5.403
 4847TIP3    H214506   0.802   1.454   5.376
 4848TIP3   OH214507   6.001   1.036   0.232
 4848TIP3    H114508   5.951   1.040   0.150
 4848TIP3    H214509   5.954   0.972   0.285
 4849TIP3   OH214510   6.058   1.235   2.901
 4849TIP3    H114511   6.059   1.327   2.928
 4849TIP3    H214512   6.039   1.237   2.807
 4850TIP3   OH214513   1.203   5.185   1.780
 4850TIP3    H114514   1.208   5.136   1.698
 4850TIP3    H214515   1.286   5.232   1.785
 4851TIP3   OH214516   2.662   4.861   2.090
 4851TIP3    H114517   2.715   4.859   2.170
 4851TIP3    H214518   2.583   4.813   2.113
 4852TIP3   OH214519   0.796   6.706   4.018
 4852TIP3    H114520   0.707   6.739   4.005
 4852TIP3    H214521   0.790   6.647   4.092
 4853TIP3   OH214522   2.941   2.030   0.259
 4853TIP3    H114523   2.911   1.940   0.276
 4853TIP3    H214524   3.034   2.020   0.240
 4854TIP3   OH214525   3.755   6.363   5.229
 4854TIP3    H114526   3.766   6.317   5.146
 4854TIP3    H214527   3.729   6.294   5.291
 4855TIP3   OH214528   7.199   0.745   0.760
 4855TIP3    H114529   7.135   0.780   0.823
 4855TIP3    H214530   7.276   0.801   0.770
 4856TIP3   OH214531   5.715   5.962   4.602
 4856TIP3    H114532   5.647   5.958   4.535
 4856TIP3    H214533   5.671   5.999   4.679
 4857TIP3   OH214534   2.346   3.193   1.358
 4857TIP3    H114535   2.330   3.287   1.346
 4857TIP3    H214536   2.338   3.180   1.453
 4858TIP3   OH214537   1.231   2.159   4.419
 4858TIP3    H114538   1.150   2.108   4.426
 4858TIP3    H214539   1.294   2.100   4.379
 4859TIP3   OH214540   6.546   1.612   2.289
 4859TIP3    H114541   6.511   1.621   2.201
 4859TIP3    H214542   6.473   1.636   2.347
 4860TIP3   OH214543   2.479   5.055   5.419
 4860TIP3    H114544   2.455   4.963   5.416
 4860TIP3    H214545   2.396   5.101   5.430
 4861TIP3   OH214546   2.703   4.373   4.785
 4861TIP3    H114547   2.786   4.336   4.815
 4861TIP3    H214548   2.641   4.352   4.856
 4862TIP3   OH214549   0.372   5.876   2.252
 4862TIP3    H114550   0.299   5.937   2.246
 4862TIP3    H214551   0.445   5.923   2.211
 4863TIP3   OH214552   5.719   1.829   0.939
 4863TIP3    H114553   5.781   1.823   0.867
 4863TIP3    H214554   5.651   1.888   0.907
 4864TIP3   OH214555   0.244   1.835   4.767
 4864TIP3    H114556   0.258   1.839   4.862
 4864TIP3    H214557   0.324   1.871   4.729
 4865TIP3   OH214558   0.306   5.271   2.920
 4865TIP3    H114559   0.385   5.285   2.869
 4865TIP3    H214560   0.234   5.280   2.857
 4866TIP3   OH214561   5.024   2.023   3.931
 4866TIP3    H114562   4.968   2.066   3.866
 4866TIP3    H214563   5.050   2.093   3.991
 4867TIP3   OH214564   2.783   3.200   1.689
 4867TIP3    H114565   2.819   3.165   1.770
 4867TIP3    H214566   2.824   3.286   1.680
 4868TIP3   OH214567   3.193   0.689   0.744
 4868TIP3    H114568   3.246   0.758   0.785
 4868TIP3    H214569   3.246   0.660   0.670
 4869TIP3   OH214570   2.616   4.766   4.560
 4869TIP3    H114571   2.673   4.736   4.489
 4869TIP3    H214572   2.651   4.723   4.638
 4870TIP3   OH214573   2.768   3.094   5.414
 4870TIP3    H114574   2.853   3.052   5.425
 4870TIP3    H214575   2.723   3.081   5.497
 4871TIP3   OH214576   2.117   4.816   2.294
 4871TIP3    H114577   2.103   4.739   2.238
 4871TIP3    H214578   2.032   4.829   2.337
 4872TIP3   OH214579   0.944   6.067   4.800
 4872TIP3    H114580   1.009   6.006   4.766
 4872TIP3    H214581   0.879   6.011   4.842
 4873TIP3   OH214582   0.542   0.159   4.118
 4873TIP3    H114583   0.475   0.201   4.171
 4873TIP3    H214584   0.559   0.221   4.047
 4874TIP3   OH214585   5.337   5.007  -0.029
 4874TIP3    H114586   5.344   4.971   0.059
 4874TIP3    H214587   5.339   5.102  -0.016
 4875TIP3   OH214588   4.549   6.754   3.606
 4875TIP3    H114589   4.578   6.777   3.517
 4875TIP3    H214590   4.491   6.679   3.593
 4876TIP3   OH214591   2.980   3.266   3.541
 4876TIP3    H114592   3.074   3.251   3.545
 4876TIP3    H214593   2.971   3.361   3.533
 4877TIP3   OH214594   2.566   5.593   4.830
 4877TIP3    H114595   2.482   5.591   4.785
 4877TIP3    H214596   2.544   5.577   4.922
 4878TIP3   OH214597   6.967   6.412   2.553
 4878TIP3    H114598   6.926   6.334   2.591
 4878TIP3    H214599   7.045   6.379   2.508
 4879TIP3   OH214600   0.348   5.246   0.876
 4879TIP3    H114601   0.303   5.270   0.795
 4879TIP3    H214602   0.401   5.323   0.897
 4880TIP3   OH214603   0.536   1.416   5.384
 4880TIP3    H114604   0.584   1.446   5.307
 4880TIP3    H214605   0.537   1.491   5.444
 4881TIP3   OH214606   7.155   4.625   4.427
 4881TIP3    H114607   7.064   4.651   4.412
 4881TIP3    H214608   7.160   4.535   4.395
 4882TIP3   OH214609   3.486   1.048   0.560
 4882TIP3    H114610   3.496   1.108   0.634
 4882TIP3    H214611   3.574   1.013   0.546
 4883TIP3   OH214612   4.852   5.942   2.627
 4883TIP3    H114613   4.782   6.006   2.614
 4883TIP3    H214614   4.825   5.866   2.575
 4884TIP3   OH214615   7.228   6.551   3.807
 4884TIP3    H114616   7.166   6.618   3.778
 4884TIP3    H214617   7.314   6.586   3.784
 4885TIP3   OH214618   3.514   5.128   5.448
 4885TIP3    H114619   3.501   5.034   5.460
 4885TIP3    H214620   3.586   5.135   5.385
 4886TIP3   OH214621   6.045   0.838   3.330
 4886TIP3    H114622   5.961   0.849   3.375
 4886TIP3    H214623   6.021   0.811   3.242
 4887TIP3   OH214624   3.473   2.482   0.858
 4887TIP3    H114625   3.435   2.509   0.774
 4887TIP3    H214626   3.410   2.418   0.893
 4888TIP3   OH214627   2.465   2.269   4.605
 4888TIP3    H114628   2.382   2.285   4.561
 4888TIP3    H214629   2.461   2.177   4.632
 4889TIP3   OH214630   6.657   5.780   4.246
 4889TIP3    H114631   6.699   5.851   4.197
 4889TIP3    H214632   6.676   5.701   4.195
 4890TIP3   OH214633   5.766   6.105   1.284
 4890TIP3    H114634   5.781   6.182   1.339
 4890TIP3    H214635   5.852   6.086   1.246
 4891TIP3   OH214636   1.629   1.749   0.196
 4891TIP3    H114637   1.660   1.806   0.126
 4891TIP3    H214638   1.663   1.789   0.276
 4892TIP3   OH214639   4.096   0.695   0.291
 4892TIP3    H114640   4.039   0.722   0.363
 4892TIP3    H214641   4.038   0.651   0.230
 4893TIP3   OH214642   2.724   0.701   3.402
 4893TIP3    H114643   2.681   0.721   3.319
 4893TIP3    H214644   2.811   0.739   3.394
 4894TIP3   OH214645   5.552   4.849   2.745
 4894TIP3    H114646   5.586   4.765   2.712
 4894TIP3    H214647   5.625   4.887   2.794
 4895TIP3   OH214648   2.472   2.958   4.998
 4895TIP3    H114649   2.545   3.014   5.022
 4895TIP3    H214650   2.421   3.010   4.936
 4896TIP3   OH214651   3.353   0.349   2.884
 4896TIP3    H114652   3.443   0.319   2.893
 4896TIP3    H214653   3.300   0.280   2.925
 4897TIP3   OH214654   5.188   5.348   5.859
 4897TIP3    H114655   5.155   5.369   5.947
 4897TIP3    H214656   5.254   5.280   5.874
 4898TIP3   OH214657   0.081   4.449   5.656
 4898TIP3    H114658   0.066   4.454   5.562
 4898TIP3    H214659  -0.003   4.474   5.695
 4899TIP3   OH214660   1.811   5.429   3.923
 4899TIP3    H114661   1.761   5.348   3.919
 4899TIP3    H214662   1.823   5.445   4.017
 4900TIP3   OH214663   3.287   3.725   5.284
 4900TIP3    H114664   3.336   3.727   5.367
 4900TIP3    H214665   3.202   3.762   5.306
 4901TIP3   OH214666   3.388   5.426   4.272
 4901TIP3    H114667   3.336   5.496   4.311
 4901TIP3    H214668   3.339   5.346   4.291
 4902TIP3   OH214669   7.027   6.042   3.674
 4902TIP3    H114670   6.979   5.979   3.728
 4902TIP3    H214671   6.991   6.128   3.700
 4903TIP3   OH214672   6.693   5.772   3.655
 4903TIP3    H114673   6.609   5.735   3.684
 4903TIP3    H214674   6.670   5.827   3.581
 4904TIP3   OH214675   6.202   1.360   0.125
 4904TIP3    H114676   6.151   1.436   0.098
 4904TIP3    H214677   6.137   1.301   0.163
 4905TIP3   OH214678   1.776   5.824   2.701
 4905TIP3    H114679   1.726   5.900   2.674
 4905TIP3    H214680   1.710   5.756   2.717
 4906TIP3   OH214681   3.287   0.243   5.492
 4906TIP3    H114682   3.294   0.306   5.563
 4906TIP3    H214683   3.231   0.173   5.527
 4907TIP3   OH214684   1.859   5.280   1.597
 4907TIP3    H114685   1.926   5.256   1.661
 4907TIP3    H214686   1.861   5.375   1.592
 4908TIP3   OH214687   0.855   0.524   4.341
 4908TIP3    H114688   0.792   0.578   4.293
 4908TIP3    H214689   0.822   0.522   4.430
 4909TIP3   OH214690   0.020   1.034   5.296
 4909TIP3    H114691  -0.026   1.009   5.376
 4909TIP3    H214692   0.058   1.120   5.316
 4910TIP3   OH214693   1.843   5.138   1.108
 4910TIP3    H114694   1.769   5.168   1.160
 4910TIP3    H214695   1.918   5.145   1.166
 4911TIP3   OH214696   1.380   4.613   4.283
 4911TIP3    H114697   1.285   4.603   4.296
 4911TIP3    H214698   1.418   4.583   4.365
 4912TIP3   OH214699   2.137   0.800   2.971
 4912TIP3    H114700   2.065   0.863   2.968
 4912TIP3    H214701   2.101   0.721   2.932
 4913TIP3   OH214702   6.967   1.975   0.128
 4913TIP3    H114703   7.061   1.978   0.111
 4913TIP3    H214704   6.935   2.062   0.104
 4914TIP3   OH214705   5.437   2.967   0.151
 4914TIP3    H114706   5.372   3.037   0.153
 4914TIP3    H214707   5.387   2.888   0.130
 4915TIP3   OH214708   7.065   6.723   3.654
 4915TIP3    H114709   7.117   6.742   3.575
 4915TIP3    H214710   6.993   6.787   3.651
 4916TIP3   OH214711   4.468   0.225   1.990
 4916TIP3    H114712   4.471   0.150   2.049
 4916TIP3    H214713   4.394   0.207   1.932
 4917TIP3   OH214714   3.751   3.187   2.369
 4917TIP3    H114715   3.680   3.194   2.306
 4917TIP3    H214716   3.711   3.206   2.454
 4918TIP3   OH214717   1.643   5.901   1.829
 4918TIP3    H114718   1.562   5.946   1.806
 4918TIP3    H214719   1.617   5.839   1.898
 4919TIP3   OH214720   2.899   3.451   1.174
 4919TIP3    H114721   2.928   3.540   1.196
 4919TIP3    H214722   2.970   3.415   1.121
 4920TIP3   OH214723   2.806   1.031   3.101
 4920TIP3    H114724   2.777   1.062   3.187
 4920TIP3    H214725   2.901   1.037   3.104
 4921TIP3   OH214726   6.248   2.574   0.283
 4921TIP3    H114727   6.299   2.495   0.265
 4921TIP3    H214728   6.303   2.646   0.250
 4922TIP3   OH214729   4.400   1.167   1.188
 4922TIP3    H114730   4.360   1.241   1.143
 4922TIP3    H214731   4.450   1.206   1.259
 4923TIP3   OH214732   1.399   2.560   1.009
 4923TIP3    H114733   1.395   2.628   0.942
 4923TIP3    H214734   1.348   2.487   0.973
 4924TIP3   OH214735   5.271   5.199   0.344
 4924TIP3    H114736   5.228   5.168   0.423
 4924TIP3    H214737   5.354   5.152   0.341
 4925TIP3   OH214738   5.656   1.699   4.685
 4925TIP3    H114739   5.642   1.774   4.627
 4925TIP3    H214740   5.585   1.706   4.750
 4926TIP3   OH214741   1.823   0.856   4.400
 4926TIP3    H114742   1.771   0.874   4.322
 4926TIP3    H214743   1.804   0.929   4.459
 4927TIP3   OH214744   6.727   0.953   1.023
 4927TIP3    H114745   6.720   0.911   1.109
 4927TIP3    H214746   6.638   0.981   1.003
 4928TIP3   OH214747   6.669   2.688   4.970
 4928TIP3    H114748   6.658   2.681   4.875
 4928TIP3    H214749   6.602   2.629   5.005
 4929TIP3   OH214750   6.932   3.356   1.620
 4929TIP3    H114751   6.849   3.310   1.613
 4929TIP3    H214752   6.975   3.342   1.535
 4930TIP3   OH214753   4.068   3.611   2.737
 4930TIP3    H114754   4.129   3.682   2.716
 4930TIP3    H214755   4.065   3.610   2.833
 4931TIP3   OH214756   5.240   2.260   4.902
 4931TIP3    H114757   5.166   2.260   4.841
 4931TIP3    H214758   5.304   2.203   4.861
 4932TIP3   OH214759   0.628   0.467   4.118
 4932TIP3    H114760   0.698   0.402   4.109
 4932TIP3    H214761   0.558   0.437   4.061
 4933TIP3   OH214762   2.987   6.641   5.234
 4933TIP3    H114763   3.057   6.644   5.168
 4933TIP3    H214764   2.908   6.621   5.184
 4934TIP3   OH214765   1.966   4.519   5.145
 4934TIP3    H114766   1.892   4.497   5.202
 4934TIP3    H214767   1.934   4.501   5.057
 4935TIP3   OH214768   5.430   5.234   4.330
 4935TIP3    H114769   5.377   5.281   4.266
 4935TIP3    H214770   5.464   5.302   4.388
 4936TIP3   OH214771   2.774   5.599   4.321
 4936TIP3    H114772   2.730   5.537   4.379
 4936TIP3    H214773   2.704   5.641   4.272
 4937TIP3   OH214774   3.876   3.944   1.672
 4937TIP3    H114775   3.813   3.885   1.631
 4937TIP3    H214776   3.916   3.991   1.599
 4938TIP3   OH214777   6.032   6.081   0.697
 4938TIP3    H114778   5.947   6.126   0.697
 4938TIP3    H214779   6.018   6.004   0.752
 4939TIP3   OH214780   1.793   0.696   4.639
 4939TIP3    H114781   1.759   0.639   4.570
 4939TIP3    H214782   1.715   0.741   4.672
 4940TIP3   OH214783   6.260   0.141   1.777
 4940TIP3    H114784   6.183   0.084   1.790
 4940TIP3    H214785   6.319   0.119   1.849
 4941TIP3   OH214786   1.567   3.900   4.715
 4941TIP3    H114787   1.625   3.929   4.644
 4941TIP3    H214788   1.576   3.804   4.714
 4942TIP3   OH214789   5.821   4.156   1.939
 4942TIP3    H114790   5.861   4.227   1.989
 4942TIP3    H214791   5.858   4.165   1.851
 4943TIP3   OH214792   6.858   5.422   1.400
 4943TIP3    H114793   6.913   5.369   1.457
 4943TIP3    H214794   6.853   5.507   1.444
 4944TIP3   OH214795   3.711   0.102   4.667
 4944TIP3    H114796   3.624   0.108   4.627
 4944TIP3    H214797   3.718   0.011   4.696
 4945TIP3   OH214798   6.917   2.763   3.064
 4945TIP3    H114799   6.915   2.723   3.151
 4945TIP3    H214800   6.852   2.714   3.013
 4946TIP3   OH214801   0.212   4.263   0.325
 4946TIP3    H114802   0.216   4.172   0.354
 4946TIP3    H214803   0.207   4.314   0.406
 4947TIP3   OH214804   3.901   2.068   4.565
 4947TIP3    H114805   3.926   1.977   4.548
 4947TIP3    H214806   3.981   2.110   4.595
 4948TIP3   OH214807   4.995   5.609   5.522
 4948TIP3    H114808   5.078   5.642   5.488
 4948TIP3    H214809   4.934   5.683   5.512
 4949TIP3   OH214810   6.111   2.110   0.175
 4949TIP3    H114811   6.149   2.180   0.122
 4949TIP3    H214812   6.023   2.140   0.195
 4950TIP3   OH214813   1.534   0.660   2.767
 4950TIP3    H114814   1.532   0.564   2.764
 4950TIP3    H214815   1.625   0.682   2.789
 4951TIP3   OH214816   1.320   0.405   1.505
 4951TIP3    H114817   1.229   0.427   1.486
 4951TIP3    H214818   1.355   0.484   1.546
 4952TIP3   OH214819   0.104   4.761   5.698
 4952TIP3    H114820   0.057   4.686   5.734
 4952TIP3    H214821   0.192   4.755   5.734
 4953TIP3   OH214822   0.661   1.092   3.281
 4953TIP3    H114823   0.579   1.094   3.232
 4953TIP3    H214824   0.685   0.999   3.284
 4954TIP3   OH214825   3.706   6.768   0.555
 4954TIP3    H114826   3.735   6.678   0.538
 4954TIP3    H214827   3.785   6.814   0.582
 4955TIP3   OH214828   1.293   0.388   3.283
 4955TIP3    H114829   1.301   0.436   3.200
 4955TIP3    H214830   1.346   0.309   3.269
 4956TIP3   OH214831   2.881   1.940   4.903
 4956TIP3    H114832   2.806   1.946   4.961
 4956TIP3    H214833   2.957   1.937   4.962
 4957TIP3   OH214834   2.394   0.336   3.286
 4957TIP3    H114835   2.376   0.244   3.265
 4957TIP3    H214836   2.490   0.341   3.290
 4958TIP3   OH214837   3.005   2.934   4.886
 4958TIP3    H114838   2.978   2.846   4.858
 4958TIP3    H214839   2.946   2.993   4.840
 4959TIP3   OH214840   0.415   2.207   5.679
 4959TIP3    H114841   0.418   2.292   5.724
 4959TIP3    H214842   0.488   2.158   5.716
 4960TIP3   OH214843   4.386   3.203   5.097
 4960TIP3    H114844   4.414   3.177   5.185
 4960TIP3    H214845   4.437   3.282   5.078
 4961TIP3   OH214846   5.322   4.059   3.584
 4961TIP3    H114847   5.287   4.071   3.495
 4961TIP3    H214848   5.344   3.966   3.588
 4962TIP3   OH214849   1.994   6.765   1.746
 4962TIP3    H114850   2.013   6.800   1.832
 4962TIP3    H214851   2.079   6.739   1.711
 4963TIP3   OH214852   2.554   2.425   1.441
 4963TIP3    H114853   2.547   2.513   1.404
 4963TIP3    H214854   2.463   2.398   1.453
 4964TIP3   OH214855   0.517   2.920   3.083
 4964TIP3    H114856   0.511   3.011   3.056
 4964TIP3    H214857   0.437   2.879   3.047
 4965TIP3   OH214858   6.972   2.332   0.713
 4965TIP3    H114859   6.890   2.285   0.699
 4965TIP3    H214860   6.972   2.353   0.806
 4966TIP3   OH214861   1.314   5.507   0.250
 4966TIP3    H114862   1.282   5.575   0.190
 4966TIP3    H214863   1.253   5.434   0.238
 4967TIP3   OH214864   6.676   5.151   5.157
 4967TIP3    H114865   6.758   5.155   5.108
 4967TIP3    H214866   6.609   5.178   5.094
 4968TIP3   OH214867   3.054   5.307   3.496
 4968TIP3    H114868   3.096   5.350   3.569
 4968TIP3    H214869   2.972   5.273   3.532
 4969TIP3   OH214870   3.832   2.669   1.581
 4969TIP3    H114871   3.920   2.701   1.600
 4969TIP3    H214872   3.846   2.590   1.528
 4970TIP3   OH214873   1.112   2.299   3.985
 4970TIP3    H114874   1.112   2.299   3.889
 4970TIP3    H214875   1.196   2.261   4.008
 4971TIP3   OH214876  -0.008   2.891   1.659
 4971TIP3    H114877  -0.051   2.974   1.680
 4971TIP3    H214878   0.063   2.885   1.722
 4972TIP3   OH214879   0.476   0.892   5.824
 4972TIP3    H114880   0.433   0.899   5.739
 4972TIP3    H214881   0.538   0.964   5.826
 4973TIP3   OH214882   0.844   6.405   3.491
 4973TIP3    H114883   0.821   6.314   3.510
 4973TIP3    H214884   0.938   6.410   3.511
 4974TIP3   OH214885   6.349   0.512   5.466
 4974TIP3    H114886   6.282   0.539   5.402
 4974TIP3    H214887   6.377   0.426   5.436
 4975TIP3   OH214888   2.681   2.227   5.467
 4975TIP3    H114889   2.736   2.222   5.389
 4975TIP3    H214890   2.617   2.157   5.456
 4976TIP3   OH214891   0.680   0.638   4.583
 4976TIP3    H114892   0.614   0.632   4.514
 4976TIP3    H214893   0.653   0.573   4.647
 4977TIP3   OH214894   0.923   5.928   3.682
 4977TIP3    H114895   1.014   5.935   3.710
 4977TIP3    H214896   0.913   5.837   3.653
 4978TIP3   OH214897   5.216   4.715   3.233
 4978TIP3    H114898   5.176   4.632   3.259
 4978TIP3    H214899   5.180   4.779   3.295
 4979TIP3   OH214900   1.057   1.799   3.021
 4979TIP3    H114901   1.068   1.704   3.015
 4979TIP3    H214902   1.062   1.819   3.114
 4980TIP3   OH214903   2.853   5.947   4.587
 4980TIP3    H114904   2.799   5.950   4.508
 4980TIP3    H214905   2.790   5.936   4.659
 4981TIP3   OH214906   1.060   5.421   2.450
 4981TIP3    H114907   1.103   5.424   2.365
 4981TIP3    H214908   1.070   5.509   2.486
 4982TIP3   OH214909   2.910   1.044   1.401
 4982TIP3    H114910   2.956   1.127   1.391
 4982TIP3    H214911   2.840   1.047   1.335
 4983TIP3   OH214912   6.855   3.324   3.775
 4983TIP3    H114913   6.819   3.257   3.834
 4983TIP3    H214914   6.803   3.402   3.794
 4984TIP3   OH214915   5.686   4.609   5.080
 4984TIP3    H114916   5.642   4.558   5.012
 4984TIP3    H214917   5.700   4.695   5.040
 4985TIP3   OH214918   0.053   3.570   4.032
 4985TIP3    H114919   0.057   3.546   3.939
 4985TIP3    H214920   0.098   3.499   4.077
 4986TIP3   OH214921   5.980   6.046   4.533
 4986TIP3    H114922   6.008   5.957   4.509
 4986TIP3    H214923   5.885   6.041   4.537
 4987TIP3   OH214924   3.802   2.591   2.408
 4987TIP3    H114925   3.778   2.683   2.398
 4987TIP3    H214926   3.853   2.588   2.489
 4988TIP3   OH214927   4.337   3.537   3.654
 4988TIP3    H114928   4.382   3.593   3.717
 4988TIP3    H214929   4.270   3.492   3.705
 4989TIP3   OH214930   1.008   6.390   3.138
 4989TIP3    H114931   0.973   6.322   3.079
 4989TIP3    H214932   0.933   6.448   3.154
 4990TIP3   OH214933   3.282   3.681   3.126
 4990TIP3    H114934   3.302   3.621   3.198
 4990TIP3    H214935   3.216   3.636   3.074
 4991TIP3   OH214936   3.592   5.102   1.327
 4991TIP3    H114937   3.562   5.193   1.328
 4991TIP3    H214938   3.619   5.084   1.417
 4992TIP3   OH214939   1.689   6.565   0.384
 4992TIP3    H114940   1.759   6.515   0.343
 4992TIP3    H214941   1.721   6.584   0.473
 4993TIP3   OH214942   1.393   2.916   1.030
 4993TIP3    H114943   1.411   2.872   0.947
 4993TIP3    H214944   1.409   3.009   1.012
 4994TIP3   OH214945   0.338   1.856   0.333
 4994TIP3    H114946   0.368   1.801   0.261
 4994TIP3    H214947   0.417   1.899   0.365
 4995TIP3   OH214948   1.696   1.880   5.569
 4995TIP3    H114949   1.605   1.879   5.599
 4995TIP3    H214950   1.709   1.795   5.528
 4996TIP3   OH214951   0.782   5.736   0.278
 4996TIP3    H114952   0.834   5.815   0.294
 4996TIP3    H214953   0.692   5.762   0.298
 4997TIP3   OH214954   1.217   1.341   0.602
 4997TIP3    H114955   1.192   1.367   0.690
 4997TIP3    H214956   1.140   1.295   0.567
 4998TIP3   OH214957   2.890   2.512   3.621
 4998TIP3    H114958   2.943   2.583   3.657
 4998TIP3    H214959   2.933   2.432   3.652
 4999TIP3   OH214960   3.735   2.368   4.197
 4999TIP3    H114961   3.700   2.447   4.240
 4999TIP3    H214962   3.766   2.399   4.112
 5000TIP3   OH214963   2.591   0.652   5.322
 5000TIP3    H114964   2.674   0.684   5.289
 5000TIP3    H214965   2.573   0.706   5.399
 5001TIP3   OH214966   2.638   3.670   5.767
 5001TIP3    H114967   2.579   3.717   5.826
 5001TIP3    H214968   2.651   3.728   5.693
 5002TIP3   OH214969   5.618   3.841   1.641
 5002TIP3    H114970   5.621   3.890   1.724
 5002TIP3    H214971   5.525   3.819   1.631
 5003TIP3   OH214972   0.629   2.238   0.421
 5003TIP3    H114973   0.622   2.282   0.505
 5003TIP3    H214974   0.543   2.250   0.380
 5004TIP3   OH214975   4.364   0.214   5.662
 5004TIP3    H114976   4.428   0.228   5.593
 5004TIP3    H214977   4.282   0.193   5.617
 5005TIP3   OH214978   6.072   2.123   4.434
 5005TIP3    H114979   6.079   2.177   4.513
 5005TIP3    H214980   6.163   2.111   4.405
 5006TIP3   OH214981   2.255   0.155   0.869
 5006TIP3    H114982   2.232   0.232   0.817
 5006TIP3    H214983   2.205   0.165   0.950
 5007TIP3   OH214984   5.598   4.331   2.749
 5007TIP3    H114985   5.693   4.339   2.740
 5007TIP3    H214986   5.572   4.272   2.679
 5008TIP3   OH214987   1.996   3.728   5.106
 5008TIP3    H114988   1.965   3.795   5.166
 5008TIP3    H214989   1.944   3.740   5.027
 5009TIP3   OH214990   1.831   4.515   4.641
 5009TIP3    H114991   1.814   4.423   4.620
 5009TIP3    H214992   1.813   4.562   4.560
 5010TIP3   OH214993   5.201   1.105   2.801
 5010TIP3    H114994   5.268   1.173   2.790
 5010TIP3    H214995   5.194   1.064   2.715
 5011TIP3   OH214996   3.304   6.315   0.829
 5011TIP3    H114997   3.383   6.316   0.775
 5011TIP3    H214998   3.239   6.270   0.775
 5012TIP3   OH214999   1.415   4.944   1.865
 5012TIP3    H115000   1.500   4.902   1.878
 5012TIP3    H215001   1.403   5.000   1.941
 5013TIP3   OH215002   2.623   3.504   2.647
 5013TIP3    H115003   2.634   3.572   2.714
 5013TIP3    H215004   2.699   3.447   2.659
 5014TIP3   OH215005   0.441   1.895   4.584
 5014TIP3    H115006   0.528   1.920   4.616
 5014TIP3    H215007   0.394   1.978   4.576
 5015TIP3   OH215008   1.612   0.015   5.766
 5015TIP3    H115009   1.575   0.087   5.716
 5015TIP3    H215010   1.703   0.010   5.738
 5016TIP3   OH215011   3.093   2.761   3.974
 5016TIP3    H115012   3.035   2.794   3.905
 5016TIP3    H215013   3.173   2.736   3.928
 5017TIP3   OH215014   0.322   6.385   1.036
 5017TIP3    H115015   0.311   6.477   1.010
 5017TIP3    H215016   0.240   6.363   1.080
 5018TIP3   OH215017   6.975   1.814   3.455
 5018TIP3    H115018   6.913   1.882   3.481
 5018TIP3    H215019   7.060   1.844   3.487
 5019TIP3   OH215020   0.084   5.384   3.657
 5019TIP3    H115021   0.061   5.422   3.742
 5019TIP3    H215022   0.176   5.360   3.665
 5020TIP3   OH215023   3.097   4.542   4.587
 5020TIP3    H115024   3.111   4.625   4.542
 5020TIP3    H215025   3.048   4.488   4.525
 5021TIP3   OH215026   3.157   0.597   5.093
 5021TIP3    H115027   3.218   0.624   5.024
 5021TIP3    H215028   3.197   0.518   5.131
 5022TIP3   OH215029   3.220   1.678   0.793
 5022TIP3    H115030   3.282   1.611   0.822
 5022TIP3    H215031   3.134   1.638   0.806
 5023TIP3   OH215032   6.528   4.377   2.030
 5023TIP3    H115033   6.512   4.470   2.013
 5023TIP3    H215034   6.585   4.376   2.108
 5024TIP3   OH215035   3.663   4.850   0.639
 5024TIP3    H115036   3.709   4.934   0.638
 5024TIP3    H215037   3.615   4.848   0.556
 5025TIP3   OH215038   4.804   0.612   0.607
 5025TIP3    H115039   4.831   0.679   0.670
 5025TIP3    H215040   4.801   0.658   0.523
 5026TIP3   OH215041   1.260   4.832   3.828
 5026TIP3    H115042   1.275   4.780   3.749
 5026TIP3    H215043   1.165   4.845   3.830
 5027TIP3   OH215044   2.858   0.763   5.264
 5027TIP3    H115045   2.831   0.709   5.190
 5027TIP3    H215046   2.944   0.729   5.288
 5028TIP3   OH215047   5.202   2.578   2.609
 5028TIP3    H115048   5.124   2.633   2.616
 5028TIP3    H215049   5.207   2.532   2.693
 5029TIP3   OH215050   6.921   5.947   5.552
 5029TIP3    H115051   6.844   6.003   5.565
 5029TIP3    H215052   6.884   5.859   5.539
 5030TIP3   OH215053   2.617   6.484   2.580
 5030TIP3    H115054   2.605   6.476   2.675
 5030TIP3    H215055   2.603   6.395   2.547
 5031TIP3   OH215056   2.114   4.095   3.290
 5031TIP3    H115057   2.140   4.003   3.300
 5031TIP3    H215058   2.087   4.102   3.198
 5032TIP3   OH215059   3.972   1.128   4.479
 5032TIP3    H115060   4.012   1.042   4.461
 5032TIP3    H215061   3.888   1.108   4.520
 5033TIP3   OH215062   6.981   5.926   1.178
 5033TIP3    H115063   6.916   5.903   1.112
 5033TIP3    H215064   6.944   6.002   1.223
 5034TIP3   OH215065   6.199   6.423   1.921
 5034TIP3    H115066   6.197   6.348   1.861
 5034TIP3    H215067   6.269   6.403   1.982
 5035TIP3   OH215068   0.914   0.154   5.882
 5035TIP3    H115069   0.867   0.089   5.829
 5035TIP3    H215070   0.847   0.219   5.904
 5036TIP3   OH215071   2.051   2.321   3.089
 5036TIP3    H115072   2.040   2.354   3.000
 5036TIP3    H215073   2.050   2.400   3.144
 5037TIP3   OH215074   5.996   1.400   2.309
 5037TIP3    H115075   6.046   1.479   2.285
 5037TIP3    H215076   5.945   1.427   2.386
 5038TIP3   OH215077   6.973   6.314   5.729
 5038TIP3    H115078   7.022   6.232   5.729
 5038TIP3    H215079   6.973   6.341   5.637
 5039TIP3   OH215080   6.393   4.449   4.154
 5039TIP3    H115081   6.393   4.544   4.156
 5039TIP3    H215082   6.312   4.424   4.199
 5040TIP3   OH215083   4.575   0.848   5.685
 5040TIP3    H115084   4.482   0.830   5.669
 5040TIP3    H215085   4.577   0.889   5.771
 5041TIP3   OH215086   0.897   3.690   3.678
 5041TIP3    H115087   0.839   3.682   3.603
 5041TIP3    H215088   0.861   3.763   3.729
 5042TIP3   OH215089   6.195   1.675   0.760
 5042TIP3    H115090   6.281   1.716   0.748
 5042TIP3    H215091   6.209   1.609   0.827
 5043TIP3   OH215092   7.033   4.789   2.206
 5043TIP3    H115093   7.095   4.862   2.205
 5043TIP3    H215094   7.088   4.711   2.212
 5044TIP3   OH215095   5.714   5.650   4.525
 5044TIP3    H115096   5.773   5.685   4.458
 5044TIP3    H215097   5.715   5.716   4.594
 5045TIP3   OH215098   2.585   0.361   0.907
 5045TIP3    H115099   2.584   0.345   0.813
 5045TIP3    H215100   2.658   0.307   0.939
 5046TIP3   OH215101   1.532   6.611   3.210
 5046TIP3    H115102   1.555   6.594   3.301
 5046TIP3    H215103   1.584   6.687   3.185
 5047TIP3   OH215104   2.287   3.985   1.085
 5047TIP3    H115105   2.221   3.978   1.154
 5047TIP3    H215106   2.367   3.950   1.124
 5048TIP3   OH215107   6.653   1.224   2.583
 5048TIP3    H115108   6.612   1.153   2.632
 5048TIP3    H215109   6.737   1.239   2.628
 5049TIP3   OH215110   5.640   1.264   2.630
 5049TIP3    H115111   5.672   1.174   2.618
 5049TIP3    H215112   5.704   1.318   2.584
 5050TIP3   OH215113   1.717   4.147   3.075
 5050TIP3    H115114   1.726   4.214   3.143
 5050TIP3    H215115   1.758   4.069   3.113
 5051TIP3   OH215116   1.041   2.422   5.400
 5051TIP3    H115117   1.056   2.382   5.485
 5051TIP3    H215118   1.053   2.516   5.414
 5052TIP3   OH215119   1.540   5.568   0.410
 5052TIP3    H115120   1.455   5.554   0.368
 5052TIP3    H215121   1.555   5.489   0.461
 5053TIP3   OH215122   3.073   6.089   4.918
 5053TIP3    H115123   3.062   6.130   4.832
 5053TIP3    H215124   3.085   6.163   4.978
 5054TIP3   OH215125   1.861   3.277   0.332
 5054TIP3    H115126   1.937   3.317   0.375
 5054TIP3    H215127   1.888   3.267   0.241
 5055TIP3   OH215128   5.096   3.579   3.905
 5055TIP3    H115129   5.058   3.564   3.991
 5055TIP3    H215130   5.022   3.607   3.851
 5056TIP3   OH215131   0.156   0.167   3.208
 5056TIP3    H115132   0.150   0.107   3.133
 5056TIP3    H215133   0.197   0.245   3.172
 5057TIP3   OH215134   1.136   2.393   3.740
 5057TIP3    H115135   1.066   2.459   3.735
 5057TIP3    H215136   1.127   2.342   3.659
 5058TIP3   OH215137   5.582   6.373   1.062
 5058TIP3    H115138   5.674   6.393   1.044
 5058TIP3    H215139   5.547   6.344   0.977
 5059TIP3   OH215140   1.145   5.392   2.194
 5059TIP3    H115141   1.212   5.356   2.135
 5059TIP3    H215142   1.084   5.320   2.207
 5060TIP3   OH215143   1.147   1.923   5.084
 5060TIP3    H115144   1.224   1.887   5.128
 5060TIP3    H215145   1.106   1.979   5.149
 5061TIP3   OH215146   3.097   0.126   0.403
 5061TIP3    H115147   3.055   0.201   0.444
 5061TIP3    H215148   3.024   0.069   0.377
 5062TIP3   OH215149   4.481   1.469   0.535
 5062TIP3    H115150   4.480   1.520   0.455
 5062TIP3    H215151   4.570   1.478   0.568
 5063TIP3   OH215152   3.943   2.846   0.438
 5063TIP3    H115153   3.954   2.859   0.532
 5063TIP3    H215154   3.877   2.777   0.431
 5064TIP3   OH215155   1.768   3.975   4.559
 5064TIP3    H115156   1.786   3.969   4.465
 5064TIP3    H215157   1.822   3.907   4.598
 5065TIP3   OH215158   5.016   3.484   0.523
 5065TIP3    H115159   5.022   3.572   0.488
 5065TIP3    H215160   5.087   3.478   0.587
 5066TIP3   OH215161   0.373   5.458   4.061
 5066TIP3    H115162   0.468   5.468   4.072
 5066TIP3    H215163   0.351   5.517   3.989
 5067TIP3   OH215164   0.366   2.758   2.767
 5067TIP3    H115165   0.333   2.793   2.850
 5067TIP3    H215166   0.295   2.704   2.734
 5068TIP3   OH215167   5.748   1.228   4.282
 5068TIP3    H115168   5.809   1.154   4.289
 5068TIP3    H215169   5.755   1.256   4.191
 5069TIP3   OH215170   4.143   3.322   5.365
 5069TIP3    H115171   4.109   3.346   5.451
 5069TIP3    H215172   4.197   3.397   5.338
 5070TIP3   OH215173   1.442   4.861   2.924
 5070TIP3    H115174   1.491   4.779   2.928
 5070TIP3    H215175   1.462   4.905   3.007
 5071TIP3   OH215176   4.642   4.196   4.232
 5071TIP3    H115177   4.616   4.253   4.160
 5071TIP3    H215178   4.573   4.206   4.297
 5072TIP3   OH215179   3.270   6.354   1.905
 5072TIP3    H115180   3.240   6.263   1.910
 5072TIP3    H215181   3.315   6.359   1.820
 5073TIP3   OH215182   2.320   2.033   2.104
 5073TIP3    H115183   2.291   1.942   2.114
 5073TIP3    H215184   2.288   2.059   2.018
 5074TIP3   OH215185   2.791   5.909   3.688
 5074TIP3    H115186   2.711   5.878   3.645
 5074TIP3    H215187   2.861   5.886   3.627
 5075TIP3   OH215188   2.859   4.432   3.807
 5075TIP3    H115189   2.941   4.390   3.779
 5075TIP3    H215190   2.869   4.524   3.780
 5076TIP3   OH215191   3.446   2.840   4.659
 5076TIP3    H115192   3.392   2.837   4.738
 5076TIP3    H215193   3.404   2.778   4.599
 5077TIP3   OH215194   5.529   3.844   4.792
 5077TIP3    H115195   5.544   3.922   4.739
 5077TIP3    H215196   5.438   3.850   4.819
 5078TIP3   OH215197   2.000   5.773   1.101
 5078TIP3    H115198   1.910   5.803   1.117
 5078TIP3    H215199   1.989   5.688   1.058
 5079TIP3   OH215200   4.642   5.647   3.225
 5079TIP3    H115201   4.669   5.617   3.138
 5079TIP3    H215202   4.563   5.597   3.244
 5080TIP3   OH215203   0.287   3.647   4.572
 5080TIP3    H115204   0.248   3.632   4.486
 5080TIP3    H215205   0.222   3.612   4.634
 5081TIP3   OH215206   1.049   4.537   1.734
 5081TIP3    H115207   1.039   4.546   1.829
 5081TIP3    H215208   1.142   4.554   1.718
 5082TIP3   OH215209   6.473   6.157   1.673
 5082TIP3    H115210   6.460   6.248   1.645
 5082TIP3    H215211   6.499   6.164   1.765
 5083TIP3   OH215212   1.421   0.113   3.576
 5083TIP3    H115213   1.515   0.094   3.570
 5083TIP3    H215214   1.378   0.030   3.555
 5084TIP3   OH215215   1.051   3.465   5.555
 5084TIP3    H115216   0.979   3.405   5.537
 5084TIP3    H215217   1.047   3.481   5.649
 5085TIP3   OH215218   2.715   4.417   3.099
 5085TIP3    H115219   2.646   4.480   3.079
 5085TIP3    H215220   2.713   4.407   3.194
 5086TIP3   OH215221   4.101   2.951   4.815
 5086TIP3    H115222   4.013   2.960   4.778
 5086TIP3    H215223   4.114   3.031   4.865
 5087TIP3   OH215224   5.657   2.680   2.183
 5087TIP3    H115225   5.597   2.659   2.255
 5087TIP3    H215226   5.744   2.676   2.222
 5088TIP3   OH215227   5.733   5.829   0.803
 5088TIP3    H115228   5.684   5.884   0.741
 5088TIP3    H215229   5.777   5.891   0.860
 5089TIP3   OH215230   5.686   5.297   3.917
 5089TIP3    H115231   5.651   5.356   3.851
 5089TIP3    H215232   5.682   5.348   3.999
 5090TIP3   OH215233   0.727   0.329   1.189
 5090TIP3    H115234   0.727   0.352   1.096
 5090TIP3    H215235   0.691   0.241   1.192
 5091TIP3   OH215236   4.872   5.852   3.012
 5091TIP3    H115237   4.809   5.891   3.072
 5091TIP3    H215238   4.819   5.807   2.947
 5092TIP3   OH215239   3.516   4.562   2.965
 5092TIP3    H115240   3.584   4.496   2.977
 5092TIP3    H215241   3.478   4.573   3.053
 5093TIP3   OH215242   5.800   6.368   1.405
 5093TIP3    H115243   5.746   6.437   1.366
 5093TIP3    H215244   5.890   6.396   1.388
 5094TIP3   OH215245   1.549   3.555   1.615
 5094TIP3    H115246   1.562   3.503   1.694
 5094TIP3    H215247   1.481   3.508   1.567
 5095TIP3   OH215248   5.158   4.327   5.192
 5095TIP3    H115249   5.096   4.341   5.121
 5095TIP3    H215250   5.237   4.374   5.164
 5096TIP3   OH215251   1.611   0.647   1.125
 5096TIP3    H115252   1.534   0.590   1.137
 5096TIP3    H215253   1.666   0.599   1.063
 5097TIP3   OH215254   1.099   4.978   0.722
 5097TIP3    H115255   1.144   4.967   0.638
 5097TIP3    H215256   1.155   4.936   0.786
 5098TIP3   OH215257   2.912   3.045   4.013
 5098TIP3    H115258   2.950   3.106   4.077
 5098TIP3    H215259   2.879   2.972   4.066
 5099TIP3   OH215260   0.341   4.356   3.297
 5099TIP3    H115261   0.325   4.262   3.286
 5099TIP3    H215262   0.341   4.369   3.392
 5100TIP3   OH215263   3.973   0.160   3.380
 5100TIP3    H115264   3.941   0.250   3.378
 5100TIP3    H215265   3.896   0.107   3.400
 5101TIP3   OH215266   2.873  -0.009   1.573
 5101TIP3    H115267   2.861   0.084   1.554
 5101TIP3    H215268   2.946  -0.012   1.634
 5102TIP3   OH215269   0.769   1.224   3.498
 5102TIP3    H115270   0.864   1.216   3.488
 5102TIP3    H215271   0.733   1.181   3.421
 5103TIP3   OH215272   5.216   2.662   0.343
 5103TIP3    H115273   5.173   2.614   0.273
 5103TIP3    H215274   5.191   2.753   0.330
 5104TIP3   OH215275   0.860   3.255   0.642
 5104TIP3    H115276   0.805   3.330   0.621
 5104TIP3    H215277   0.939   3.293   0.681
 5105TIP3   OH215278   4.302   2.316   3.788
 5105TIP3    H115279   4.362   2.384   3.819
 5105TIP3    H215280   4.329   2.299   3.698
 5106TIP3   OH215281   3.664   6.135   3.338
 5106TIP3    H115282   3.691   6.204   3.277
 5106TIP3    H215283   3.695   6.054   3.299
 5107TIP3   OH215284   6.854   2.202   2.812
 5107TIP3    H115285   6.920   2.140   2.784
 5107TIP3    H215286   6.774   2.175   2.767
 5108TIP3   OH215287   6.112   5.287   4.259
 5108TIP3    H115288   6.172   5.218   4.230
 5108TIP3    H215289   6.028   5.242   4.269
 5109TIP3   OH215290   5.963   3.286   3.727
 5109TIP3    H115291   6.045   3.254   3.765
 5109TIP3    H215292   5.960   3.246   3.640
 5110TIP3   OH215293   2.646   1.500   4.802
 5110TIP3    H115294   2.671   1.571   4.862
 5110TIP3    H215295   2.714   1.500   4.735
 5111TIP3   OH215296   0.440   0.585   2.652
 5111TIP3    H115297   0.493   0.638   2.594
 5111TIP3    H215298   0.391   0.648   2.705
 5112TIP3   OH215299   1.827   6.399   3.945
 5112TIP3    H115300   1.849   6.463   3.878
 5112TIP3    H215301   1.850   6.314   3.907
 5113TIP3   OH215302   3.572   3.289   5.105
 5113TIP3    H115303   3.513   3.234   5.054
 5113TIP3    H215304   3.537   3.378   5.095
 5114TIP3   OH215305   3.009   1.304   2.267
 5114TIP3    H115306   3.052   1.219   2.264
 5114TIP3    H215307   2.939   1.298   2.203
 5115TIP3   OH215308   2.621   0.713   1.712
 5115TIP3    H115309   2.636   0.795   1.759
 5115TIP3    H215310   2.661   0.726   1.626
 5116TIP3   OH215311   5.425   1.674   2.707
 5116TIP3    H115312   5.426   1.679   2.612
 5116TIP3    H215313   5.455   1.760   2.737
 5117TIP3   OH215314   3.501   1.716   5.262
 5117TIP3    H115315   3.539   1.791   5.216
 5117TIP3    H215316   3.406   1.727   5.252
 5118TIP3   OH215317   6.783   3.026   1.504
 5118TIP3    H115318   6.758   3.117   1.515
 5118TIP3    H215319   6.715   2.977   1.551
 5119TIP3   OH215320   6.900   2.819   0.250
 5119TIP3    H115321   6.807   2.802   0.231
 5119TIP3    H215322   6.928   2.879   0.181
 5120TIP3   OH215323   6.399   3.531   2.131
 5120TIP3    H115324   6.374   3.470   2.200
 5120TIP3    H215325   6.380   3.485   2.050
 5121TIP3   OH215326   5.385   6.668   5.494
 5121TIP3    H115327   5.323   6.612   5.447
 5121TIP3    H215328   5.465   6.616   5.500
 5122TIP3   OH215329   5.971   3.103   4.121
 5122TIP3    H115330   5.893   3.097   4.177
 5122TIP3    H215331   5.959   3.184   4.072
 5123TIP3   OH215332   6.821   4.793   4.708
 5123TIP3    H115333   6.912   4.802   4.737
 5123TIP3    H215334   6.809   4.862   4.644
 5124TIP3   OH215335   5.312   3.305   3.147
 5124TIP3    H115336   5.374   3.253   3.198
 5124TIP3    H215337   5.298   3.384   3.199
 5125TIP3   OH215338   7.219   2.772   1.219
 5125TIP3    H115339   7.147   2.835   1.222
 5125TIP3    H215340   7.286   2.810   1.277
 5126TIP3   OH215341   1.670   4.604   2.933
 5126TIP3    H115342   1.747   4.549   2.945
 5126TIP3    H215343   1.600   4.557   2.979
 5127TIP3   OH215344   1.550   3.744   5.864
 5127TIP3    H115345   1.598   3.677   5.913
 5127TIP3    H215346   1.496   3.694   5.802
 5128TIP3   OH215347   2.275   2.816   0.185
 5128TIP3    H115348   2.360   2.783   0.155
 5128TIP3    H215349   2.252   2.885   0.122
 5129TIP3   OH215350   5.650   3.041   5.263
 5129TIP3    H115351   5.689   2.954   5.271
 5129TIP3    H215352   5.685   3.074   5.180
 5130TIP3   OH215353   2.260  -0.027   1.584
 5130TIP3    H115354   2.235   0.046   1.527
 5130TIP3    H215355   2.322   0.010   1.646
 5131TIP3   OH215356   4.365   1.581   1.185
 5131TIP3    H115357   4.275   1.606   1.205
 5131TIP3    H215358   4.356   1.505   1.127
 5132TIP3   OH215359   6.970   2.439   2.829
 5132TIP3    H115360   6.909   2.365   2.831
 5132TIP3    H215361   7.033   2.420   2.898
 5133TIP3   OH215362   4.937   2.044   3.106
 5133TIP3    H115363   4.937   2.021   3.199
 5133TIP3    H215364   4.926   1.960   3.061
 5134TIP3   OH215365   1.561   5.612   2.534
 5134TIP3    H115366   1.554   5.545   2.466
 5134TIP3    H215367   1.514   5.688   2.499
 5135TIP3   OH215368   6.745   6.458   1.823
 5135TIP3    H115369   6.706   6.414   1.748
 5135TIP3    H215370   6.808   6.519   1.785
 5136TIP3   OH215371   3.225   1.261   0.012
 5136TIP3    H115372   3.217   1.307  -0.071
 5136TIP3    H215373   3.319   1.254   0.028
 5137TIP3   OH215374   4.438   1.709   3.364
 5137TIP3    H115375   4.436   1.784   3.423
 5137TIP3    H215376   4.514   1.658   3.393
 5138TIP3   OH215377   5.599   0.745   5.055
 5138TIP3    H115378   5.627   0.799   4.981
 5138TIP3    H215379   5.514   0.710   5.028
 5139TIP3   OH215380   3.386   6.178   3.421
 5139TIP3    H115381   3.478   6.152   3.415
 5139TIP3    H215382   3.384   6.268   3.387
 5140TIP3   OH215383   4.924   3.212   2.491
 5140TIP3    H115384   5.005   3.207   2.441
 5140TIP3    H215385   4.950   3.194   2.581
 5141TIP3   OH215386   3.954   6.643   0.970
 5141TIP3    H115387   3.905   6.611   0.894
 5141TIP3    H215388   4.042   6.659   0.936
 5142TIP3   OH215389   6.855   4.891   4.135
 5142TIP3    H115390   6.771   4.934   4.153
 5142TIP3    H215391   6.838   4.837   4.058
 5143TIP3   OH215392   3.516   0.789   2.211
 5143TIP3    H115393   3.551   0.701   2.221
 5143TIP3    H215394   3.589   0.846   2.235
 5144TIP3   OH215395   6.596   0.652   2.040
 5144TIP3    H115396   6.584   0.638   2.134
 5144TIP3    H215397   6.660   0.724   2.035
 5145TIP3   OH215398   4.143   5.114   5.508
 5145TIP3    H115399   4.092   5.145   5.433
 5145TIP3    H215400   4.090   5.043   5.545
 5146TIP3   OH215401   3.466   5.952   3.139
 5146TIP3    H115402   3.453   5.981   3.229
 5146TIP3    H215403   3.556   5.920   3.137
 5147TIP3   OH215404   3.949   1.052   4.853
 5147TIP3    H115405   3.924   1.144   4.864
 5147TIP3    H215406   3.869   1.004   4.873
 5148TIP3   OH215407   3.278   1.289   1.031
 5148TIP3    H115408   3.314   1.263   0.947
 5148TIP3    H215409   3.349   1.338   1.074
 5149TIP3   OH215410   6.593   4.278   4.207
 5149TIP3    H115411   6.514   4.322   4.176
 5149TIP3    H215412   6.578   4.186   4.190
 5150TIP3   OH215413   3.090   1.770   2.210
 5150TIP3    H115414   3.024   1.831   2.175
 5150TIP3    H215415   3.080   1.775   2.305
 5151TIP3   OH215416   2.045   0.970   3.514
 5151TIP3    H115417   2.019   0.975   3.422
 5151TIP3    H215418   2.098   0.890   3.520
 5152TIP3   OH215419   0.867   4.098   2.957
 5152TIP3    H115420   0.888   4.024   2.900
 5152TIP3    H215421   0.952   4.125   2.992
 5153TIP3   OH215422   6.204   1.200   0.908
 5153TIP3    H115423   6.166   1.176   0.993
 5153TIP3    H215424   6.290   1.159   0.908
 5154TIP3   OH215425   6.724   0.075   0.544
 5154TIP3    H115426   6.704   0.091   0.636
 5154TIP3    H215427   6.793   0.009   0.546
 5155TIP3   OH215428   3.023   0.749   3.113
 5155TIP3    H115429   2.985   0.734   3.026
 5155TIP3    H215430   3.109   0.788   3.095
 5156TIP3   OH215431   4.728   0.817   2.088
 5156TIP3    H115432   4.684   0.758   2.149
 5156TIP3    H215433   4.678   0.808   2.007
 5157TIP3   OH215434   5.148   1.104   2.012
 5157TIP3    H115435   5.133   1.023   2.060
 5157TIP3    H215436   5.060   1.137   1.993
 5158TIP3   OH215437   5.875   4.717   4.652
 5158TIP3    H115438   5.896   4.759   4.568
 5158TIP3    H215439   5.782   4.738   4.666
 5159TIP3   OH215440   1.691   3.345   3.101
 5159TIP3    H115441   1.602   3.310   3.093
 5159TIP3    H215442   1.737   3.307   3.026
 5160TIP3   OH215443   0.347   2.588   3.613
 5160TIP3    H115444   0.440   2.577   3.631
 5160TIP3    H215445   0.341   2.669   3.563
 5161TIP3   OH215446   1.237   3.434   2.509
 5161TIP3    H115447   1.153   3.386   2.508
 5161TIP3    H215448   1.302   3.368   2.484
 5162TIP3   OH215449   4.722   6.555   0.060
 5162TIP3    H115450   4.764   6.588   0.139
 5162TIP3    H215451   4.640   6.603   0.053
 5163TIP3   OH215452   6.335   1.662   3.820
 5163TIP3    H115453   6.259   1.619   3.860
 5163TIP3    H215454   6.408   1.635   3.876
 5164TIP3   OH215455   0.384   4.871   2.413
 5164TIP3    H115456   0.460   4.907   2.460
 5164TIP3    H215457   0.311   4.883   2.474
 5165TIP3   OH215458   5.875   5.155   1.323
 5165TIP3    H115459   5.789   5.198   1.318
 5165TIP3    H215460   5.862   5.071   1.278
 5166TIP3   OH215461   1.379   0.691   2.290
 5166TIP3    H115462   1.472   0.674   2.305
 5166TIP3    H215463   1.337   0.605   2.295
 5167TIP3   OH215464   5.439   4.851   5.046
 5167TIP3    H115465   5.395   4.812   4.971
 5167TIP3    H215466   5.379   4.919   5.077
 5168TIP3   OH215467   4.456   6.485   1.257
 5168TIP3    H115468   4.476   6.391   1.253
 5168TIP3    H215469   4.538   6.525   1.286
 5169TIP3   OH215470   0.083   5.831   1.886
 5169TIP3    H115471   0.096   5.869   1.799
 5169TIP3    H215472   0.017   5.886   1.928
 5170TIP3   OH215473   5.932   5.176   3.875
 5170TIP3    H115474   5.962   5.231   3.803
 5170TIP3    H215475   5.853   5.220   3.908
 5171TIP3   OH215476   3.704   0.385   4.401
 5171TIP3    H115477   3.739   0.340   4.324
 5171TIP3    H215478   3.676   0.315   4.459
 5172TIP3   OH215479  -0.022   4.485   3.809
 5172TIP3    H115480   0.001   4.392   3.811
 5172TIP3    H215481  -0.029   4.510   3.901
 5173TIP3   OH215482   3.709   0.760   1.858
 5173TIP3    H115483   3.647   0.721   1.798
 5173TIP3    H215484   3.782   0.788   1.803
 5174TIP3   OH215485   4.228   2.964   1.072
 5174TIP3    H115486   4.264   3.053   1.082
 5174TIP3    H215487   4.290   2.908   1.119
 5175TIP3   OH215488   5.365   5.259   3.613
 5175TIP3    H115489   5.368   5.166   3.591
 5175TIP3    H215490   5.445   5.295   3.575
 5176TIP3   OH215491   4.894   2.391   1.994
 5176TIP3    H115492   4.846   2.379   2.076
 5176TIP3    H215493   4.987   2.389   2.020
 5177TIP3   OH215494   4.180   5.781   0.075
 5177TIP3    H115495   4.242   5.732   0.021
 5177TIP3    H215496   4.231   5.855   0.108
 5178TIP3   OH215497   3.192   3.063   1.986
 5178TIP3    H115498   3.249   3.043   2.061
 5178TIP3    H215499   3.230   3.013   1.914
 5179TIP3   OH215500   5.589   3.233   4.795
 5179TIP3    H115501   5.623   3.234   4.706
 5179TIP3    H215502   5.494   3.242   4.785
 5180TIP3   OH215503   6.382   3.618   1.830
 5180TIP3    H115504   6.374   3.656   1.742
 5180TIP3    H215505   6.391   3.692   1.889
 5181TIP3   OH215506   4.251   2.024   0.629
 5181TIP3    H115507   4.288   2.090   0.687
 5181TIP3    H215508   4.304   1.946   0.644
 5182TIP3   OH215509   4.252   1.833   3.887
 5182TIP3    H115510   4.163   1.844   3.921
 5182TIP3    H215511   4.246   1.755   3.830
 5183TIP3   OH215512   0.438   4.430   4.877
 5183TIP3    H115513   0.357   4.481   4.869
 5183TIP3    H215514   0.472   4.426   4.788
 5184TIP3   OH215515   2.870   3.508   0.766
 5184TIP3    H115516   2.913   3.572   0.710
 5184TIP3    H215517   2.911   3.424   0.742
 5185TIP3   OH215518   3.343   5.856   4.272
 5185TIP3    H115519   3.387   5.780   4.233
 5185TIP3    H215520   3.343   5.839   4.366
 5186TIP3   OH215521   3.496   1.701   3.583
 5186TIP3    H115522   3.519   1.649   3.507
 5186TIP3    H215523   3.515   1.791   3.557
 5187TIP3   OH215524   1.293   5.457   4.289
 5187TIP3    H115525   1.235   5.479   4.217
 5187TIP3    H215526   1.377   5.436   4.248
 5188TIP3   OH215527   5.094   1.348   2.499
 5188TIP3    H115528   5.099   1.412   2.570
 5188TIP3    H215529   5.182   1.309   2.496
 5189TIP3   OH215530   4.908   2.515   3.503
 5189TIP3    H115531   4.960   2.533   3.582
 5189TIP3    H215532   4.974   2.499   3.435
 5190TIP3   OH215533   6.860   0.494   4.915
 5190TIP3    H115534   6.795   0.472   4.847
 5190TIP3    H215535   6.821   0.462   4.996
 5191TIP3   OH215536   2.065   0.187   1.485
 5191TIP3    H115537   2.020   0.248   1.543
 5191TIP3    H215538   2.135   0.239   1.446
 5192TIP3   OH215539   0.927   2.223   5.880
 5192TIP3    H115540   0.913   2.178   5.797
 5192TIP3    H215541   0.840   2.229   5.919
 5193TIP3   OH215542   3.748   6.020   0.252
 5193TIP3    H115543   3.766   6.055   0.339
 5193TIP3    H215544   3.717   6.095   0.201
 5194TIP3   OH215545   1.855   5.330   0.241
 5194TIP3    H115546   1.835   5.414   0.283
 5194TIP3    H215547   1.905   5.354   0.163
 5195TIP3   OH215548   0.792   2.745   2.391
 5195TIP3    H115549   0.836   2.819   2.349
 5195TIP3    H215550   0.707   2.779   2.417
 5196TIP3   OH215551   5.642   6.646   0.721
 5196TIP3    H115552   5.711   6.696   0.765
 5196TIP3    H215553   5.622   6.574   0.781
 5197TIP3   OH215554   6.037   0.536   2.657
 5197TIP3    H115555   6.111   0.477   2.670
 5197TIP3    H215556   6.042   0.559   2.564
 5198TIP3   OH215557   4.733   2.218   2.752
 5198TIP3    H115558   4.679   2.139   2.760
 5198TIP3    H215559   4.698   2.263   2.676
 5199TIP3   OH215560   0.798   2.301   5.011
 5199TIP3    H115561   0.792   2.388   5.051
 5199TIP3    H215562   0.886   2.271   5.034
 5200TIP3   OH215563   4.194   1.996   4.621
 5200TIP3    H115564   4.280   1.995   4.665
 5200TIP3    H215565   4.213   1.974   4.530
 5201TIP3   OH215566   3.048   6.355   4.409
 5201TIP3    H115567   3.087   6.302   4.339
 5201TIP3    H215568   2.993   6.294   4.457
 5202TIP3   OH215569   3.581   3.090   5.673
 5202TIP3    H115570   3.504   3.084   5.616
 5202TIP3    H215571   3.655   3.090   5.613
 5203TIP3   OH215572   1.937   4.561   2.977
 5203TIP3    H115573   1.938   4.490   3.041
 5203TIP3    H215574   2.030   4.581   2.963
 5204TIP3   OH215575   5.704   2.884   3.982
 5204TIP3    H115576   5.749   2.915   3.903
 5204TIP3    H215577   5.757   2.810   4.012
 5205TIP3   OH215578   4.514   5.595   4.846
 5205TIP3    H115579   4.583   5.660   4.839
 5205TIP3    H215580   4.557   5.512   4.824
 5206TIP3   OH215581   1.402   6.217   0.454
 5206TIP3    H115582   1.359   6.261   0.381
 5206TIP3    H215583   1.330   6.188   0.511
 5207TIP3   OH215584   3.367   3.441   2.473
 5207TIP3    H115585   3.315   3.363   2.493
 5207TIP3    H215586   3.331   3.509   2.529
 5208TIP3   OH215587   3.044   5.543   5.488
 5208TIP3    H115588   3.042   5.536   5.393
 5208TIP3    H215589   3.011   5.631   5.507
 5209TIP3   OH215590   4.861   0.846   5.628
 5209TIP3    H115591   4.870   0.941   5.626
 5209TIP3    H215592   4.768   0.830   5.616
 5210TIP3   OH215593   0.933   5.423   4.418
 5210TIP3    H115594   0.878   5.346   4.433
 5210TIP3    H215595   1.022   5.391   4.431
 5211TIP3   OH215596   1.289   2.376   0.198
 5211TIP3    H115597   1.312   2.320   0.272
 5211TIP3    H215598   1.232   2.443   0.235
 5212TIP3   OH215599   4.104   4.272   2.914
 5212TIP3    H115600   4.165   4.203   2.887
 5212TIP3    H215601   4.061   4.299   2.832
 5213TIP3   OH215602   6.994   0.651   2.323
 5213TIP3    H115603   7.078   0.627   2.363
 5213TIP3    H215604   6.962   0.569   2.284
 5214TIP3   OH215605   4.205   4.131   1.290
 5214TIP3    H115606   4.268   4.187   1.335
 5214TIP3    H215607   4.197   4.169   1.203
 5215TIP3   OH215608   3.178   2.271   5.717
 5215TIP3    H115609   3.099   2.311   5.682
 5215TIP3    H215610   3.162   2.176   5.709
 5216TIP3   OH215611   5.166   4.976   3.384
 5216TIP3    H115612   5.232   5.026   3.335
 5216TIP3    H215613   5.093   4.968   3.323
 5217TIP3   OH215614   0.475   3.488   2.944
 5217TIP3    H115615   0.473   3.393   2.951
 5217TIP3    H215616   0.541   3.506   2.877
 5218TIP3   OH215617   1.269   2.987   2.193
 5218TIP3    H115618   1.311   2.927   2.253
 5218TIP3    H215619   1.340   3.018   2.136
 5219TIP3   OH215620   3.846   3.877   2.485
 5219TIP3    H115621   3.809   3.917   2.406
 5219TIP3    H215622   3.917   3.936   2.510
 5220TIP3   OH215623   0.042   4.683   4.687
 5220TIP3    H115624   0.023   4.776   4.670
 5220TIP3    H215625   0.013   4.637   4.608
 5221TIP3   OH215626   4.334   0.565   3.122
 5221TIP3    H115627   4.249   0.573   3.080
 5221TIP3    H215628   4.393   0.537   3.053
 5222TIP3   OH215629   2.655   1.935   5.066
 5222TIP3    H115630   2.606   2.003   5.020
 5222TIP3    H215631   2.640   1.952   5.159
 5223TIP3   OH215632   0.906   4.506   3.777
 5223TIP3    H115633   0.988   4.458   3.771
 5223TIP3    H215634   0.839   4.443   3.751
 5224TIP3   OH215635   0.794   3.231   4.134
 5224TIP3    H115636   0.732   3.264   4.069
 5224TIP3    H215637   0.855   3.178   4.083
 5225TIP3   OH215638   2.820   6.794   4.449
 5225TIP3    H115639   2.872   6.726   4.493
 5225TIP3    H215640   2.862   6.805   4.364
 5226TIP3   OH215641   2.392   4.333   5.378
 5226TIP3    H115642   2.352   4.380   5.305
 5226TIP3    H215643   2.486   4.335   5.360
 5227TIP3   OH215644   3.233   1.176   1.516
 5227TIP3    H115645   3.206   1.192   1.606
 5227TIP3    H215646   3.178   1.234   1.464
 5228TIP3   OH215647   4.090   1.873   1.300
 5228TIP3    H115648   4.036   1.893   1.377
 5228TIP3    H215649   4.081   1.779   1.288
 5229TIP3   OH215650   1.560   0.366   1.681
 5229TIP3    H115651   1.579   0.385   1.589
 5229TIP3    H215652   1.574   0.272   1.690
 5230TIP3   OH215653   6.779   6.101   0.624
 5230TIP3    H115654   6.828   6.181   0.640
 5230TIP3    H215655   6.835   6.049   0.567
 5231TIP3   OH215656   6.975   0.857   3.650
 5231TIP3    H115657   6.889   0.838   3.687
 5231TIP3    H215658   7.033   0.794   3.692
 5232TIP3   OH215659   0.882   5.784   2.643
 5232TIP3    H115660   0.938   5.744   2.575
 5232TIP3    H215661   0.885   5.878   2.625
 5233TIP3   OH215662   1.782   1.533   1.305
 5233TIP3    H115663   1.747   1.477   1.374
 5233TIP3    H215664   1.839   1.595   1.351
 5234TIP3   OH215665   5.927   6.553   0.107
 5234TIP3    H115666   5.882   6.582   0.028
 5234TIP3    H215667   5.958   6.634   0.148
 5235TIP3   OH215668   4.184   3.191   4.920
 5235TIP3    H115669   4.260   3.196   4.979
 5235TIP3    H215670   4.200   3.260   4.855
 5236TIP3   OH215671   7.184   1.951   4.767
 5236TIP3    H115672   7.272   1.916   4.781
 5236TIP3    H215673   7.183   2.035   4.813
 5237TIP3   OH215674   7.084   3.559   5.797
 5237TIP3    H115675   7.086   3.463   5.789
 5237TIP3    H215676   7.100   3.590   5.708
 5238TIP3   OH215677   7.146   4.978   2.481
 5238TIP3    H115678   7.074   5.041   2.484
 5238TIP3    H215679   7.171   4.975   2.389
 5239TIP3   OH215680   1.727   2.062   0.874
 5239TIP3    H115681   1.813   2.056   0.830
 5239TIP3    H215682   1.728   1.990   0.937
 5240TIP3   OH215683   5.898   4.744   2.325
 5240TIP3    H115684   5.868   4.794   2.401
 5240TIP3    H215685   5.834   4.674   2.315
 5241TIP3   OH215686   5.018   1.841   0.744
 5241TIP3    H115687   4.995   1.757   0.784
 5241TIP3    H215688   5.113   1.849   0.757
 5242TIP3   OH215689   2.953   2.876   0.528
 5242TIP3    H115690   2.879   2.876   0.587
 5242TIP3    H215691   2.944   2.956   0.477
 5243TIP3   OH215692   6.495   1.638   2.008
 5243TIP3    H115693   6.419   1.586   1.980
 5243TIP3    H215694   6.505   1.704   1.939
 5244TIP3   OH215695   2.030   0.593   1.552
 5244TIP3    H115696   2.112   0.640   1.536
 5244TIP3    H215697   1.976   0.656   1.601
 5245TIP3   OH215698   4.356   5.762   3.066
 5245TIP3    H115699   4.287   5.718   3.115
 5245TIP3    H215700   4.415   5.796   3.133
 5246TIP3   OH215701   6.569   5.035   0.136
 5246TIP3    H115702   6.640   5.042   0.073
 5246TIP3    H215703   6.492   5.012   0.084
 5247TIP3   OH215704   5.345   1.572   5.489
 5247TIP3    H115705   5.415   1.550   5.550
 5247TIP3    H215706   5.305   1.651   5.526
 5248TIP3   OH215707   1.819   5.517   4.160
 5248TIP3    H115708   1.895   5.511   4.217
 5248TIP3    H215709   1.746   5.536   4.219
 5249TIP3   OH215710   4.690   3.181   4.760
 5249TIP3    H115711   4.740   3.260   4.741
 5249TIP3    H215712   4.751   3.109   4.744
 5250TIP3   OH215713   5.524   1.635   1.533
 5250TIP3    H115714   5.446   1.687   1.550
 5250TIP3    H215715   5.508   1.552   1.578
 5251TIP3   OH215716   3.728   5.501   2.348
 5251TIP3    H115717   3.753   5.415   2.380
 5251TIP3    H215718   3.668   5.483   2.275
 5252TIP3   OH215719   0.326   4.763   1.122
 5252TIP3    H115720   0.341   4.759   1.216
 5252TIP3    H215721   0.231   4.778   1.114
 5253TIP3   OH215722   6.394   1.045   1.242
 5253TIP3    H115723   6.355   0.987   1.306
 5253TIP3    H215724   6.368   1.133   1.270
 5254TIP3   OH215725   3.066   0.194   4.748
 5254TIP3    H115726   3.012   0.230   4.678
 5254TIP3    H215727   3.073   0.101   4.727
 5255TIP3   OH215728   2.815   2.469   2.856
 5255TIP3    H115729   2.729   2.463   2.899
 5255TIP3    H215730   2.795   2.460   2.763
 5256TIP3   OH215731   2.755   6.106   1.964
 5256TIP3    H115732   2.794   6.019   1.969
 5256TIP3    H215733   2.705   6.105   1.883
 5257TIP3   OH215734   5.387   4.055   2.057
 5257TIP3    H115735   5.293   4.075   2.054
 5257TIP3    H215736   5.414   4.053   1.965
 5258TIP3   OH215737   6.011   4.908   2.089
 5258TIP3    H115738   6.071   4.983   2.088
 5258TIP3    H215739   6.038   4.857   2.165
 5259TIP3   OH215740   3.081   2.724   3.658
 5259TIP3    H115741   3.142   2.698   3.588
 5259TIP3    H215742   3.072   2.819   3.648
 5260TIP3   OH215743   2.291   3.166   0.587
 5260TIP3    H115744   2.352   3.107   0.631
 5260TIP3    H215745   2.266   3.121   0.507
 5261TIP3   OH215746   0.826   5.708   4.612
 5261TIP3    H115747   0.763   5.709   4.541
 5261TIP3    H215748   0.774   5.696   4.691
 5262TIP3   OH215749   3.673   2.317   0.024
 5262TIP3    H115750   3.606   2.315   0.093
 5262TIP3    H215751   3.712   2.404   0.031
 5263TIP3   OH215752   5.090   2.742   0.908
 5263TIP3    H115753   5.028   2.752   0.836
 5263TIP3    H215754   5.164   2.798   0.884
 5264TIP3   OH215755   6.396   4.051   4.681
 5264TIP3    H115756   6.472   4.061   4.738
 5264TIP3    H215757   6.407   3.964   4.641
 5265TIP3   OH215758   6.408   4.820   3.952
 5265TIP3    H115759   6.377   4.892   4.007
 5265TIP3    H215760   6.503   4.821   3.963
 5266TIP3   OH215761   1.836   3.606   4.442
 5266TIP3    H115762   1.878   3.689   4.464
 5266TIP3    H215763   1.749   3.631   4.411
 5267TIP3   OH215764   1.833   6.790   0.918
 5267TIP3    H115765   1.922   6.802   0.884
 5267TIP3    H215766   1.844   6.729   0.991
 5268TIP3   OH215767   0.429   5.305   4.877
 5268TIP3    H115768   0.341   5.275   4.898
 5268TIP3    H215769   0.473   5.312   4.961
 5269TIP3   OH215770   0.779   2.300   3.881
 5269TIP3    H115771   0.731   2.303   3.798
 5269TIP3    H215772   0.841   2.372   3.875
 5270TIP3   OH215773   4.016   6.155   0.277
 5270TIP3    H115774   4.032   6.068   0.315
 5270TIP3    H215775   4.015   6.140   0.183
 5271TIP3   OH215776   3.056   5.770   2.324
 5271TIP3    H115777   3.035   5.676   2.328
 5271TIP3    H215778   2.972   5.814   2.336
 5272TIP3   OH215779   2.485   5.614   3.508
 5272TIP3    H115780   2.421   5.639   3.442
 5272TIP3    H215781   2.568   5.611   3.461
 5273TIP3   OH215782   6.323   1.257   2.877
 5273TIP3    H115783   6.238   1.237   2.915
 5273TIP3    H215784   6.305   1.324   2.810
 5274TIP3   OH215785   3.441   5.527   4.029
 5274TIP3    H115786   3.410   5.476   4.104
 5274TIP3    H215787   3.496   5.595   4.067
 5275TIP3   OH215788   1.464   4.593   0.898
 5275TIP3    H115789   1.414   4.674   0.901
 5275TIP3    H215790   1.465   4.562   0.989
 5276TIP3   OH215791   1.754   5.835   2.190
 5276TIP3    H115792   1.711   5.816   2.106
 5276TIP3    H215793   1.794   5.753   2.216
 5277TIP3   OH215794   4.143   5.230   3.884
 5277TIP3    H115795   4.129   5.322   3.905
 5277TIP3    H215796   4.068   5.206   3.830
 5278TIP3   OH215797   2.930   3.231   2.296
 5278TIP3    H115798   2.899   3.305   2.348
 5278TIP3    H215799   3.023   3.224   2.316
 5279TIP3   OH215800   1.409   1.159   3.528
 5279TIP3    H115801   1.480   1.141   3.590
 5279TIP3    H215802   1.451   1.209   3.458
 5280TIP3   OH215803   1.143   1.496   1.683
 5280TIP3    H115804   1.068   1.437   1.686
 5280TIP3    H215805   1.158   1.521   1.774
 5281TIP3   OH215806   4.845   6.472   5.326
 5281TIP3    H115807   4.778   6.442   5.265
 5281TIP3    H215808   4.887   6.545   5.281
 5282TIP3   OH215809   6.193   4.428   1.661
 5282TIP3    H115810   6.216   4.456   1.573
 5282TIP3    H215811   6.193   4.332   1.657
 5283TIP3   OH215812   4.519   5.581   2.332
 5283TIP3    H115813   4.549   5.522   2.263
 5283TIP3    H215814   4.522   5.668   2.293
 5284TIP3   OH215815   3.704   5.706   0.760
 5284TIP3    H115816   3.713   5.725   0.666
 5284TIP3    H215817   3.678   5.789   0.799
 5285TIP3   OH215818   2.427   1.399   4.013
 5285TIP3    H115819   2.393   1.439   3.933
 5285TIP3    H215820   2.396   1.456   4.083
 5286TIP3   OH215821   3.481   4.237   1.500
 5286TIP3    H115822   3.408   4.263   1.444
 5286TIP3    H215823   3.449   4.159   1.545
 5287TIP3   OH215824   0.845   2.150   5.333
 5287TIP3    H115825   0.897   2.203   5.272
 5287TIP3    H215826   0.822   2.211   5.403
 5288TIP3   OH215827   1.278   5.315   3.175
 5288TIP3    H115828   1.352   5.363   3.211
 5288TIP3    H215829   1.259   5.360   3.092
 5289TIP3   OH215830   3.740   2.550   3.566
 5289TIP3    H115831   3.672   2.608   3.532
 5289TIP3    H215832   3.822   2.598   3.553
 5290TIP3   OH215833   2.057   4.413   1.319
 5290TIP3    H115834   2.099   4.497   1.338
 5290TIP3    H215835   2.114   4.371   1.254
 5291TIP3   OH215836   3.894   0.322   2.376
 5291TIP3    H115837   3.836   0.327   2.299
 5291TIP3    H215838   3.968   0.270   2.345
 5292TIP3   OH215839   1.828   4.108   5.017
 5292TIP3    H115840   1.814   4.021   4.981
 5292TIP3    H215841   1.912   4.136   4.980
 5293TIP3   OH215842   4.780   3.459   2.579
 5293TIP3    H115843   4.710   3.434   2.640
 5293TIP3    H215844   4.843   3.387   2.584
 5294TIP3   OH215845  -0.023   5.128   4.658
 5294TIP3    H115846   0.072   5.138   4.653
 5294TIP3    H215847  -0.043   5.052   4.604
 5295TIP3   OH215848   4.836   1.113   2.025
 5295TIP3    H115849   4.831   1.182   1.958
 5295TIP3    H215850   4.827   1.031   1.976
 5296TIP3   OH215851   3.210   1.209   0.507
 5296TIP3    H115852   3.198   1.114   0.505
 5296TIP3    H215853   3.220   1.234   0.415
 5297TIP3   OH215854   2.278   2.896   2.228
 5297TIP3    H115855   2.266   2.801   2.220
 5297TIP3    H215856   2.194   2.933   2.200
 5298TIP3   OH215857   2.863   1.228   3.807
 5298TIP3    H115858   2.776   1.189   3.814
 5298TIP3    H215859   2.846   1.321   3.795
 5299TIP3   OH215860   2.174   0.054   0.029
 5299TIP3    H115861   2.236  -0.008   0.068
 5299TIP3    H215862   2.090   0.008   0.030
 5300TIP3   OH215863   0.030   0.136   2.734
 5300TIP3    H115864   0.110   0.174   2.696
 5300TIP3    H215865   0.006   0.066   2.674
 5301TIP3   OH215866   0.712   4.891   5.317
 5301TIP3    H115867   0.789   4.911   5.370
 5301TIP3    H215868   0.721   4.948   5.240
 5302TIP3   OH215869   3.653   4.604   5.421
 5302TIP3    H115870   3.615   4.593   5.508
 5302TIP3    H215871   3.637   4.521   5.377
 5303TIP3   OH215872   5.040   3.550   2.717
 5303TIP3    H115873   4.949   3.577   2.728
 5303TIP3    H215874   5.039   3.455   2.731
 5304TIP3   OH215875   1.988   2.494   2.555
 5304TIP3    H115876   1.932   2.488   2.478
 5304TIP3    H215877   1.969   2.581   2.591
 5305TIP3   OH215878   3.428   1.892   4.865
 5305TIP3    H115879   3.365   1.951   4.908
 5305TIP3    H215880   3.387   1.805   4.871
 5306TIP3   OH215881   5.516   5.957   0.329
 5306TIP3    H115882   5.460   5.881   0.314
 5306TIP3    H215883   5.462   6.017   0.381
 5307TIP3   OH215884   4.868   4.496   1.682
 5307TIP3    H115885   4.877   4.570   1.742
 5307TIP3    H215886   4.786   4.513   1.635
 5308TIP3   OH215887   5.831   3.332   3.119
 5308TIP3    H115888   5.812   3.288   3.036
 5308TIP3    H215889   5.751   3.379   3.141
 5309TIP3   OH215890   2.750   2.641   5.043
 5309TIP3    H115891   2.751   2.681   4.956
 5309TIP3    H215892   2.667   2.671   5.082
 5310TIP3   OH215893   0.509   4.672   0.939
 5310TIP3    H115894   0.440   4.705   0.997
 5310TIP3    H215895   0.581   4.735   0.950
 5311TIP3   OH215896   2.440   3.024   5.607
 5311TIP3    H115897   2.391   2.946   5.581
 5311TIP3    H215898   2.377   3.095   5.603
 5312TIP3   OH215899   0.663   2.792   2.792
 5312TIP3    H115900   0.734   2.752   2.742
 5312TIP3    H215901   0.672   2.753   2.880
 5313TIP3   OH215902   0.218   5.232   4.065
 5313TIP3    H115903   0.268   5.307   4.035
 5313TIP3    H215904   0.216   5.241   4.161
 5314TIP3   OH215905   7.047   3.102   1.695
 5314TIP3    H115906   7.030   3.194   1.713
 5314TIP3    H215907   6.997   3.082   1.616
 5315TIP3   OH215908   2.837   0.684   4.772
 5315TIP3    H115909   2.924   0.666   4.735
 5315TIP3    H215910   2.788   0.720   4.698
 5316TIP3   OH215911   3.571   2.160   5.480
 5316TIP3    H115912   3.565   2.082   5.536
 5316TIP3    H215913   3.537   2.231   5.534
 5317TIP3   OH215914   5.123   5.730   2.211
 5317TIP3    H115915   5.134   5.652   2.265
 5317TIP3    H215916   5.029   5.734   2.192
 5318TIP3   OH215917   0.715   6.649   4.321
 5318TIP3    H115918   0.628   6.683   4.300
 5318TIP3    H215919   0.718   6.644   4.416
 5319TIP3   OH215920   3.760   2.913   3.385
 5319TIP3    H115921   3.771   2.867   3.468
 5319TIP3    H215922   3.836   2.971   3.379
 5320TIP3   OH215923   1.113   5.421   3.595
 5320TIP3    H115924   1.028   5.439   3.636
 5320TIP3    H215925   1.101   5.446   3.503
 5321TIP3   OH215926   2.646   4.394   3.630
 5321TIP3    H115927   2.717   4.405   3.693
 5321TIP3    H215928   2.567   4.412   3.682
 5322TIP3   OH215929   2.274   3.199   3.769
 5322TIP3    H115930   2.221   3.263   3.720
 5322TIP3    H215931   2.353   3.247   3.792
 5323TIP3   OH215932   1.908   5.083   3.265
 5323TIP3    H115933   1.904   5.179   3.258
 5323TIP3    H215934   1.923   5.067   3.359
 5324TIP3   OH215935   5.473   0.694   4.449
 5324TIP3    H115936   5.498   0.717   4.538
 5324TIP3    H215937   5.408   0.624   4.460
 5325TIP3   OH215938   6.159   5.506   2.592
 5325TIP3    H115939   6.098   5.577   2.614
 5325TIP3    H215940   6.143   5.440   2.659
 5326TIP3   OH215941   1.359   3.550   0.238
 5326TIP3    H115942   1.330   3.491   0.169
 5326TIP3    H215943   1.284   3.558   0.296
 5327TIP3   OH215944   5.599   4.737   1.837
 5327TIP3    H115945   5.614   4.829   1.813
 5327TIP3    H215946   5.504   4.732   1.851
 5328TIP3   OH215947   2.098   1.998   0.502
 5328TIP3    H115948   2.157   1.969   0.572
 5328TIP3    H215949   2.087   1.921   0.446
 5329TIP3   OH215950   4.661   5.601   0.605
 5329TIP3    H115951   4.595   5.533   0.622
 5329TIP3    H215952   4.628   5.678   0.651
 5330TIP3   OH215953   3.068   2.111   3.040
 5330TIP3    H115954   3.006   2.041   3.061
 5330TIP3    H215955   3.074   2.111   2.945
 5331TIP3   OH215956   5.452   6.480   2.934
 5331TIP3    H115957   5.469   6.475   3.028
 5331TIP3    H215958   5.419   6.569   2.920
 5332TIP3   OH215959   3.485   0.417   2.392
 5332TIP3    H115960   3.576   0.385   2.397
 5332TIP3    H215961   3.434   0.349   2.438
 5333TIP3   OH215962   0.861   5.872   3.342
 5333TIP3    H115963   0.778   5.824   3.347
 5333TIP3    H215964   0.867   5.900   3.250
 5334TIP3   OH215965   0.774   1.458   1.529
 5334TIP3    H115966   0.748   1.427   1.442
 5334TIP3    H215967   0.758   1.384   1.587
 5335TIP3   OH215968   4.863   6.000   1.964
 5335TIP3    H115969   4.886   6.083   1.923
 5335TIP3    H215970   4.917   5.995   2.043
 5336TIP3   OH215971   3.305   5.890   2.300
 5336TIP3    H115972   3.222   5.841   2.303
 5336TIP3    H215973   3.280   5.977   2.268
 5337TIP3   OH215974   6.966   0.878   5.782
 5337TIP3    H115975   7.010   0.954   5.819
 5337TIP3    H215976   7.021   0.804   5.807
 5338TIP3   OH215977   5.821   0.893   3.461
 5338TIP3    H115978   5.751   0.837   3.426
 5338TIP3    H215979   5.790   0.982   3.447
 5339TIP3   OH215980   4.520   4.553   4.047
 5339TIP3    H115981   4.525   4.566   4.142
 5339TIP3    H215982   4.530   4.458   4.035
 5340TIP3   OH215983   5.955   1.321   5.768
 5340TIP3    H115984   5.954   1.357   5.680
 5340TIP3    H215985   5.862   1.304   5.788
 5341TIP3   OH215986   0.512   6.244   2.010
 5341TIP3    H115987   0.450   6.282   2.073
 5341TIP3    H215988   0.579   6.310   1.999
 5342TIP3   OH215989   2.107   1.887   4.441
 5342TIP3    H115990   2.098   1.795   4.418
 5342TIP3    H215991   2.195   1.911   4.411
 5343TIP3   OH215992   5.241   2.422   4.197
 5343TIP3    H115993   5.324   2.419   4.245
 5343TIP3    H215994   5.234   2.513   4.166
 5344TIP3   OH215995   3.200   4.120   3.464
 5344TIP3    H115996   3.264   4.050   3.449
 5344TIP3    H215997   3.253   4.196   3.489
 5345TIP3   OH215998   0.883   2.348   2.627
 5345TIP3    H115999   0.832   2.331   2.707
 5345TIP3    H216000   0.883   2.443   2.618
 5346TIP3   OH216001   2.071   5.684   3.326
 5346TIP3    H116002   2.106   5.687   3.415
 5346TIP3    H216003   1.989   5.732   3.331
 5347TIP3   OH216004   5.903   2.646   2.414
 5347TIP3    H116005   5.978   2.594   2.386
 5347TIP3    H216006   5.836   2.581   2.436
 5348TIP3   OH216007   0.116   5.924   4.886
 5348TIP3    H116008   0.165   6.001   4.858
 5348TIP3    H216009   0.042   5.959   4.936
 5349TIP3   OH216010   6.590   2.868   3.840
 5349TIP3    H116011   6.644   2.816   3.899
 5349TIP3    H216012   6.604   2.829   3.753
 5350TIP3   OH216013   7.024   5.246   1.551
 5350TIP3    H116014   7.050   5.160   1.585
 5350TIP3    H216015   7.071   5.254   1.467
 5351TIP3   OH216016   0.947   1.767   4.603
 5351TIP3    H116017   0.940   1.809   4.689
 5351TIP3    H216018   0.897   1.686   4.612
 5352TIP3   OH216019   2.223   2.123   5.752
 5352TIP3    H116020   2.302   2.170   5.723
 5352TIP3    H216021   2.214   2.051   5.690
 5353TIP3   OH216022   5.989   5.499   0.560
 5353TIP3    H116023   6.015   5.561   0.492
 5353TIP3    H216024   5.902   5.528   0.588
 5354TIP3   OH216025   6.589   2.505   2.270
 5354TIP3    H116026   6.642   2.449   2.213
 5354TIP3    H216027   6.515   2.533   2.216
 5355TIP3   OH216028   1.689   0.867   4.159
 5355TIP3    H116029   1.639   0.917   4.094
 5355TIP3    H216030   1.659   0.777   4.147
 5356TIP3   OH216031   3.283   0.520   5.575
 5356TIP3    H116032   3.236   0.563   5.504
 5356TIP3    H216033   3.259   0.571   5.653
 5357TIP3   OH216034   4.109   3.943   2.942
 5357TIP3    H116035   4.031   3.912   2.990
 5357TIP3    H216036   4.074   3.986   2.864
 5358TIP3   OH216037   6.762   1.945   3.572
 5358TIP3    H116038   6.813   2.025   3.560
 5358TIP3    H216039   6.676   1.966   3.537
 5359TIP3   OH216040   7.183   3.727   1.878
 5359TIP3    H116041   7.207   3.685   1.960
 5359TIP3    H216042   7.127   3.663   1.834
 5360TIP3   OH216043   2.324   3.149   1.636
 5360TIP3    H116044   2.241   3.188   1.662
 5360TIP3    H216045   2.379   3.154   1.714
 5361TIP3   OH216046   4.953   5.375   0.757
 5361TIP3    H116047   4.954   5.351   0.850
 5361TIP3    H216048   4.966   5.293   0.711
 5362TIP3   OH216049   0.657   4.660   5.178
 5362TIP3    H116050   0.583   4.611   5.213
 5362TIP3    H216051   0.670   4.733   5.239
 5363TIP3   OH216052   6.356   2.976   0.666
 5363TIP3    H116053   6.377   2.891   0.704
 5363TIP3    H216054   6.431   3.032   0.687
 5364TIP3   OH216055   4.978   1.801   5.578
 5364TIP3    H116056   4.941   1.785   5.664
 5364TIP3    H216057   4.946   1.728   5.524
 5365TIP3   OH216058   1.550   4.380   4.704
 5365TIP3    H116059   1.482   4.321   4.672
 5365TIP3    H216060   1.632   4.332   4.689
 5366TIP3   OH216061   4.305   4.943   3.067
 5366TIP3    H116062   4.292   5.036   3.086
 5366TIP3    H216063   4.314   4.902   3.153
 5367TIP3   OH216064   3.976   3.487   4.070
 5367TIP3    H116065   4.032   3.417   4.102
 5367TIP3    H216066   3.920   3.445   4.005
 5368TIP3   OH216067   4.359   1.951   5.096
 5368TIP3    H116068   4.363   1.867   5.050
 5368TIP3    H216069   4.265   1.969   5.105
 5369TIP3   OH216070   4.835   5.945   5.456
 5369TIP3    H116071   4.784   5.901   5.523
 5369TIP3    H216072   4.892   6.005   5.504
 5370TIP3   OH216073   2.346   2.992   1.179
 5370TIP3    H116074   2.434   2.961   1.197
 5370TIP3    H216075   2.334   3.067   1.237
 5371TIP3   OH216076   4.489   5.828   5.372
 5371TIP3    H116077   4.445   5.889   5.432
 5371TIP3    H216078   4.548   5.777   5.429
 5372TIP3   OH216079   2.905   0.339   4.938
 5372TIP3    H116080   2.908   0.256   4.986
 5372TIP3    H216081   2.983   0.337   4.883
 5373TIP3   OH216082   4.364   4.634   1.031
 5373TIP3    H116083   4.427   4.615   0.961
 5373TIP3    H216084   4.356   4.729   1.031
 5374TIP3   OH216085   6.683   1.448   3.098
 5374TIP3    H116086   6.684   1.536   3.060
 5374TIP3    H216087   6.774   1.431   3.121
 5375TIP3   OH216088   5.796   2.105   4.249
 5375TIP3    H116089   5.767   2.116   4.158
 5375TIP3    H216090   5.838   2.018   4.250
 5376TIP3   OH216091   6.918   1.437   2.697
 5376TIP3    H116092   6.977   1.420   2.771
 5376TIP3    H216093   6.929   1.361   2.640
 5377TIP3   OH216094   0.329   2.302   3.331
 5377TIP3    H116095   0.410   2.348   3.351
 5377TIP3    H216096   0.346   2.211   3.356
 5378TIP3   OH216097   6.978   2.100   3.824
 5378TIP3    H116098   6.989   2.193   3.805
 5378TIP3    H216099   7.067   2.064   3.823
 5379TIP3   OH216100   6.947   4.984   3.636
 5379TIP3    H116101   6.853   4.963   3.631
 5379TIP3    H216102   6.983   4.917   3.694
 5380TIP3   OH216103   3.873   0.205   1.598
 5380TIP3    H116104   3.872   0.295   1.566
 5380TIP3    H216105   3.965   0.180   1.598
 5381TIP3   OH216106   6.341   2.785   1.809
 5381TIP3    H116107   6.372   2.694   1.814
 5381TIP3    H216108   6.253   2.778   1.773
 5382TIP3   OH216109   1.041   5.573   5.119
 5382TIP3    H116110   0.992   5.650   5.089
 5382TIP3    H216111   0.976   5.502   5.118
 5383TIP3   OH216112   1.180   5.440   2.950
 5383TIP3    H116113   1.247   5.478   2.893
 5383TIP3    H216114   1.115   5.404   2.890
 5384TIP3   OH216115   5.265   4.233   0.205
 5384TIP3    H116116   5.303   4.197   0.285
 5384TIP3    H216117   5.173   4.250   0.228
 5385TIP3   OH216118   4.375   3.876   0.979
 5385TIP3    H116119   4.424   3.807   0.934
 5385TIP3    H216120   4.407   3.957   0.939
 5386TIP3   OH216121   2.345   1.201   3.817
 5386TIP3    H116122   2.332   1.292   3.841
 5386TIP3    H216123   2.296   1.190   3.736
 5387TIP3   OH216124   5.257   6.522   0.359
 5387TIP3    H116125   5.179   6.468   0.342
 5387TIP3    H216126   5.249   6.548   0.450
 5388TIP3   OH216127   6.352   0.346   3.375
 5388TIP3    H116128   6.283   0.380   3.432
 5388TIP3    H216129   6.431   0.392   3.402
 5389TIP3   OH216130   6.388   2.346   4.164
 5389TIP3    H116131   6.421   2.268   4.119
 5389TIP3    H216132   6.348   2.312   4.244
 5390TIP3   OH216133   0.894   5.652   0.527
 5390TIP3    H116134   0.825   5.695   0.476
 5390TIP3    H216135   0.848   5.610   0.600
 5391TIP3   OH216136   6.276   6.175   3.651
 5391TIP3    H116137   6.222   6.113   3.700
 5391TIP3    H216138   6.340   6.120   3.606
 5392TIP3   OH216139   4.006   5.460   3.748
 5392TIP3    H116140   3.918   5.478   3.781
 5392TIP3    H216141   4.026   5.533   3.690
 5393TIP3   OH216142   3.326   1.445   2.788
 5393TIP3    H116143   3.381   1.434   2.866
 5393TIP3    H216144   3.242   1.408   2.813
 5394TIP3   OH216145   6.976   1.008   4.054
 5394TIP3    H116146   6.920   0.962   4.116
 5394TIP3    H216147   7.032   0.940   4.016
 5395TIP3   OH216148   0.937   3.406   5.256
 5395TIP3    H116149   0.913   3.486   5.303
 5395TIP3    H216150   0.903   3.418   5.167
 5396TIP3   OH216151   6.097   4.406   4.190
 5396TIP3    H116152   6.054   4.492   4.189
 5396TIP3    H216153   6.034   4.348   4.232
 5397TIP3   OH216154   5.113   3.039   1.692
 5397TIP3    H116155   5.089   2.964   1.747
 5397TIP3    H216156   5.202   3.061   1.718
 5398TIP3   OH216157   2.992   6.140   3.430
 5398TIP3    H116158   2.985   6.233   3.410
 5398TIP3    H216159   2.977   6.096   3.346
 5399TIP3   OH216160   3.707   6.614   4.812
 5399TIP3    H116161   3.786   6.645   4.766
 5399TIP3    H216162   3.645   6.686   4.803
 5400TIP3   OH216163   4.501   0.051   0.903
 5400TIP3    H116164   4.575   0.070   0.845
 5400TIP3    H216165   4.522   0.098   0.984
 5401TIP3   OH216166   0.997   6.156   4.013
 5401TIP3    H116167   1.071   6.125   4.065
 5401TIP3    H216168   0.926   6.095   4.032
 5402TIP3   OH216169   1.406   0.786   0.624
 5402TIP3    H116170   1.360   0.774   0.707
 5402TIP3    H216171   1.470   0.715   0.621
 5403TIP3   OH216172   1.211   3.888   5.076
 5403TIP3    H116173   1.273   3.857   5.142
 5403TIP3    H216174   1.241   3.977   5.055
 5404TIP3   OH216175   5.689   1.755   0.599
 5404TIP3    H116176   5.771   1.785   0.639
 5404TIP3    H216177   5.680   1.811   0.521
 5405TIP3   OH216178   5.134   0.747   0.852
 5405TIP3    H116179   5.217   0.795   0.850
 5405TIP3    H216180   5.160   0.655   0.848
 5406TIP3   OH216181   4.864   2.223   4.459
 5406TIP3    H116182   4.916   2.286   4.409
 5406TIP3    H216183   4.773   2.249   4.443
 5407TIP3   OH216184   1.947   0.626   5.206
 5407TIP3    H116185   1.888   0.700   5.216
 5407TIP3    H216186   1.980   0.609   5.295
 5408TIP3   OH216187   6.839   1.560   1.306
 5408TIP3    H116188   6.913   1.621   1.302
 5408TIP3    H216189   6.811   1.552   1.215
 5409TIP3   OH216190   3.470   2.372   5.590
 5409TIP3    H116191   3.471   2.437   5.661
 5409TIP3    H216192   3.389   2.389   5.543
 5410TIP3   OH216193   4.453   0.451   2.900
 5410TIP3    H116194   4.512   0.486   2.834
 5410TIP3    H216195   4.492   0.369   2.928
 5411TIP3   OH216196   1.603   6.774   2.922
 5411TIP3    H116197   1.638   6.779   3.011
 5411TIP3    H216198   1.567   6.861   2.905
 5412TIP3   OH216199   1.325   2.191   2.554
 5412TIP3    H116200   1.418   2.212   2.540
 5412TIP3    H216201   1.277   2.258   2.506
 5413TIP3   OH216202   3.022   5.124   2.986
 5413TIP3    H116203   3.030   5.167   2.901
 5413TIP3    H216204   3.111   5.121   3.020
 5414TIP3   OH216205   2.710   2.870   1.917
 5414TIP3    H116206   2.644   2.936   1.897
 5414TIP3    H216207   2.751   2.901   1.998
 5415TIP3   OH216208   3.737   6.802   5.070
 5415TIP3    H116209   3.671   6.733   5.062
 5415TIP3    H216210   3.736   6.847   4.985
 5416TIP3   OH216211   6.384   4.256   3.716
 5416TIP3    H116212   6.326   4.191   3.756
 5416TIP3    H216213   6.396   4.323   3.784
 5417TIP3   OH216214   7.215   4.965   2.820
 5417TIP3    H116215   7.195   4.900   2.887
 5417TIP3    H216216   7.157   5.038   2.839
 5418TIP3   OH216217   0.801   1.748   1.231
 5418TIP3    H116218   0.726   1.705   1.272
 5418TIP3    H216219   0.790   1.732   1.137
 5419TIP3   OH216220   5.124   5.870   4.524
 5419TIP3    H116221   5.212   5.894   4.553
 5419TIP3    H216222   5.070   5.876   4.603
 5420TIP3   OH216223   4.283   4.087   3.101
 5420TIP3    H116224   4.213   4.043   3.051
 5420TIP3    H216225   4.344   4.117   3.034
 5421TIP3   OH216226   0.743   4.454   4.136
 5421TIP3    H116227   0.679   4.395   4.096
 5421TIP3    H216228   0.762   4.518   4.068
 5422TIP3   OH216229   0.537   0.186   3.238
 5422TIP3    H116230   0.514   0.094   3.252
 5422TIP3    H216231   0.456   0.225   3.203
 5423TIP3   OH216232   2.964   6.421   4.878
 5423TIP3    H116233   3.026   6.360   4.839
 5423TIP3    H216234   2.879   6.378   4.867
 5424TIP3   OH216235   3.468   2.115   1.620
 5424TIP3    H116236   3.488   2.200   1.579
 5424TIP3    H216237   3.408   2.073   1.559
 5425TIP3   OH216238   5.671   0.227   2.900
 5425TIP3    H116239   5.716   0.309   2.881
 5425TIP3    H216240   5.739   0.160   2.894
 5426TIP3   OH216241   5.436   3.515   0.893
 5426TIP3    H116242   5.346   3.549   0.889
 5426TIP3    H216243   5.433   3.436   0.838
 5427TIP3   OH216244   3.336   3.620   2.680
 5427TIP3    H116245   3.333   3.688   2.613
 5427TIP3    H216246   3.361   3.667   2.760
 5428TIP3   OH216247   7.165   5.927   5.374
 5428TIP3    H116248   7.115   5.905   5.295
 5428TIP3    H216249   7.099   5.956   5.437
 5429TIP3   OH216250   3.363   5.290   3.774
 5429TIP3    H116251   3.378   5.360   3.837
 5429TIP3    H216252   3.379   5.331   3.689
 5430TIP3   OH216253   5.729   0.357   1.837
 5430TIP3    H116254   5.783   0.370   1.759
 5430TIP3    H216255   5.783   0.387   1.910
 5431TIP3   OH216256   6.682   1.415   1.670
 5431TIP3    H116257   6.679   1.448   1.760
 5431TIP3    H216258   6.594   1.383   1.653
 5432TIP3   OH216259   4.922   4.378   3.558
 5432TIP3    H116260   5.006   4.387   3.603
 5432TIP3    H216261   4.903   4.467   3.526
 5433TIP3   OH216262   1.034   5.369   1.249
 5433TIP3    H116263   0.963   5.366   1.313
 5433TIP3    H216264   1.000   5.321   1.173
 5434TIP3   OH216265   2.238   4.678   1.858
 5434TIP3    H116266   2.209   4.608   1.800
 5434TIP3    H216267   2.214   4.759   1.812
 5435TIP3   OH216268   4.900   0.665   3.828
 5435TIP3    H116269   4.878   0.722   3.754
 5435TIP3    H216270   4.995   0.668   3.833
 5436TIP3   OH216271   2.035   0.912   0.391
 5436TIP3    H116272   1.999   0.926   0.304
 5436TIP3    H216273   2.103   0.978   0.400
 5437TIP3   OH216274   3.191   6.551   1.556
 5437TIP3    H116275   3.243   6.535   1.634
 5437TIP3    H216276   3.225   6.633   1.520
 5438TIP3   OH216277   6.669   0.149   1.489
 5438TIP3    H116278   6.695   0.195   1.568
 5438TIP3    H216279   6.596   0.093   1.516
 5439TIP3   OH216280   1.824   0.233   5.405
 5439TIP3    H116281   1.733   0.203   5.413
 5439TIP3    H216282   1.875   0.167   5.452
 5440TIP3   OH216283   4.651   1.242   4.012
 5440TIP3    H116284   4.693   1.328   4.017
 5440TIP3    H216285   4.570   1.252   4.061
 5441TIP3   OH216286   2.345   4.961   2.293
 5441TIP3    H116287   2.264   4.909   2.303
 5441TIP3    H216288   2.387   4.955   2.379
 5442TIP3   OH216289   6.991   0.193   3.738
 5442TIP3    H116290   6.927   0.175   3.806
 5442TIP3    H216291   6.987   0.117   3.680
 5443TIP3   OH216292   1.795   1.359   4.880
 5443TIP3    H116293   1.725   1.415   4.847
 5443TIP3    H216294   1.841   1.413   4.944
 5444TIP3   OH216295   3.053   3.649   1.638
 5444TIP3    H116296   3.058   3.559   1.670
 5444TIP3    H216297   3.088   3.703   1.709
 5445TIP3   OH216298   0.083   1.358   4.663
 5445TIP3    H116299   0.030   1.286   4.698
 5445TIP3    H216300   0.139   1.316   4.598
 5446TIP3   OH216301   6.154   6.794   4.939
 5446TIP3    H116302   6.084   6.842   4.896
 5446TIP3    H216303   6.109   6.721   4.982
 5447TIP3   OH216304   5.353   0.475   5.154
 5447TIP3    H116305   5.290   0.448   5.222
 5447TIP3    H216306   5.370   0.567   5.173
 5448TIP3   OH216307   2.822   2.202   0.965
 5448TIP3    H116308   2.890   2.145   0.929
 5448TIP3    H216309   2.861   2.238   1.044
 5449TIP3   OH216310   3.733   4.753   3.814
 5449TIP3    H116311   3.657   4.695   3.816
 5449TIP3    H216312   3.697   4.841   3.828
 5450TIP3   OH216313   0.836   2.822   0.005
 5450TIP3    H116314   0.758   2.867  -0.027
 5450TIP3    H216315   0.803   2.751   0.060
 5451TIP3   OH216316   5.220   5.942   3.188
 5451TIP3    H116317   5.199   5.963   3.279
 5451TIP3    H216318   5.212   6.025   3.142
 5452TIP3   OH216319   0.271   4.126   4.817
 5452TIP3    H116320   0.193   4.073   4.835
 5452TIP3    H216321   0.251   4.212   4.854
 5453TIP3   OH216322   5.131   0.107   0.957
 5453TIP3    H116323   5.227   0.106   0.964
 5453TIP3    H216324   5.110   0.195   0.925
 5454TIP3   OH216325   2.671   4.723   4.277
 5454TIP3    H116326   2.614   4.799   4.271
 5454TIP3    H216327   2.736   4.736   4.208
 5455TIP3   OH216328   1.726   1.583   4.310
 5455TIP3    H116329   1.785   1.508   4.308
 5455TIP3    H216330   1.647   1.553   4.266
 5456TIP3   OH216331   6.666   2.374   3.497
 5456TIP3    H116332   6.587   2.410   3.457
 5456TIP3    H216333   6.645   2.282   3.512
 5457TIP3   OH216334   4.839   4.584   2.665
 5457TIP3    H116335   4.834   4.535   2.747
 5457TIP3    H216336   4.912   4.544   2.618
 5458TIP3   OH216337   2.892   0.906   0.898
 5458TIP3    H116338   2.899   0.824   0.848
 5458TIP3    H216339   2.877   0.973   0.831
 5459TIP3   OH216340   4.608   0.791   4.815
 5459TIP3    H116341   4.570   0.874   4.787
 5459TIP3    H216342   4.548   0.757   4.882
 5460TIP3   OH216343   3.101   5.581   3.384
 5460TIP3    H116344   3.074   5.514   3.447
 5460TIP3    H216345   3.171   5.628   3.428
 5461TIP3   OH216346   1.192   4.861   5.689
 5461TIP3    H116347   1.223   4.869   5.599
 5461TIP3    H216348   1.129   4.789   5.687
 5462TIP3   OH216349   3.343   3.911   4.958
 5462TIP3    H116350   3.427   3.874   4.984
 5462TIP3    H216351   3.365   3.979   4.894
 5463TIP3   OH216352   3.219   4.819   3.791
 5463TIP3    H116353   3.198   4.907   3.821
 5463TIP3    H216354   3.152   4.763   3.830
 5464TIP3   OH216355   0.193   4.610   0.731
 5464TIP3    H116356   0.212   4.693   0.686
 5464TIP3    H216357   0.235   4.619   0.817
 5465TIP3   OH216358   3.324   5.226   5.793
 5465TIP3    H116359   3.237   5.248   5.826
 5465TIP3    H216360   3.340   5.291   5.724
 5466TIP3   OH216361   2.045   6.281   0.989
 5466TIP3    H116362   1.969   6.338   1.004
 5466TIP3    H216363   2.113   6.340   0.958
 5467TIP3   OH216364   6.378   5.129   2.116
 5467TIP3    H116365   6.341   5.113   2.030
 5467TIP3    H216366   6.302   5.128   2.175
 5468TIP3   OH216367   6.565   1.086   4.813
 5468TIP3    H116368   6.589   1.027   4.885
 5468TIP3    H216369   6.640   1.146   4.805
 5469TIP3   OH216370   4.084   4.505   0.692
 5469TIP3    H116371   4.153   4.496   0.757
 5469TIP3    H216372   4.042   4.588   0.713
 5470TIP3   OH216373   0.999   4.535   2.292
 5470TIP3    H116374   0.926   4.560   2.349
 5470TIP3    H216375   0.973   4.564   2.205
 5471TIP3   OH216376   1.983   6.356   5.396
 5471TIP3    H116377   1.892   6.334   5.417
 5471TIP3    H216378   2.035   6.303   5.457
 5472TIP3   OH216379   4.965   1.538   5.381
 5472TIP3    H116380   5.000   1.466   5.433
 5472TIP3    H216381   4.893   1.499   5.331
 5473TIP3   OH216382   2.413   0.803   0.376
 5473TIP3    H116383   2.363   0.884   0.386
 5473TIP3    H216384   2.489   0.828   0.325
 5474TIP3   OH216385   2.655   2.166   1.364
 5474TIP3    H116386   2.583   2.135   1.310
 5474TIP3    H216387   2.617   2.234   1.419
 5475TIP3   OH216388   0.656   2.676   1.840
 5475TIP3    H116389   0.713   2.723   1.779
 5475TIP3    H216390   0.569   2.711   1.824
 5476TIP3   OH216391   0.890   0.287   1.412
 5476TIP3    H116392   0.839   0.299   1.332
 5476TIP3    H216393   0.944   0.366   1.418
 5477TIP3   OH216394   4.837   3.433   4.694
 5477TIP3    H116395   4.777   3.478   4.634
 5477TIP3    H216396   4.825   3.478   4.778
 5478TIP3   OH216397   6.749   6.757   4.355
 5478TIP3    H116398   6.728   6.703   4.431
 5478TIP3    H216399   6.758   6.845   4.391
 5479TIP3   OH216400   2.407   0.088   4.165
 5479TIP3    H116401   2.323   0.096   4.121
 5479TIP3    H216402   2.471   0.115   4.099
 5480TIP3   OH216403   4.885   3.546   1.992
 5480TIP3    H116404   4.919   3.511   1.910
 5480TIP3    H216405   4.958   3.538   2.054
 5481TIP3   OH216406   4.429   1.135   1.544
 5481TIP3    H116407   4.420   1.190   1.466
 5481TIP3    H216408   4.340   1.109   1.566
 5482TIP3   OH216409   6.932   5.294   4.973
 5482TIP3    H116410   6.975   5.315   4.891
 5482TIP3    H216411   6.886   5.212   4.956
 5483TIP3   OH216412   4.942   0.021   3.906
 5483TIP3    H116413   4.890   0.043   3.829
 5483TIP3    H216414   5.002   0.094   3.917
 5484TIP3   OH216415   0.333   2.230   0.386
 5484TIP3    H116416   0.288   2.313   0.397
 5484TIP3    H216417   0.310   2.179   0.463
 5485TIP3   OH216418   3.541   0.779   2.769
 5485TIP3    H116419   3.558   0.784   2.675
 5485TIP3    H216420   3.449   0.803   2.779
 5486TIP3   OH216421   2.554   0.590   1.314
 5486TIP3    H116422   2.554   0.526   1.385
 5486TIP3    H216423   2.636   0.638   1.325
 5487TIP3   OH216424   4.293   0.344   3.740
 5487TIP3    H116425   4.344   0.286   3.797
 5487TIP3    H216426   4.231   0.285   3.696
 5488TIP3   OH216427   6.145   4.024   2.433
 5488TIP3    H116428   6.216   3.960   2.423
 5488TIP3    H216429   6.160   4.088   2.363
 5489TIP3   OH216430   1.460   2.282   1.198
 5489TIP3    H116431   1.516   2.293   1.121
 5489TIP3    H216432   1.507   2.328   1.267
 5490TIP3   OH216433   6.058   3.385   1.260
 5490TIP3    H116434   6.012   3.450   1.315
 5490TIP3    H216435   5.993   3.359   1.195
 5491TIP3   OH216436   1.974   0.025   1.682
 5491TIP3    H116437   2.008   0.073   1.607
 5491TIP3    H216438   2.013   0.069   1.758
 5492TIP3   OH216439   5.549   0.513   4.702
 5492TIP3    H116440   5.558   0.608   4.696
 5492TIP3    H216441   5.484   0.500   4.771
 5493TIP3   OH216442   2.582   5.902   0.634
 5493TIP3    H116443   2.623   5.958   0.701
 5493TIP3    H216444   2.636   5.823   0.633
 5494TIP3   OH216445   3.649   6.723   3.080
 5494TIP3    H116446   3.701   6.774   3.141
 5494TIP3    H216447   3.708   6.655   3.048
 5495TIP3   OH216448   5.684   2.727   5.807
 5495TIP3    H116449   5.687   2.697   5.898
 5495TIP3    H216450   5.641   2.813   5.811
 5496TIP3   OH216451   4.732   0.006   4.255
 5496TIP3    H116452   4.710  -0.052   4.328
 5496TIP3    H216453   4.785   0.075   4.293
 5497TIP3   OH216454   0.888   5.801   1.334
 5497TIP3    H116455   0.905   5.767   1.246
 5497TIP3    H216456   0.918   5.892   1.330
 5498TIP3   OH216457   3.169   6.563   5.398
 5498TIP3    H116458   3.256   6.581   5.365
 5498TIP3    H216459   3.110   6.592   5.328
 5499TIP3   OH216460   3.487   4.786   4.229
 5499TIP3    H116461   3.546   4.736   4.172
 5499TIP3    H216462   3.545   4.839   4.284
 5500TIP3   OH216463   5.211   3.979   0.547
 5500TIP3    H116464   5.173   4.007   0.463
 5500TIP3    H216465   5.205   4.056   0.603
 5501TIP3   OH216466   4.188   0.382   2.063
 5501TIP3    H116467   4.222   0.336   1.986
 5501TIP3    H216468   4.250   0.361   2.133
 5502TIP3   OH216469   0.243   4.377   0.564
 5502TIP3    H116470   0.276   4.314   0.629
 5502TIP3    H216471   0.272   4.462   0.597
 5503TIP3   OH216472   1.784   1.693   2.157
 5503TIP3    H116473   1.808   1.684   2.065
 5503TIP3    H216474   1.864   1.721   2.201
 5504TIP3   OH216475   7.214   3.157   2.150
 5504TIP3    H116476   7.182   3.081   2.102
 5504TIP3    H216477   7.219   3.227   2.084
 5505TIP3   OH216478   3.025   0.397   4.547
 5505TIP3    H116479   2.937   0.362   4.532
 5505TIP3    H216480   3.012   0.492   4.553
 5506TIP3   OH216481   2.030   4.585   0.140
 5506TIP3    H116482   2.083   4.652   0.184
 5506TIP3    H216483   2.066   4.582   0.051
 5507TIP3   OH216484   1.539   4.602   0.120
 5507TIP3    H116485   1.629   4.580   0.099
 5507TIP3    H216486   1.540   4.620   0.214
 5508TIP3   OH216487   6.023   5.721   0.836
 5508TIP3    H116488   5.968   5.730   0.757
 5508TIP3    H216489   6.111   5.742   0.807
 5509TIP3   OH216490   3.610   3.625   0.562
 5509TIP3    H116491   3.620   3.539   0.604
 5509TIP3    H216492   3.540   3.667   0.611
 5510TIP3   OH216493   3.465   6.473   3.841
 5510TIP3    H116494   3.424   6.496   3.758
 5510TIP3    H216495   3.418   6.525   3.906
 5511TIP3   OH216496   5.560   0.785   4.715
 5511TIP3    H116497   5.633   0.846   4.722
 5511TIP3    H216498   5.489   0.826   4.765
 5512TIP3   OH216499   1.887   4.396   5.622
 5512TIP3    H116500   1.852   4.451   5.693
 5512TIP3    H216501   1.872   4.306   5.652
 5513TIP3   OH216502   2.254   5.233   2.718
 5513TIP3    H116503   2.174   5.268   2.758
 5513TIP3    H216504   2.320   5.239   2.786
 5514TIP3   OH216505   5.326   6.234   0.705
 5514TIP3    H116506   5.243   6.272   0.678
 5514TIP3    H216507   5.307   6.141   0.720
 5515TIP3   OH216508   4.582   3.766   1.384
 5515TIP3    H116509   4.660   3.756   1.330
 5515TIP3    H216510   4.512   3.790   1.322
 5516TIP3   OH216511   6.932   0.984   5.041
 5516TIP3    H116512   7.020   1.000   5.005
 5516TIP3    H216513   6.948   0.938   5.123
 5517TIP3   OH216514   6.019   4.591   5.219
 5517TIP3    H116515   6.078   4.535   5.269
 5517TIP3    H216516   5.998   4.540   5.141
 5518TIP3   OH216517   4.413   2.805   2.065
 5518TIP3    H116518   4.318   2.817   2.061
 5518TIP3    H216519   4.447   2.854   1.990
 5519TIP3   OH216520   4.862   3.740   0.847
 5519TIP3    H116521   4.955   3.723   0.858
 5519TIP3    H216522   4.858   3.803   0.775
 5520TIP3   OH216523   2.516   1.554   2.951
 5520TIP3    H116524   2.511   1.602   2.868
 5520TIP3    H216525   2.427   1.556   2.985
 5521TIP3   OH216526   3.440   5.869   2.770
 5521TIP3    H116527   3.490   5.945   2.800
 5521TIP3    H216528   3.379   5.904   2.705
 5522TIP3   OH216529   5.383   0.254   5.541
 5522TIP3    H116530   5.351   0.170   5.506
 5522TIP3    H216531   5.304   0.307   5.553
 5523TIP3   OH216532   3.277   2.777   0.973
 5523TIP3    H116533   3.234   2.838   0.912
 5523TIP3    H216534   3.238   2.692   0.953
 5524TIP3   OH216535   5.453   2.880   5.047
 5524TIP3    H116536   5.519   2.943   5.018
 5524TIP3    H216537   5.403   2.927   5.114
 5525TIP3   OH216538   6.387   4.444   5.068
 5525TIP3    H116539   6.328   4.518   5.058
 5525TIP3    H216540   6.444   4.468   5.141
 5526TIP3   OH216541   5.645   0.504   0.861
 5526TIP3    H116542   5.576   0.487   0.925
 5526TIP3    H216543   5.685   0.418   0.845
 5527TIP3   OH216544   3.789   1.006   0.580
 5527TIP3    H116545   3.766   0.957   0.659
 5527TIP3    H216546   3.798   0.939   0.512
 5528TIP3   OH216547   0.959   0.448   2.355
 5528TIP3    H116548   0.903   0.491   2.419
 5528TIP3    H216549   0.934   0.356   2.357
 5529TIP3   OH216550   3.640   4.743   0.398
 5529TIP3    H116551   3.728   4.708   0.383
 5529TIP3    H216552   3.589   4.669   0.430
 5530TIP3   OH216553   2.033   4.299   3.732
 5530TIP3    H116554   1.972   4.336   3.796
 5530TIP3    H216555   2.032   4.205   3.749
 5531TIP3   OH216556   2.162   1.540   0.201
 5531TIP3    H116557   2.117   1.614   0.162
 5531TIP3    H216558   2.236   1.578   0.248
 5532TIP3   OH216559   3.636   4.592   4.083
 5532TIP3    H116560   3.608   4.574   3.994
 5532TIP3    H216561   3.678   4.511   4.113
 5533TIP3   OH216562   0.130   0.229   4.756
 5533TIP3    H116563   0.054   0.252   4.701
 5533TIP3    H216564   0.190   0.303   4.745
 5534TIP3   OH216565   4.156   4.542   2.653
 5534TIP3    H116566   4.093   4.505   2.714
 5534TIP3    H216567   4.208   4.467   2.623
 5535TIP3   OH216568   4.303   4.630   2.367
 5535TIP3    H116569   4.350   4.614   2.285
 5535TIP3    H216570   4.367   4.607   2.435
 5536TIP3   OH216571   2.377   2.458   1.906
 5536TIP3    H116572   2.396   2.410   1.986
 5536TIP3    H216573   2.336   2.394   1.848
 5537TIP3   OH216574   1.660   2.704   4.906
 5537TIP3    H116575   1.566   2.722   4.903
 5537TIP3    H216576   1.682   2.706   4.999
 5538TIP3   OH216577   3.923   5.318   5.463
 5538TIP3    H116578   3.878   5.285   5.541
 5538TIP3    H216579   3.870   5.287   5.390
 5539TIP3   OH216580   2.251   2.991   5.318
 5539TIP3    H116581   2.219   2.947   5.239
 5539TIP3    H216582   2.285   2.921   5.374
 5540TIP3   OH216583   1.126   4.612   4.411
 5540TIP3    H116584   1.129   4.521   4.440
 5540TIP3    H216585   1.075   4.657   4.478
 5541TIP3   OH216586   6.312   2.605   3.776
 5541TIP3    H116587   6.349   2.536   3.721
 5541TIP3    H216588   6.383   2.631   3.834
 5542TIP3   OH216589   1.749   1.390   0.195
 5542TIP3    H116590   1.751   1.398   0.290
 5542TIP3    H216591   1.656   1.392   0.172
 5543TIP3   OH216592   0.390   4.130   1.767
 5543TIP3    H116593   0.322   4.091   1.711
 5543TIP3    H216594   0.404   4.217   1.731
 5544TIP3   OH216595   1.276   2.603   4.036
 5544TIP3    H116596   1.324   2.612   3.954
 5544TIP3    H216597   1.296   2.515   4.067
 5545TIP3   OH216598   2.846   2.480   5.452
 5545TIP3    H116599   2.859   2.400   5.503
 5545TIP3    H216600   2.774   2.458   5.392
 5546TIP3   OH216601   3.597   3.902   5.277
 5546TIP3    H116602   3.669   3.934   5.331
 5546TIP3    H216603   3.559   3.830   5.327
 5547TIP3   OH216604   3.775   4.538   4.461
 5547TIP3    H116605   3.865   4.506   4.449
 5547TIP3    H216606   3.764   4.541   4.556
 5548TIP3   OH216607   2.972   3.460   5.385
 5548TIP3    H116608   3.035   3.404   5.340
 5548TIP3    H216609   2.976   3.434   5.477
 5549TIP3   OH216610   1.154   5.972   1.003
 5549TIP3    H116611   1.068   5.933   0.986
 5549TIP3    H216612   1.201   5.965   0.920
 5550TIP3   OH216613   4.913   3.741   4.598
 5550TIP3    H116614   4.929   3.836   4.604
 5550TIP3    H216615   4.987   3.702   4.645
 5551TIP3   OH216616   2.281   6.509   5.614
 5551TIP3    H116617   2.275   6.519   5.709
 5551TIP3    H216618   2.215   6.568   5.580
 5552TIP3   OH216619   3.122   5.078   2.393
 5552TIP3    H116620   3.046   5.064   2.337
 5552TIP3    H216621   3.090   5.059   2.481
 5553TIP3   OH216622   4.305   6.348   3.097
 5553TIP3    H116623   4.260   6.375   3.177
 5553TIP3    H216624   4.253   6.274   3.064
 5554TIP3   OH216625   0.922   5.358   0.341
 5554TIP3    H116626   0.931   5.407   0.260
 5554TIP3    H216627   0.829   5.339   0.348
 5555TIP3   OH216628   2.269   3.971   0.537
 5555TIP3    H116629   2.243   4.015   0.618
 5555TIP3    H216630   2.360   3.944   0.552
 5556TIP3   OH216631   2.016   2.501   3.276
 5556TIP3    H116632   1.946   2.564   3.296
 5556TIP3    H216633   1.999   2.427   3.334
 5557TIP3   OH216634   1.523   3.060   5.227
 5557TIP3    H116635   1.461   2.996   5.192
 5557TIP3    H216636   1.468   3.132   5.257
 5558TIP3   OH216637   2.656   4.811   1.436
 5558TIP3    H116638   2.741   4.768   1.446
 5558TIP3    H216639   2.658   4.884   1.498
 5559TIP3   OH216640   5.199   4.620   2.085
 5559TIP3    H116641   5.269   4.555   2.089
 5559TIP3    H216642   5.163   4.622   2.174
 5560TIP3   OH216643   1.530   6.706   1.433
 5560TIP3    H116644   1.601   6.754   1.475
 5560TIP3    H216645   1.518   6.751   1.349
 5561TIP3   OH216646   6.127   1.843   3.072
 5561TIP3    H116647   6.073   1.920   3.055
 5561TIP3    H216648   6.080   1.796   3.141
 5562TIP3   OH216649   2.459   3.767   1.040
 5562TIP3    H116650   2.374   3.723   1.038
 5562TIP3    H216651   2.521   3.700   1.012
 5563TIP3   OH216652   4.625   5.065   3.230
 5563TIP3    H116653   4.679   5.124   3.178
 5563TIP3    H216654   4.536   5.097   3.218
 5564TIP3   OH216655   4.445   3.803   0.119
 5564TIP3    H116656   4.353   3.785   0.102
 5564TIP3    H216657   4.492   3.726   0.088
 5565TIP3   OH216658   3.106   1.258   5.600
 5565TIP3    H116659   3.142   1.209   5.674
 5565TIP3    H216660   3.012   1.243   5.605
 5566TIP3   OH216661   0.611   4.423   0.995
 5566TIP3    H116662   0.572   4.362   0.932
 5566TIP3    H216663   0.573   4.508   0.972
 5567TIP3   OH216664   3.253   6.207   3.965
 5567TIP3    H116665   3.175   6.260   3.946
 5567TIP3    H216666   3.223   6.117   3.959
 5568TIP3   OH216667   6.822   3.441   4.450
 5568TIP3    H116668   6.778   3.358   4.469
 5568TIP3    H216669   6.910   3.432   4.486
 5569TIP3   OH216670   7.073   3.005   5.479
 5569TIP3    H116671   7.149   2.946   5.485
 5569TIP3    H216672   7.110   3.093   5.488
 5570TIP3   OH216673   4.247   4.977   1.588
 5570TIP3    H116674   4.178   4.936   1.639
 5570TIP3    H216675   4.210   4.986   1.500
 5571TIP3   OH216676   1.508   1.825   2.193
 5571TIP3    H116677   1.566   1.757   2.158
 5571TIP3    H216678   1.429   1.819   2.140
 5572TIP3   OH216679   6.466   3.990   2.394
 5572TIP3    H116680   6.469   3.937   2.314
 5572TIP3    H216681   6.500   3.933   2.463
 5573TIP3   OH216682   2.064   5.180   0.129
 5573TIP3    H116683   2.020   5.158   0.211
 5573TIP3    H216684   1.993   5.193   0.066
 5574TIP3   OH216685   4.550   4.878   5.494
 5574TIP3    H116686   4.512   4.903   5.578
 5574TIP3    H216687   4.589   4.959   5.460
 5575TIP3   OH216688   3.708   0.959   5.739
 5575TIP3    H116689   3.706   1.027   5.671
 5575TIP3    H216690   3.630   0.977   5.792
 5576TIP3   OH216691   1.901   5.373   2.519
 5576TIP3    H116692   1.860   5.411   2.442
 5576TIP3    H216693   1.989   5.412   2.521
 5577TIP3   OH216694   2.990   3.984   0.398
 5577TIP3    H116695   3.084   3.998   0.395
 5577TIP3    H216696   2.979   3.891   0.381
 5578TIP3   OH216697   2.172   0.391   4.095
 5578TIP3    H116698   2.121   0.428   4.023
 5578TIP3    H216699   2.167   0.296   4.082
 5579TIP3   OH216700   3.309   4.423   2.888
 5579TIP3    H116701   3.397   4.461   2.890
 5579TIP3    H216702   3.261   4.471   2.955
 5580TIP3   OH216703   5.457   2.581   5.655
 5580TIP3    H116704   5.432   2.673   5.643
 5580TIP3    H216705   5.551   2.583   5.674
 5581TIP3   OH216706   7.048   3.031   4.820
 5581TIP3    H116707   7.064   3.030   4.726
 5581TIP3    H216708   7.069   2.942   4.849
 5582TIP3   OH216709   5.317   3.857   5.569
 5582TIP3    H116710   5.273   3.816   5.643
 5582TIP3    H216711   5.401   3.886   5.604
 5583TIP3   OH216712   1.544   6.181   5.244
 5583TIP3    H116713   1.519   6.156   5.333
 5583TIP3    H216714   1.462   6.210   5.203
 5584TIP3   OH216715   1.313   2.409   3.369
 5584TIP3    H116716   1.324   2.493   3.325
 5584TIP3    H216717   1.343   2.425   3.459
 5585TIP3   OH216718   0.905   5.206   4.178
 5585TIP3    H116719   0.895   5.277   4.241
 5585TIP3    H216720   0.850   5.231   4.104
 5586TIP3   OH216721   3.630   4.162   4.230
 5586TIP3    H116722   3.628   4.257   4.235
 5586TIP3    H216723   3.601   4.133   4.317
 5587TIP3   OH216724   7.184   1.021   4.963
 5587TIP3    H116725   7.272   1.041   4.933
 5587TIP3    H216726   7.165   1.089   5.028
 5588TIP3   OH216727   4.309   1.044   2.230
 5588TIP3    H116728   4.305   0.976   2.163
 5588TIP3    H216729   4.219   1.053   2.260
 5589TIP3   OH216730   7.226   4.530   1.208
 5589TIP3    H116731   7.253   4.611   1.165
 5589TIP3    H216732   7.154   4.556   1.266
 5590TIP3   OH216733   4.239   5.476   4.735
 5590TIP3    H116734   4.297   5.506   4.664
 5590TIP3    H216735   4.256   5.382   4.741
 5591TIP3   OH216736   2.308   4.512   2.153
 5591TIP3    H116737   2.292   4.418   2.143
 5591TIP3    H216738   2.223   4.552   2.134
 5592TIP3   OH216739   5.558   1.052   2.372
 5592TIP3    H116740   5.653   1.053   2.362
 5592TIP3    H216741   5.526   1.018   2.288
 5593TIP3   OH216742   4.324   3.283   2.563
 5593TIP3    H116743   4.320   3.214   2.497
 5593TIP3    H216744   4.366   3.357   2.518
 5594TIP3   OH216745   5.362   1.874   1.044
 5594TIP3    H116746   5.432   1.833   1.094
 5594TIP3    H216747   5.334   1.948   1.098
 5595TIP3   OH216748   5.013   3.225   4.700
 5595TIP3    H116749   4.966   3.308   4.692
 5595TIP3    H216750   4.997   3.181   4.616
 5596TIP3   OH216751   0.130   3.127   0.477
 5596TIP3    H116752   0.200   3.066   0.452
 5596TIP3    H216753   0.140   3.139   0.571
 5597TIP3   OH216754   0.061   4.192   3.807
 5597TIP3    H116755  -0.027   4.162   3.784
 5597TIP3    H216756   0.078   4.156   3.894
 5598TIP3   OH216757   0.245   3.601   1.235
 5598TIP3    H116758   0.194   3.628   1.159
 5598TIP3    H216759   0.228   3.668   1.301
 5599TIP3   OH216760   5.223   6.601   5.037
 5599TIP3    H116761   5.243   6.525   5.092
 5599TIP3    H216762   5.283   6.669   5.068
 5600TIP3   OH216763   2.635   5.494   3.754
 5600TIP3    H116764   2.600   5.518   3.668
 5600TIP3    H216765   2.561   5.508   3.814
 5601TIP3   OH216766   1.616   4.781   1.878
 5601TIP3    H116767   1.625   4.718   1.806
 5601TIP3    H216768   1.655   4.737   1.953
 5602TIP3   OH216769   1.361   5.252   5.415
 5602TIP3    H116770   1.314   5.321   5.367
 5602TIP3    H216771   1.332   5.263   5.506
 5603TIP3   OH216772   3.842   5.681   3.133
 5603TIP3    H116773   3.824   5.711   3.044
 5603TIP3    H216774   3.794   5.598   3.140
 5604TIP3   OH216775   1.661   5.145   3.075
 5604TIP3    H116776   1.712   5.116   2.999
 5604TIP3    H216777   1.644   5.064   3.124
 5605TIP3   OH216778   6.113   6.632   3.317
 5605TIP3    H116779   6.177   6.681   3.265
 5605TIP3    H216780   6.048   6.603   3.254
 5606TIP3   OH216781   4.418   2.196   4.684
 5606TIP3    H116782   4.335   2.212   4.639
 5606TIP3    H216783   4.484   2.235   4.627
 5607TIP3   OH216784   6.391   3.765   4.627
 5607TIP3    H116785   6.317   3.760   4.687
 5607TIP3    H216786   6.377   3.693   4.566
 5608TIP3   OH216787   3.164   1.069   2.657
 5608TIP3    H116788   3.101   1.049   2.726
 5608TIP3    H216789   3.123   1.139   2.606
 5609TIP3   OH216790   5.334   1.522   3.257
 5609TIP3    H116791   5.319   1.564   3.172
 5609TIP3    H216792   5.394   1.450   3.237
 5610TIP3   OH216793   5.473   2.708   1.932
 5610TIP3    H116794   5.545   2.698   1.995
 5610TIP3    H216795   5.407   2.758   1.980
 5611TIP3   OH216796   6.973   2.126   3.459
 5611TIP3    H116797   6.979   2.192   3.528
 5611TIP3    H216798   7.042   2.149   3.397
 5612TIP3   OH216799   3.160   5.720   5.225
 5612TIP3    H116800   3.176   5.760   5.139
 5612TIP3    H216801   3.092   5.655   5.208
 5613TIP3   OH216802   5.224   5.251   1.389
 5613TIP3    H116803   5.134   5.229   1.366
 5613TIP3    H216804   5.266   5.167   1.405
 5614TIP3   OH216805   2.919   2.672   0.114
 5614TIP3    H116806   2.861   2.610   0.069
 5614TIP3    H216807   2.867   2.707   0.185
 5615TIP3   OH216808   3.779   6.006   0.699
 5615TIP3    H116809   3.713   6.022   0.631
 5615TIP3    H216810   3.729   5.994   0.779
 5616TIP3   OH216811   7.069   1.804   0.359
 5616TIP3    H116812   7.154   1.844   0.337
 5616TIP3    H216813   7.020   1.807   0.277
 5617TIP3   OH216814   2.823   6.453   0.876
 5617TIP3    H116815   2.800   6.487   0.962
 5617TIP3    H216816   2.833   6.359   0.889
 5618TIP3   OH216817   0.502   6.050   1.019
 5618TIP3    H116818   0.421   6.083   0.982
 5618TIP3    H216819   0.549   6.128   1.048
 5619TIP3   OH216820   0.641   0.212   0.197
 5619TIP3    H116821   0.591   0.130   0.190
 5619TIP3    H216822   0.730   0.187   0.172
 5620TIP3   OH216823   6.894  -0.017   1.444
 5620TIP3    H116824   6.940   0.018   1.368
 5620TIP3    H216825   6.816   0.039   1.452
 5621TIP3   OH216826   0.914   0.180   5.037
 5621TIP3    H116827   0.878   0.091   5.046
 5621TIP3    H216828   0.870   0.230   5.106
 5622TIP3   OH216829   0.409   1.065   3.204
 5622TIP3    H116830   0.342   0.998   3.190
 5622TIP3    H216831   0.359   1.143   3.231
 5623TIP3   OH216832   5.284   1.369   1.379
 5623TIP3    H116833   5.302   1.320   1.299
 5623TIP3    H216834   5.189   1.373   1.383
 5624TIP3   OH216835   0.872   3.109   0.420
 5624TIP3    H116836   0.956   3.151   0.401
 5624TIP3    H216837   0.852   3.136   0.510
 5625TIP3   OH216838   6.751   5.484   0.830
 5625TIP3    H116839   6.794   5.570   0.833
 5625TIP3    H216840   6.820   5.422   0.854
 5626TIP3   OH216841   1.680   4.256   5.916
 5626TIP3    H116842   1.705   4.219   5.831
 5626TIP3    H216843   1.585   4.268   5.910
 5627TIP3   OH216844   6.135   2.926   0.423
 5627TIP3    H116845   6.174   2.993   0.367
 5627TIP3    H216846   6.210   2.887   0.468
 5628TIP3   OH216847   4.039   0.772   5.463
 5628TIP3    H116848   4.119   0.819   5.485
 5628TIP3    H216849   4.002   0.821   5.389
 5629TIP3   OH216850   2.836   5.719   0.863
 5629TIP3    H116851   2.768   5.688   0.803
 5629TIP3    H216852   2.826   5.814   0.862
 5630TIP3   OH216853   6.404   2.354   1.890
 5630TIP3    H116854   6.369   2.305   1.964
 5630TIP3    H216855   6.431   2.438   1.927
 5631TIP3   OH216856   3.322   3.277   2.883
 5631TIP3    H116857   3.411   3.312   2.890
 5631TIP3    H216858   3.278   3.309   2.961
 5632TIP3   OH216859   0.055   1.516   1.383
 5632TIP3    H116860   0.111   1.441   1.360
 5632TIP3    H216861   0.098   1.554   1.460
 5633TIP3   OH216862   3.445   6.611   5.321
 5633TIP3    H116863   3.505   6.603   5.395
 5633TIP3    H216864   3.502   6.618   5.244
 5634TIP3   OH216865   4.795   2.553   5.405
 5634TIP3    H116866   4.791   2.625   5.343
 5634TIP3    H216867   4.705   2.542   5.434
 5635TIP3   OH216868   6.542   5.289   4.300
 5635TIP3    H116869   6.490   5.217   4.267
 5635TIP3    H216870   6.494   5.368   4.274
 5636TIP3   OH216871   1.202   3.802   4.814
 5636TIP3    H116872   1.225   3.710   4.828
 5636TIP3    H216873   1.182   3.835   4.901
 5637TIP3   OH216874   4.874   5.885   4.364
 5637TIP3    H116875   4.923   5.806   4.383
 5637TIP3    H216876   4.792   5.855   4.324
 5638TIP3   OH216877   3.078   0.394   3.246
 5638TIP3    H116878   3.085   0.360   3.156
 5638TIP3    H216879   2.993   0.437   3.248
 5639TIP3   OH216880   4.702   1.619   0.653
 5639TIP3    H116881   4.710   1.634   0.747
 5639TIP3    H216882   4.778   1.662   0.615
 5640TIP3   OH216883   3.553   1.030   5.020
 5640TIP3    H116884   3.593   1.111   4.989
 5640TIP3    H216885   3.588   0.962   4.963
 5641TIP3   OH216886   5.753   5.063   1.881
 5641TIP3    H116887   5.810   5.066   1.804
 5641TIP3    H216888   5.675   5.112   1.855
 5642TIP3   OH216889   4.720   2.653   3.371
 5642TIP3    H116890   4.775   2.596   3.425
 5642TIP3    H216891   4.782   2.697   3.312
 5643TIP3   OH216892   6.547   2.143   5.164
 5643TIP3    H116893   6.580   2.054   5.165
 5643TIP3    H216894   6.624   2.197   5.185
 5644TIP3   OH216895   0.638   3.132   0.222
 5644TIP3    H116896   0.688   3.204   0.185
 5644TIP3    H216897   0.701   3.083   0.275
 5645TIP3   OH216898   2.500   0.394   5.116
 5645TIP3    H116899   2.411   0.394   5.151
 5645TIP3    H216900   2.556   0.383   5.193
 5646TIP3   OH216901   4.107   4.073   2.229
 5646TIP3    H116902   4.142   4.162   2.219
 5646TIP3    H216903   4.183   4.016   2.215
 5647TIP3   OH216904   1.242   2.550   1.800
 5647TIP3    H116905   1.274   2.604   1.872
 5647TIP3    H216906   1.148   2.541   1.816
 5648TIP3   OH216907   0.473   3.336   2.606
 5648TIP3    H116908   0.531   3.412   2.607
 5648TIP3    H216909   0.523   3.266   2.647
 5649TIP3   OH216910   2.870   3.360   4.515
 5649TIP3    H116911   2.788   3.386   4.473
 5649TIP3    H216912   2.931   3.431   4.493
 5650TIP3   OH216913   3.740   5.952   3.147
 5650TIP3    H116914   3.786   5.869   3.146
 5650TIP3    H216915   3.806   6.017   3.125
 5651TIP3   OH216916   5.766   4.193   2.967
 5651TIP3    H116917   5.850   4.151   2.986
 5651TIP3    H216918   5.701   4.126   2.987
 5652TIP3   OH216919   6.263   4.169   0.928
 5652TIP3    H116920   6.297   4.200   0.844
 5652TIP3    H216921   6.295   4.232   0.992
 5653TIP3   OH216922   0.837   4.029   1.082
 5653TIP3    H116923   0.819   4.059   0.993
 5653TIP3    H216924   0.782   4.084   1.138
 5654TIP3   OH216925   6.410   4.070   1.583
 5654TIP3    H116926   6.500   4.041   1.600
 5654TIP3    H216927   6.421   4.154   1.539
 5655TIP3   OH216928   2.898   5.273   1.675
 5655TIP3    H116929   2.855   5.234   1.600
 5655TIP3    H216930   2.866   5.363   1.678
 5656TIP3   OH216931   5.529   3.571   0.063
 5656TIP3    H116932   5.455   3.524   0.101
 5656TIP3    H216933   5.595   3.575   0.133
 5657TIP3   OH216934   2.868   4.959   5.713
 5657TIP3    H116935   2.881   5.053   5.699
 5657TIP3    H216936   2.912   4.940   5.795
 5658TIP3   OH216937   1.309   0.523   1.207
 5658TIP3    H116938   1.261   0.464   1.147
 5658TIP3    H216939   1.323   0.471   1.285
 5659TIP3   OH216940   3.460   4.233   0.183
 5659TIP3    H116941   3.549   4.266   0.170
 5659TIP3    H216942   3.419   4.297   0.242
 5660TIP3   OH216943   6.170   5.233   0.266
 5660TIP3    H116944   6.218   5.170   0.321
 5660TIP3    H216945   6.195   5.318   0.301
 5661TIP3   OH216946   3.298   2.551   0.665
 5661TIP3    H116947   3.237   2.535   0.737
 5661TIP3    H216948   3.257   2.620   0.614
 5662TIP3   OH216949   5.602   4.288   4.295
 5662TIP3    H116950   5.626   4.220   4.358
 5662TIP3    H216951   5.624   4.370   4.340
 5663TIP3   OH216952   0.357   4.727   3.464
 5663TIP3    H116953   0.322   4.810   3.434
 5663TIP3    H216954   0.299   4.701   3.535
 5664TIP3   OH216955   0.474   2.467   5.827
 5664TIP3    H116956   0.481   2.496   5.919
 5664TIP3    H216957   0.565   2.463   5.797
 5665TIP3   OH216958   2.957   3.378   5.637
 5665TIP3    H116959   2.874   3.425   5.640
 5665TIP3    H216960   2.941   3.299   5.689
 5666TIP3   OH216961   2.298   3.468   1.263
 5666TIP3    H116962   2.251   3.536   1.310
 5666TIP3    H216963   2.390   3.480   1.288
 5667TIP3   OH216964   0.832   1.629   4.253
 5667TIP3    H116965   0.865   1.706   4.207
 5667TIP3    H216966   0.870   1.555   4.206
 5668TIP3   OH216967   4.905   5.643   0.115
 5668TIP3    H116968   4.837   5.623   0.179
 5668TIP3    H216969   4.969   5.573   0.127
 5669TIP3   OH216970   3.860   4.109   4.026
 5669TIP3    H116971   3.889   4.018   4.015
 5669TIP3    H216972   3.766   4.102   4.040
 5670TIP3   OH216973   7.004   6.569   1.778
 5670TIP3    H116974   7.002   6.650   1.726
 5670TIP3    H216975   7.086   6.526   1.753
 5671TIP3   OH216976   4.227   3.363   4.108
 5671TIP3    H116977   4.263   3.307   4.039
 5671TIP3    H216978   4.263   3.328   4.189
 5672TIP3   OH216979   4.507   3.548   4.393
 5672TIP3    H116980   4.597   3.581   4.394
 5672TIP3    H216981   4.465   3.592   4.467
 5673TIP3   OH216982   3.494   2.389   0.536
 5673TIP3    H116983   3.461   2.310   0.579
 5673TIP3    H216984   3.428   2.456   0.554
 5674TIP3   OH216985   2.654   3.573   0.914
 5674TIP3    H116986   2.579   3.571   0.854
 5674TIP3    H216987   2.728   3.547   0.860
 5675TIP3   OH216988   3.595   0.685   5.793
 5675TIP3    H116989   3.522   0.663   5.852
 5675TIP3    H216990   3.611   0.778   5.810
 5676TIP3   OH216991   6.827   6.698   4.653
 5676TIP3    H116992   6.855   6.617   4.696
 5676TIP3    H216993   6.904   6.755   4.657
 5677TIP3   OH216994   1.066   1.179   5.592
 5677TIP3    H116995   1.037   1.215   5.676
 5677TIP3    H216996   1.075   1.085   5.609
 5678TIP3   OH216997   2.833   2.893   3.114
 5678TIP3    H116998   2.883   2.823   3.157
 5678TIP3    H216999   2.756   2.905   3.170
 5679TIP3   OH217000   3.976   1.193   4.122
 5679TIP3    H117001   3.886   1.164   4.109
 5679TIP3    H217002   4.029   1.115   4.107
 5680TIP3   OH217003   7.127   2.403   3.121
 5680TIP3    H117004   7.178   2.409   3.201
 5680TIP3    H217005   7.105   2.311   3.112
 5681TIP3   OH217006   1.005   3.321   4.607
 5681TIP3    H117007   1.003   3.312   4.512
 5681TIP3    H217008   0.931   3.378   4.628
 5682TIP3   OH217009   4.904   5.158   2.370
 5682TIP3    H117010   4.938   5.073   2.395
 5682TIP3    H217011   4.919   5.214   2.446
 5683TIP3   OH217012   3.743   1.032   4.591
 5683TIP3    H117013   3.679   1.027   4.519
 5683TIP3    H217014   3.699   1.085   4.658
 5684TIP3   OH217015   5.441   3.728   1.931
 5684TIP3    H117016   5.443   3.806   1.875
 5684TIP3    H217017   5.388   3.665   1.883
 5685TIP3   OH217018   0.105   0.917   1.922
 5685TIP3    H117019   0.095   1.010   1.904
 5685TIP3    H217020   0.142   0.913   2.010
 5686TIP3   OH217021   0.518   5.091   2.238
 5686TIP3    H117022   0.604   5.118   2.272
 5686TIP3    H217023   0.510   4.999   2.264
 5687TIP3   OH217024   4.551   0.856   5.356
 5687TIP3    H117025   4.569   0.854   5.450
 5687TIP3    H217026   4.637   0.845   5.316
 5688TIP3   OH217027   2.161   1.875   5.626
 5688TIP3    H117028   2.225   1.810   5.598
 5688TIP3    H217029   2.095   1.876   5.556
 5689TIP3   OH217030   3.516   5.267   1.955
 5689TIP3    H117031   3.539   5.176   1.978
 5689TIP3    H217032   3.493   5.263   1.863
 5690TIP3   OH217033   6.918   4.038   2.021
 5690TIP3    H117034   6.936   3.987   2.100
 5690TIP3    H217035   6.844   4.094   2.045
 5691TIP3   OH217036   5.491   6.396   5.440
 5691TIP3    H117037   5.586   6.400   5.447
 5691TIP3    H217038   5.462   6.362   5.525
 5692TIP3   OH217039   6.244   0.358   2.709
 5692TIP3    H117040   6.243   0.276   2.758
 5692TIP3    H217041   6.336   0.385   2.711
 5693TIP3   OH217042   1.789   4.465   5.339
 5693TIP3    H117043   1.696   4.487   5.341
 5693TIP3    H217044   1.803   4.411   5.417
 5694TIP3   OH217045   0.681   3.986   2.645
 5694TIP3    H117046   0.613   4.035   2.600
 5694TIP3    H217047   0.731   4.052   2.692
 5695TIP3   OH217048   1.882   2.148   1.921
 5695TIP3    H117049   1.947   2.157   1.852
 5695TIP3    H217050   1.803   2.189   1.885
 5696TIP3   OH217051   6.946   5.161   2.530
 5696TIP3    H117052   6.866   5.213   2.539
 5696TIP3    H217053   7.015   5.215   2.569
 5697TIP3   OH217054   5.517   2.876   3.383
 5697TIP3    H117055   5.480   2.964   3.375
 5697TIP3    H217056   5.510   2.856   3.477
 5698TIP3   OH217057   0.055   5.788   4.649
 5698TIP3    H117058   0.092   5.701   4.665
 5698TIP3    H217059   0.090   5.842   4.720
 5699TIP3   OH217060   5.481   2.307   0.485
 5699TIP3    H117061   5.537   2.240   0.445
 5699TIP3    H217062   5.483   2.380   0.422
 5700TIP3   OH217063   5.714   2.872   4.764
 5700TIP3    H117064   5.723   2.909   4.675
 5700TIP3    H217065   5.621   2.881   4.784
 5701TIP3   OH217066   2.925   0.415   5.354
 5701TIP3    H117067   2.837   0.415   5.315
 5701TIP3    H217068   2.916   0.362   5.433
 5702TIP3   OH217069   4.688   6.584   1.359
 5702TIP3    H117070   4.741   6.655   1.320
 5702TIP3    H217071   4.719   6.577   1.449
 5703TIP3   OH217072   0.119   1.588   1.118
 5703TIP3    H117073   0.117   1.604   1.213
 5703TIP3    H217074   0.143   1.673   1.081
 5704TIP3   OH217075   3.117   6.311   1.055
 5704TIP3    H117076   3.096   6.218   1.066
 5704TIP3    H217077   3.152   6.318   0.966
 5705TIP3   OH217078   2.763   5.783   2.004
 5705TIP3    H117079   2.823   5.736   1.947
 5705TIP3    H217080   2.684   5.795   1.951
 5706TIP3   OH217081   2.764   6.635   5.097
 5706TIP3    H117082   2.680   6.592   5.077
 5706TIP3    H217083   2.743   6.728   5.098
 5707TIP3   OH217084   6.554   3.173   2.884
 5707TIP3    H117085   6.540   3.248   2.942
 5707TIP3    H217086   6.611   3.206   2.815
 5708TIP3   OH217087   4.343   2.123   3.339
 5708TIP3    H117088   4.410   2.057   3.355
 5708TIP3    H217089   4.366   2.196   3.396
 5709TIP3   OH217090   5.556   1.568   4.221
 5709TIP3    H117091   5.509   1.485   4.231
 5709TIP3    H217092   5.591   1.565   4.132
 5710TIP3   OH217093   6.852   4.380   3.985
 5710TIP3    H117094   6.916   4.443   4.018
 5710TIP3    H217095   6.873   4.299   4.031
 5711TIP3   OH217096   4.873   4.829   3.615
 5711TIP3    H117097   4.934   4.882   3.666
 5711TIP3    H217098   4.831   4.891   3.555
 5712TIP3   OH217099   4.301   6.194   5.408
 5712TIP3    H117100   4.321   6.148   5.327
 5712TIP3    H217101   4.282   6.125   5.471
 5713TIP3   OH217102   4.106   1.666   3.373
 5713TIP3    H117103   4.064   1.735   3.426
 5713TIP3    H217104   4.157   1.615   3.436
 5714TIP3   OH217105   4.992   4.900   0.203
 5714TIP3    H117106   4.970   4.909   0.110
 5714TIP3    H217107   5.032   4.813   0.210
 5715TIP3   OH217108   2.690   3.313   0.573
 5715TIP3    H117109   2.775   3.308   0.530
 5715TIP3    H217110   2.708   3.295   0.665
 5716TIP3   OH217111   6.316   5.565   5.863
 5716TIP3    H117112   6.228   5.591   5.892
 5716TIP3    H217113   6.353   5.517   5.938
 5717TIP3   OH217114   2.294   4.737   2.589
 5717TIP3    H117115   2.351   4.764   2.661
 5717TIP3    H217116   2.211   4.781   2.606
 5718TIP3   OH217117   1.704   3.216   2.850
 5718TIP3    H117118   1.787   3.263   2.842
 5718TIP3    H217119   1.705   3.154   2.776
 5719TIP3   OH217120   1.158   5.504   3.990
 5719TIP3    H117121   1.182   5.418   3.955
 5719TIP3    H217122   1.063   5.508   3.980
 5720TIP3   OH217123   2.047   6.669   0.523
 5720TIP3    H117124   2.087   6.751   0.550
 5720TIP3    H217125   2.119   6.617   0.488
 5721TIP3   OH217126   6.575   2.909   5.121
 5721TIP3    H117127   6.598   2.827   5.078
 5721TIP3    H217128   6.568   2.973   5.050
 5722TIP3   OH217129   4.401   2.026   0.401
 5722TIP3    H117130   4.476   2.039   0.458
 5722TIP3    H217131   4.325   2.047   0.455
 5723TIP3   OH217132   3.406   6.120   1.296
 5723TIP3    H117133   3.361   6.118   1.211
 5723TIP3    H217134   3.356   6.183   1.348
 5724TIP3   OH217135   3.031   2.052   0.570
 5724TIP3    H117136   3.077   1.970   0.555
 5724TIP3    H217137   2.970   2.033   0.642
 5725TIP3   OH217138   5.956   2.557   0.285
 5725TIP3    H117139   6.046   2.569   0.253
 5725TIP3    H217140   5.901   2.590   0.214
 5726TIP3   OH217141   7.096   1.253   0.499
 5726TIP3    H117142   7.184   1.292   0.495
 5726TIP3    H217143   7.040   1.323   0.531
 5727TIP3   OH217144   5.080   1.301   5.258
 5727TIP3    H117145   4.992   1.325   5.227
 5727TIP3    H217146   5.139   1.352   5.203
 5728TIP3   OH217147   0.928   4.048   0.077
 5728TIP3    H117148   0.870   4.021   0.148
 5728TIP3    H217149   0.868   4.076   0.007
 5729TIP3   OH217150   1.311   0.448   4.864
 5729TIP3    H117151   1.250   0.471   4.934
 5729TIP3    H217152   1.379   0.396   4.907
 5730TIP3   OH217153   6.542   1.612   1.413
 5730TIP3    H117154   6.585   1.679   1.467
 5730TIP3    H217155   6.612   1.551   1.389
 5731TIP3   OH217156   0.676   5.613   2.442
 5731TIP3    H117157   0.697   5.527   2.480
 5731TIP3    H217158   0.738   5.621   2.369
 5732TIP3   OH217159   1.995   2.517   5.672
 5732TIP3    H117160   2.057   2.493   5.603
 5732TIP3    H217161   1.985   2.611   5.663
 5733TIP3   OH217162   3.696   0.379   5.276
 5733TIP3    H117163   3.646   0.320   5.333
 5733TIP3    H217164   3.709   0.458   5.328
 5734TIP3   OH217165   6.124   4.711   3.171
 5734TIP3    H117166   6.110   4.641   3.234
 5734TIP3    H217167   6.050   4.771   3.185
 5735TIP3   OH217168   5.341   4.239   2.815
 5735TIP3    H117169   5.428   4.267   2.786
 5735TIP3    H217170   5.287   4.239   2.736
 5736TIP3   OH217171   6.893   3.886   5.158
 5736TIP3    H117172   6.959   3.821   5.131
 5736TIP3    H217173   6.838   3.896   5.080
 5737TIP3   OH217174   3.643   6.096   4.725
 5737TIP3    H117175   3.617   6.186   4.706
 5737TIP3    H217176   3.728   6.105   4.769
 5738TIP3   OH217177   3.483   5.198   0.924
 5738TIP3    H117178   3.538   5.125   0.952
 5738TIP3    H217179   3.395   5.161   0.914
 5739TIP3   OH217180   2.207   2.603   2.928
 5739TIP3    H117181   2.119   2.574   2.904
 5739TIP3    H217182   2.266   2.540   2.888
 5740TIP3   OH217183   3.896   0.376   3.173
 5740TIP3    H117184   3.835   0.302   3.170
 5740TIP3    H217185   3.969   0.349   3.118
 5741TIP3   OH217186   2.706   0.281   5.596
 5741TIP3    H117187   2.796   0.265   5.568
 5741TIP3    H217188   2.699   0.238   5.681
 5742TIP3   OH217189   5.243   2.565   1.869
 5742TIP3    H117190   5.326   2.601   1.899
 5742TIP3    H217191   5.219   2.500   1.936
 5743TIP3   OH217192   5.486   6.453   1.363
 5743TIP3    H117193   5.460   6.496   1.282
 5743TIP3    H217194   5.477   6.359   1.344
 5744TIP3   OH217195   3.323   2.878   5.200
 5744TIP3    H117196   3.383   2.804   5.193
 5744TIP3    H217197   3.377   2.954   5.178
 5745TIP3   OH217198   0.840   4.986   0.784
 5745TIP3    H117199   0.815   4.911   0.837
 5745TIP3    H217200   0.936   4.983   0.783
 5746TIP3   OH217201   5.992   3.784   3.367
 5746TIP3    H117202   6.041   3.745   3.439
 5746TIP3    H217203   5.987   3.877   3.390
 5747TIP3   OH217204   3.133   5.114   1.377
 5747TIP3    H117205   3.178   5.195   1.353
 5747TIP3    H217206   3.040   5.135   1.375
 5748TIP3   OH217207   0.382   2.696   5.713
 5748TIP3    H117208   0.289   2.717   5.708
 5748TIP3    H217209   0.385   2.607   5.748
 5749TIP3   OH217210   5.253   1.188   4.610
 5749TIP3    H117211   5.276   1.144   4.527
 5749TIP3    H217212   5.277   1.125   4.678
 5750TIP3   OH217213   0.189   0.445   2.920
 5750TIP3    H117214   0.195   0.394   2.839
 5750TIP3    H217215   0.112   0.410   2.964
 5751TIP3   OH217216   0.986   3.033   5.174
 5751TIP3    H117217   0.912   3.093   5.179
 5751TIP3    H217218   0.963   2.972   5.104
 5752TIP3   OH217219   3.009   2.321   0.495
 5752TIP3    H117220   3.018   2.227   0.479
 5752TIP3    H217221   2.964   2.327   0.579
 5753TIP3   OH217222   1.187   3.687   2.019
 5753TIP3    H117223   1.174   3.782   2.022
 5753TIP3    H217224   1.100   3.652   2.003
 5754TIP3   OH217225   3.534   5.461   2.585
 5754TIP3    H117226   3.565   5.548   2.558
 5754TIP3    H217227   3.607   5.424   2.635
 5755TIP3   OH217228   6.166   2.883   1.224
 5755TIP3    H117229   6.215   2.957   1.260
 5755TIP3    H217230   6.199   2.807   1.273
 5756TIP3   OH217231   0.136   4.340   5.347
 5756TIP3    H117232   0.072   4.277   5.379
 5756TIP3    H217233   0.220   4.296   5.354
 5757TIP3   OH217234   6.436   5.775   5.366
 5757TIP3    H117235   6.356   5.784   5.418
 5757TIP3    H217236   6.438   5.855   5.312
 5758TIP3   OH217237   2.340   2.852   4.315
 5758TIP3    H117238   2.315   2.897   4.234
 5758TIP3    H217239   2.435   2.861   4.318
 5759TIP3   OH217240   6.020   2.201   4.764
 5759TIP3    H117241   6.010   2.261   4.838
 5759TIP3    H217242   6.084   2.244   4.707
 5760TIP3   OH217243   4.070   6.399   4.297
 5760TIP3    H117244   4.025   6.470   4.250
 5760TIP3    H217245   4.157   6.435   4.315
 5761TIP3   OH217246   5.580   2.123   0.308
 5761TIP3    H117247   5.616   2.034   0.306
 5761TIP3    H217248   5.517   2.124   0.235
 5762TIP3   OH217249   6.106   6.704   2.577
 5762TIP3    H117250   6.085   6.617   2.542
 5762TIP3    H217251   6.153   6.747   2.506
 5763TIP3   OH217252   6.944   2.460   1.241
 5763TIP3    H117253   6.992   2.458   1.324
 5763TIP3    H217254   6.930   2.553   1.223
 5764TIP3   OH217255   1.618   3.209  -0.025
 5764TIP3    H117256   1.710   3.195  -0.003
 5764TIP3    H217257   1.570   3.172   0.049
 5765TIP3   OH217258   0.021   2.434   2.732
 5765TIP3    H117259  -0.068   2.462   2.751
 5765TIP3    H217260   0.011   2.359   2.674
 5766TIP3   OH217261   4.663   4.523   4.601
 5766TIP3    H117262   4.741   4.469   4.583
 5766TIP3    H217263   4.698   4.608   4.625
 5767TIP3   OH217264   0.506   5.864   3.667
 5767TIP3    H117265   0.429   5.808   3.660
 5767TIP3    H217266   0.472   5.947   3.698
 5768TIP3   OH217267   4.300   5.740   5.791
 5768TIP3    H117268   4.336   5.825   5.817
 5768TIP3    H217269   4.208   5.758   5.772
 5769TIP3   OH217270   3.624   5.544   4.993
 5769TIP3    H117271   3.682   5.556   5.068
 5769TIP3    H217272   3.660   5.603   4.926
 5770TIP3   OH217273   2.140   6.710   2.381
 5770TIP3    H117274   2.232   6.690   2.364
 5770TIP3    H217275   2.099   6.625   2.393
 5771TIP3   OH217276   6.603   6.117   5.354
 5771TIP3    H117277   6.688   6.073   5.346
 5771TIP3    H217278   6.547   6.072   5.291
 5772TIP3   OH217279   2.084   4.744   5.270
 5772TIP3    H117280   2.050   4.659   5.241
 5772TIP3    H217281   2.135   4.776   5.196
 5773TIP3   OH217282   4.697   2.953   4.321
 5773TIP3    H117283   4.638   3.028   4.312
 5773TIP3    H217284   4.731   2.960   4.410
 5774TIP3   OH217285   0.992   4.912   2.467
 5774TIP3    H117286   0.984   4.974   2.540
 5774TIP3    H217287   1.008   4.827   2.508
 5775TIP3   OH217288   1.174   5.720   2.255
 5775TIP3    H117289   1.170   5.639   2.203
 5775TIP3    H217290   1.099   5.713   2.315
 5776TIP3   OH217291  -0.010   3.970   0.266
 5776TIP3    H117292   0.015   4.051   0.222
 5776TIP3    H217293   0.055   3.906   0.238
 5777TIP3   OH217294   0.563   0.443   3.345
 5777TIP3    H117295   0.541   0.360   3.303
 5777TIP3    H217296   0.582   0.419   3.435
 5778TIP3   OH217297   3.725   2.474   0.464
 5778TIP3    H117298   3.646   2.423   0.482
 5778TIP3    H217299   3.748   2.512   0.549
 5779TIP3   OH217300   3.305   6.639   2.649
 5779TIP3    H117301   3.336   6.729   2.663
 5779TIP3    H217302   3.238   6.646   2.582
 5780TIP3   OH217303   0.926   5.029   1.286
 5780TIP3    H117304   0.846   5.010   1.335
 5780TIP3    H217305   0.896   5.055   1.199
 5781TIP3   OH217306   3.400   4.034   1.682
 5781TIP3    H117307   3.351   4.004   1.759
 5781TIP3    H217308   3.492   4.027   1.707
 5782TIP3   OH217309   5.528   2.406   1.821
 5782TIP3    H117310   5.490   2.370   1.741
 5782TIP3    H217311   5.578   2.482   1.791
 5783TIP3   OH217312   4.422   1.521   4.083
 5783TIP3    H117313   4.336   1.562   4.090
 5783TIP3    H217314   4.409   1.431   4.115
 5784TIP3   OH217315   1.826   5.079   2.807
 5784TIP3    H117316   1.904   5.116   2.848
 5784TIP3    H217317   1.811   4.997   2.855
 5785TIP3   OH217318   5.629   4.095   0.969
 5785TIP3    H117319   5.604   4.003   0.973
 5785TIP3    H217320   5.672   4.104   0.883
 5786TIP3   OH217321   3.385   2.718   4.026
 5786TIP3    H117322   3.427   2.763   4.100
 5786TIP3    H217323   3.398   2.625   4.044
 5787TIP3   OH217324   1.942   1.223   0.491
 5787TIP3    H117325   1.963   1.168   0.415
 5787TIP3    H217326   2.020   1.278   0.503
 5788TIP3   OH217327   1.212   4.468   5.171
 5788TIP3    H117328   1.139   4.411   5.193
 5788TIP3    H217329   1.259   4.423   5.101
 5789TIP3   OH217330   2.271   1.626   3.024
 5789TIP3    H117331   2.230   1.614   3.110
 5789TIP3    H217332   2.198   1.647   2.966
 5790TIP3   OH217333   1.801   3.961   0.270
 5790TIP3    H117334   1.725   3.904   0.259
 5790TIP3    H217335   1.767   4.049   0.262
 5791TIP3   OH217336   5.507   2.552   4.340
 5791TIP3    H117337   5.591   2.587   4.310
 5791TIP3    H217338   5.532   2.476   4.394
 5792TIP3   OH217339   3.415   4.071   4.755
 5792TIP3    H117340   3.425   4.028   4.670
 5792TIP3    H217341   3.504   4.082   4.787
 5793TIP3   OH217342   0.229   4.624   4.884
 5793TIP3    H117343   0.160   4.652   4.825
 5793TIP3    H217344   0.230   4.691   4.953
 5794TIP3   OH217345   1.585   2.474   4.190
 5794TIP3    H117346   1.542   2.558   4.205
 5794TIP3    H217347   1.672   2.485   4.230
 5795TIP3   OH217348   5.141   4.691   3.958
 5795TIP3    H117349   5.161   4.780   3.986
 5795TIP3    H217350   5.224   4.656   3.926
 5796TIP3   OH217351   3.345   1.301   5.212
 5796TIP3    H117352   3.303   1.216   5.225
 5796TIP3    H217353   3.326   1.350   5.292
 5797TIP3   OH217354   2.943   5.796   4.201
 5797TIP3    H117355   2.896   5.725   4.245
 5797TIP3    H217356   2.917   5.788   4.110
 5798TIP3   OH217357   0.208   1.915   5.420
 5798TIP3    H117358   0.290   1.936   5.374
 5798TIP3    H217359   0.153   1.874   5.353
 5799TIP3   OH217360   5.840   6.530   4.737
 5799TIP3    H117361   5.935   6.528   4.745
 5799TIP3    H217362   5.812   6.596   4.800
 5800TIP3   OH217363   7.195   5.548   5.252
 5800TIP3    H117364   7.218   5.470   5.302
 5800TIP3    H217365   7.102   5.537   5.232
 5801TIP3   OH217366   5.369   0.461   5.862
 5801TIP3    H117367   5.308   0.534   5.866
 5801TIP3    H217368   5.315   0.383   5.873
 5802TIP3   OH217369   6.195   2.789   5.724
 5802TIP3    H117370   6.242   2.803   5.806
 5802TIP3    H217371   6.136   2.716   5.743
 5803TIP3   OH217372   0.415   0.816   2.866
 5803TIP3    H117373   0.496   0.792   2.912
 5803TIP3    H217374   0.367   0.871   2.929
 5804TIP3   OH217375   3.712   0.296   4.853
 5804TIP3    H117376   3.708   0.217   4.799
 5804TIP3    H217377   3.630   0.342   4.833
 5805TIP3   OH217378   7.151   0.133   1.481
 5805TIP3    H117379   7.073   0.118   1.534
 5805TIP3    H217380   7.166   0.228   1.485
 5806TIP3   OH217381   0.552   3.277   5.076
 5806TIP3    H117382   0.563   3.369   5.102
 5806TIP3    H217383   0.499   3.281   4.996
 5807TIP3   OH217384   5.086   1.534   1.823
 5807TIP3    H117385   5.132   1.552   1.905
 5807TIP3    H217386   4.999   1.574   1.835
 5808TIP3   OH217387   6.672   4.878   3.523
 5808TIP3    H117388   6.651   4.912   3.436
 5808TIP3    H217389   6.593   4.893   3.575
 5809TIP3   OH217390   4.795   0.564   0.094
 5809TIP3    H117391   4.849   0.573   0.015
 5809TIP3    H217392   4.714   0.524   0.064
 5810TIP3   OH217393   0.346   3.898   4.511
 5810TIP3    H117394   0.297   3.898   4.429
 5810TIP3    H217395   0.320   3.817   4.555
 5811TIP3   OH217396   6.182   2.499   4.925
 5811TIP3    H117397   6.115   2.492   4.994
 5811TIP3    H217398   6.233   2.418   4.933
 5812TIP3   OH217399   3.338   1.638   1.289
 5812TIP3    H117400   3.394   1.624   1.365
 5812TIP3    H217401   3.378   1.711   1.242
 5813TIP3   OH217402   6.015   6.299   0.068
 5813TIP3    H117403   5.979   6.387   0.058
 5813TIP3    H217404   5.947   6.250   0.115
 5814TIP3   OH217405   6.353   5.348   1.799
 5814TIP3    H117406   6.263   5.381   1.789
 5814TIP3    H217407   6.367   5.295   1.721
 5815TIP3   OH217408   2.637   5.756   2.531
 5815TIP3    H117409   2.679   5.737   2.615
 5815TIP3    H217410   2.675   5.840   2.504
 5816TIP3   OH217411   6.258   3.114   4.210
 5816TIP3    H117412   6.189   3.067   4.162
 5816TIP3    H217413   6.255   3.203   4.175
 5817TIP3   OH217414   0.970   3.417   1.583
 5817TIP3    H117415   0.996   3.485   1.521
 5817TIP3    H217416   0.877   3.433   1.598
 5818TIP3   OH217417   4.752   0.374   2.367
 5818TIP3    H117418   4.762   0.295   2.314
 5818TIP3    H217419   4.792   0.444   2.315
 5819TIP3   OH217420   5.461   0.309   3.148
 5819TIP3    H117421   5.505   0.290   3.065
 5819TIP3    H217422   5.522   0.365   3.195
 5820TIP3   OH217423   5.177   1.667   5.282
 5820TIP3    H117424   5.249   1.646   5.341
 5820TIP3    H217425   5.105   1.611   5.311
 5821TIP3   OH217426   4.379   3.555   2.774
 5821TIP3    H117427   4.349   3.642   2.749
 5821TIP3    H217428   4.389   3.508   2.691
 5822TIP3   OH217429   1.898   2.344   1.506
 5822TIP3    H117430   1.859   2.365   1.590
 5822TIP3    H217431   1.968   2.409   1.494
 5823TIP3   OH217432   2.202   4.497   4.690
 5823TIP3    H117433   2.250   4.451   4.758
 5823TIP3    H217434   2.202   4.589   4.718
 5824TIP3   OH217435   6.500   4.451   5.332
 5824TIP3    H117436   6.460   4.365   5.345
 5824TIP3    H217437   6.593   4.432   5.316
 5825TIP3   OH217438   2.912   0.350   1.886
 5825TIP3    H117439   2.936   0.336   1.978
 5825TIP3    H217440   2.983   0.404   1.851
 5826TIP3   OH217441   2.643   0.212   2.674
 5826TIP3    H117442   2.592   0.198   2.754
 5826TIP3    H217443   2.658   0.307   2.673
 5827TIP3   OH217444   4.313   0.626   2.399
 5827TIP3    H117445   4.239   0.656   2.346
 5827TIP3    H217446   4.279   0.552   2.448
 5828TIP3   OH217447   3.441   3.805   0.704
 5828TIP3    H117448   3.485   3.888   0.686
 5828TIP3    H217449   3.452   3.792   0.798
 5829TIP3   OH217450   7.161   5.285   4.235
 5829TIP3    H117451   7.094   5.347   4.264
 5829TIP3    H217452   7.128   5.251   4.151
 5830TIP3   OH217453   3.715   2.606   4.355
 5830TIP3    H117454   3.699   2.546   4.428
 5830TIP3    H217455   3.801   2.643   4.373
 5831TIP3   OH217456   0.215   3.211   1.592
 5831TIP3    H117457   0.269   3.162   1.530
 5831TIP3    H217458   0.253   3.299   1.594
 5832TIP3   OH217459   1.362   5.189   0.692
 5832TIP3    H117460   1.295   5.230   0.746
 5832TIP3    H217461   1.329   5.101   0.676
 5833TIP3   OH217462   7.168   0.595   1.167
 5833TIP3    H117463   7.131   0.683   1.157
 5833TIP3    H217464   7.219   0.580   1.088
 5834TIP3   OH217465   6.740   5.523   5.031
 5834TIP3    H117466   6.812   5.462   5.013
 5834TIP3    H217467   6.702   5.542   4.944
 5835TIP3   OH217468   6.328   1.898   4.650
 5835TIP3    H117469   6.394   1.876   4.584
 5835TIP3    H217470   6.246   1.864   4.615
 5836TIP3   OH217471   0.160   4.061   1.609
 5836TIP3    H117472   0.080   4.035   1.654
 5836TIP3    H217473   0.131   4.124   1.543
 5837TIP3   OH217474   4.560   0.296   4.495
 5837TIP3    H117475   4.507   0.266   4.569
 5837TIP3    H217476   4.650   0.273   4.519
 5838TIP3   OH217477   6.098   6.374   1.600
 5838TIP3    H117478   6.006   6.384   1.626
 5838TIP3    H217479   6.129   6.300   1.653
 5839TIP3   OH217480   5.773   0.957   0.385
 5839TIP3    H117481   5.788   0.877   0.435
 5839TIP3    H217482   5.761   1.025   0.452
 5840TIP3   OH217483   0.074   2.550   1.071
 5840TIP3    H117484   0.141   2.498   1.115
 5840TIP3    H217485   0.050   2.617   1.135
 5841TIP3   OH217486   0.739   2.488   4.183
 5841TIP3    H117487   0.772   2.531   4.105
 5841TIP3    H217488   0.791   2.408   4.191
 5842TIP3   OH217489   3.534   2.364   5.004
 5842TIP3    H117490   3.599   2.317   4.952
 5842TIP3    H217491   3.583   2.396   5.080
 5843TIP3   OH217492   5.698   3.920   2.635
 5843TIP3    H117493   5.737   3.919   2.723
 5843TIP3    H217494   5.679   3.828   2.617
 5844TIP3   OH217495   3.758   3.080   5.443
 5844TIP3    H117496   3.778   3.172   5.430
 5844TIP3    H217497   3.843   3.036   5.437
 5845TIP3   OH217498   1.131   2.404   4.346
 5845TIP3    H117499   1.180   2.322   4.352
 5845TIP3    H217500   1.067   2.388   4.276
 5846TIP3   OH217501   5.232   5.269   2.977
 5846TIP3    H117502   5.251   5.175   2.977
 5846TIP3    H217503   5.226   5.292   2.885
 5847TIP3   OH217504   6.077   1.987   5.475
 5847TIP3    H117505   6.047   1.899   5.497
 5847TIP3    H217506   6.166   1.992   5.510
 5848TIP3   OH217507   0.353   1.836   3.972
 5848TIP3    H117508   0.427   1.895   3.986
 5848TIP3    H217509   0.297   1.882   3.910
 5849TIP3   OH217510   1.153   3.587   0.498
 5849TIP3    H117511   1.100   3.613   0.573
 5849TIP3    H217512   1.089   3.554   0.434
 5850TIP3   OH217513   6.908   5.277   0.855
 5850TIP3    H117514   6.994   5.319   0.850
 5850TIP3    H217515   6.917   5.214   0.926
 5851TIP3   OH217516   3.860   4.046   2.119
 5851TIP3    H117517   3.950   4.067   2.145
 5851TIP3    H217518   3.860   4.060   2.024
 5852TIP3   OH217519   3.441   0.667   3.398
 5852TIP3    H117520   3.346   0.659   3.409
 5852TIP3    H217521   3.457   0.644   3.307
 5853TIP3   OH217522   4.944   0.240   1.519
 5853TIP3    H117523   4.993   0.160   1.503
 5853TIP3    H217524   4.935   0.280   1.432
 5854TIP3   OH217525   4.007   0.887   4.628
 5854TIP3    H117526   3.984   0.934   4.708
 5854TIP3    H217527   4.102   0.879   4.632
 5855TIP3   OH217528   3.897   6.218   4.800
 5855TIP3    H117529   3.919   6.260   4.717
 5855TIP3    H217530   3.873   6.291   4.858
 5856TIP3   OH217531   3.345   0.409   3.690
 5856TIP3    H117532   3.393   0.487   3.716
 5856TIP3    H217533   3.261   0.441   3.658
 5857TIP3   OH217534   1.596   6.347   3.162
 5857TIP3    H117535   1.530   6.345   3.093
 5857TIP3    H217536   1.581   6.430   3.207
 5858TIP3   OH217537   1.610   6.784   5.606
 5858TIP3    H117538   1.636   6.767   5.515
 5858TIP3    H217539   1.535   6.842   5.599
 5859TIP3   OH217540   5.244   4.962   3.635
 5859TIP3    H117541   5.306   4.889   3.642
 5859TIP3    H217542   5.205   4.951   3.548
 5860TIP3   OH217543   3.738   1.535   5.043
 5860TIP3    H117544   3.767   1.444   5.043
 5860TIP3    H217545   3.643   1.529   5.057
 5861TIP3   OH217546   0.434   4.093   3.880
 5861TIP3    H117547   0.388   4.096   3.796
 5861TIP3    H217548   0.388   4.024   3.929
 5862TIP3   OH217549   5.132   1.272   3.551
 5862TIP3    H117550   5.190   1.209   3.507
 5862TIP3    H217551   5.052   1.222   3.569
 5863TIP3   OH217552   1.008   2.828   1.543
 5863TIP3    H117553   1.006   2.777   1.624
 5863TIP3    H217554   1.091   2.805   1.502
 5864TIP3   OH217555   5.207   2.504   5.289
 5864TIP3    H117556   5.128   2.558   5.291
 5864TIP3    H217557   5.275   2.562   5.257
 5865TIP3   OH217558   0.003   1.802   0.017
 5865TIP3    H117559   0.049   1.855   0.082
 5865TIP3    H217560   0.038   1.714   0.028
 5866TIP3   OH217561   6.496   6.094  -0.020
 5866TIP3    H117562   6.524   6.013   0.023
 5866TIP3    H217563   6.428   6.129   0.038
 5867TIP3   OH217564   4.304   6.117   3.392
 5867TIP3    H117565   4.219   6.138   3.430
 5867TIP3    H217566   4.283   6.078   3.307
 5868TIP3   OH217567   6.648   4.027   0.091
 5868TIP3    H117568   6.706   4.083   0.142
 5868TIP3    H217569   6.705   3.984   0.028
 5869TIP3   OH217570   2.294   0.831   3.479
 5869TIP3    H117571   2.365   0.884   3.514
 5869TIP3    H217572   2.312   0.742   3.511
 5870TIP3   OH217573   2.466   5.039   2.059
 5870TIP3    H117574   2.422   5.025   2.143
 5870TIP3    H217575   2.532   4.970   2.055
 5871TIP3   OH217576   3.431   2.154   2.239
 5871TIP3    H117577   3.425   2.246   2.213
 5871TIP3    H217578   3.412   2.106   2.158
 5872TIP3   OH217579   4.993   6.187   3.781
 5872TIP3    H117580   4.949   6.267   3.754
 5872TIP3    H217581   4.961   6.120   3.720
 5873TIP3   OH217582   5.391   6.729   0.212
 5873TIP3    H117583   5.383   6.662   0.280
 5873TIP3    H217584   5.358   6.686   0.133
 5874TIP3   OH217585   3.392   4.295   4.519
 5874TIP3    H117586   3.442   4.224   4.479
 5874TIP3    H217587   3.458   4.357   4.549
 5875TIP3   OH217588   3.006   4.889   1.850
 5875TIP3    H117589   3.051   4.924   1.773
 5875TIP3    H217590   3.075   4.866   1.911
 5876TIP3   OH217591   4.571   0.505   3.916
 5876TIP3    H117592   4.528   0.590   3.929
 5876TIP3    H217593   4.512   0.443   3.958
 5877TIP3   OH217594   5.710   5.151   5.302
 5877TIP3    H117595   5.664   5.067   5.297
 5877TIP3    H217596   5.669   5.205   5.235
 5878TIP3   OH217597   6.954   0.301   1.604
 5878TIP3    H117598   7.021   0.349   1.556
 5878TIP3    H217599   6.879   0.361   1.607
 5879TIP3   OH217600   0.542   1.242   3.867
 5879TIP3    H117601   0.586   1.176   3.813
 5879TIP3    H217602   0.540   1.202   3.954
 5880TIP3   OH217603   2.262   0.426   5.233
 5880TIP3    H117604   2.253   0.502   5.292
 5880TIP3    H217605   2.176   0.385   5.233
 5881TIP3   OH217606   1.857   2.893   0.852
 5881TIP3    H117607   1.819   2.841   0.782
 5881TIP3    H217608   1.951   2.889   0.837
 5882TIP3   OH217609   2.256   4.087   5.304
 5882TIP3    H117610   2.285   4.050   5.221
 5882TIP3    H217611   2.293   4.175   5.306
 5883TIP3   OH217612   2.807   5.585   3.145
 5883TIP3    H117613   2.830   5.504   3.100
 5883TIP3    H217614   2.891   5.625   3.167
 5884TIP3   OH217615   3.340   4.729   1.424
 5884TIP3    H117616   3.275   4.663   1.447
 5884TIP3    H217617   3.423   4.682   1.425
 5885TIP3   OH217618   2.189   3.773   2.859
 5885TIP3    H117619   2.139   3.700   2.823
 5885TIP3    H217620   2.239   3.734   2.932
 5886TIP3   OH217621   5.310   3.387   5.033
 5886TIP3    H117622   5.357   3.426   5.108
 5886TIP3    H217623   5.300   3.295   5.057
 5887TIP3   OH217624   3.221   5.122   5.372
 5887TIP3    H117625   3.225   5.052   5.307
 5887TIP3    H217626   3.312   5.138   5.394
 5888TIP3   OH217627   1.271   1.081   3.028
 5888TIP3    H117628   1.225   1.019   2.972
 5888TIP3    H217629   1.354   1.039   3.049
 5889TIP3   OH217630   0.342   3.449   3.414
 5889TIP3    H117631   0.414   3.415   3.468
 5889TIP3    H217632   0.263   3.427   3.463
 5890TIP3   OH217633   2.468   5.282   4.726
 5890TIP3    H117634   2.548   5.335   4.721
 5890TIP3    H217635   2.491   5.201   4.681
 5891TIP3   OH217636   2.343   6.578   1.281
 5891TIP3    H117637   2.262   6.544   1.320
 5891TIP3    H217638   2.392   6.615   1.354
 5892TIP3   OH217639   5.956   2.599   1.183
 5892TIP3    H117640   5.964   2.526   1.122
 5892TIP3    H217641   5.881   2.577   1.238
 5893TIP3   OH217642   0.790   5.378   3.648
 5893TIP3    H117643   0.714   5.414   3.693
 5893TIP3    H217644   0.815   5.302   3.700
 5894TIP3   OH217645   0.802   4.395   1.889
 5894TIP3    H117646   0.720   4.440   1.870
 5894TIP3    H217647   0.776   4.304   1.906
 5895TIP3   OH217648   6.757   4.986   2.707
 5895TIP3    H117649   6.820   5.048   2.672
 5895TIP3    H217650   6.672   5.027   2.690
 5896TIP3   OH217651   6.958   4.240   5.487
 5896TIP3    H117652   6.975   4.334   5.488
 5896TIP3    H217653   7.001   4.209   5.407
 5897TIP3   OH217654   3.621   1.038   1.984
 5897TIP3    H117655   3.613   0.946   1.958
 5897TIP3    H217656   3.553   1.051   2.050
 5898TIP3   OH217657   2.079   0.642   0.811
 5898TIP3    H117658   2.114   0.727   0.784
 5898TIP3    H217659   1.993   0.663   0.849
 5899TIP3   OH217660   5.453   3.469   5.248
 5899TIP3    H117661   5.504   3.544   5.277
 5899TIP3    H217662   5.483   3.396   5.302
 5900TIP3   OH217663   2.036   0.299   5.192
 5900TIP3    H117664   2.015   0.241   5.119
 5900TIP3    H217665   1.973   0.275   5.261
 5901TIP3   OH217666   3.443   0.663   1.456
 5901TIP3    H117667   3.376   0.729   1.475
 5901TIP3    H217668   3.394   0.586   1.429
 5902TIP3   OH217669   1.348   1.121   1.136
 5902TIP3    H117670   1.430   1.082   1.105
 5902TIP3    H217671   1.288   1.048   1.145
 5903TIP3   OH217672   5.157   3.127   0.584
 5903TIP3    H117673   5.066   3.127   0.614
 5903TIP3    H217674   5.158   3.066   0.510
 5904TIP3   OH217675   5.329   2.142   2.248
 5904TIP3    H117676   5.278   2.062   2.259
 5904TIP3    H217677   5.306   2.195   2.324
 5905TIP3   OH217678   5.344   3.185   4.608
 5905TIP3    H117679   5.328   3.261   4.665
 5905TIP3    H217680   5.304   3.112   4.655
 5906TIP3   OH217681   6.764   2.675   3.978
 5906TIP3    H117682   6.798   2.628   3.902
 5906TIP3    H217683   6.821   2.648   4.050
 5907TIP3   OH217684   6.507   0.745   0.276
 5907TIP3    H117685   6.592   0.753   0.318
 5907TIP3    H217686   6.517   0.784   0.190
 5908TIP3   OH217687   0.872   5.275   1.049
 5908TIP3    H117688   0.790   5.245   1.088
 5908TIP3    H217689   0.865   5.251   0.957
 5909TIP3   OH217690   5.213   4.340   1.165
 5909TIP3    H117691   5.164   4.262   1.140
 5909TIP3    H217692   5.298   4.330   1.123
 5910TIP3   OH217693   3.264   5.348   2.559
 5910TIP3    H117694   3.351   5.384   2.542
 5910TIP3    H217695   3.213   5.370   2.481
 5911TIP3   OH217696   0.770   4.870   1.437
 5911TIP3    H117697   0.688   4.908   1.467
 5911TIP3    H217698   0.836   4.903   1.498
 5912TIP3   OH217699   0.068   3.554   3.762
 5912TIP3    H117700   0.034   3.522   3.678
 5912TIP3    H217701   0.161   3.572   3.745
 5913TIP3   OH217702   6.930   2.773   1.641
 5913TIP3    H117703   7.016   2.814   1.637
 5913TIP3    H217704   6.911   2.767   1.735
 5914TIP3   OH217705   5.596   1.494   3.591
 5914TIP3    H117706   5.502   1.507   3.580
 5914TIP3    H217707   5.631   1.581   3.612
 5915TIP3   OH217708   0.441   6.097   4.566
 5915TIP3    H117709   0.376   6.133   4.627
 5915TIP3    H217710   0.420   6.003   4.562
 5916TIP3   OH217711   2.141   5.478   4.891
 5916TIP3    H117712   2.087   5.461   4.969
 5916TIP3    H217713   2.222   5.430   4.907
 5917TIP3   OH217714   1.638   4.189   4.325
 5917TIP3    H117715   1.551   4.226   4.311
 5917TIP3    H217716   1.623   4.095   4.331
 5918TIP3   OH217717   4.498   5.807   2.169
 5918TIP3    H117718   4.497   5.887   2.116
 5918TIP3    H217719   4.407   5.778   2.171
 5919TIP3   OH217720   2.459   3.669   2.252
 5919TIP3    H117721   2.464   3.735   2.321
 5919TIP3    H217722   2.392   3.608   2.282
 5920TIP3   OH217723   4.010   6.189   5.306
 5920TIP3    H117724   3.946   6.248   5.265
 5920TIP3    H217725   4.059   6.244   5.366
 5921TIP3   OH217726   1.662   1.801   1.378
 5921TIP3    H117727   1.642   1.772   1.289
 5921TIP3    H217728   1.609   1.881   1.390
 5922TIP3   OH217729   4.585   5.674   1.897
 5922TIP3    H117730   4.492   5.670   1.874
 5922TIP3    H217731   4.593   5.749   1.956
 5923TIP3   OH217732   3.834   5.472   5.170
 5923TIP3    H117733   3.896   5.489   5.100
 5923TIP3    H217734   3.825   5.377   5.172
 5924TIP3   OH217735   6.732   5.913   5.844
 5924TIP3    H117736   6.661   5.856   5.874
 5924TIP3    H217737   6.687   5.990   5.808
 5925TIP3   OH217738   3.459   1.496   5.047
 5925TIP3    H117739   3.403   1.570   5.071
 5925TIP3    H217740   3.425   1.423   5.098
 5926TIP3   OH217741   5.239   4.019   4.421
 5926TIP3    H117742   5.193   4.049   4.342
 5926TIP3    H217743   5.280   3.937   4.394
 5927TIP3   OH217744   5.883   5.394   3.563
 5927TIP3    H117745   5.908   5.483   3.589
 5927TIP3    H217746   5.963   5.342   3.577
 5928TIP3   OH217747   4.346   1.652   5.024
 5928TIP3    H117748   4.399   1.579   5.055
 5928TIP3    H217749   4.257   1.631   5.051
 5929TIP3   OH217750   0.262   3.448   0.572
 5929TIP3    H117751   0.323   3.393   0.523
 5929TIP3    H217752   0.236   3.394   0.647
 5930TIP3   OH217753   5.209   0.352   3.695
 5930TIP3    H117754   5.207   0.398   3.612
 5930TIP3    H217755   5.137   0.289   3.690
 5931TIP3   OH217756   5.918   5.671   3.394
 5931TIP3    H117757   5.859   5.623   3.335
 5931TIP3    H217758   5.936   5.753   3.348
 5932TIP3   OH217759   4.459   2.895   4.489
 5932TIP3    H117760   4.408   2.903   4.409
 5932TIP3    H217761   4.450   2.979   4.533
 5933TIP3   OH217762   0.321   2.945   0.434
 5933TIP3    H117763   0.280   2.858   0.441
 5933TIP3    H217764   0.386   2.946   0.504
 5934TIP3   OH217765   2.676   6.606   3.818
 5934TIP3    H117766   2.621   6.671   3.861
 5934TIP3    H217767   2.667   6.625   3.724
 5935TIP3   OH217768   2.716   2.390   4.554
 5935TIP3    H117769   2.625   2.364   4.566
 5935TIP3    H217770   2.739   2.354   4.468
 5936TIP3   OH217771   4.607   2.250   3.192
 5936TIP3    H117772   4.590   2.320   3.254
 5936TIP3    H217773   4.661   2.290   3.124
 5937TIP3   OH217774   3.470   1.429   0.015
 5937TIP3    H117775   3.520   1.507  -0.012
 5937TIP3    H217776   3.513   1.400   0.095
 5938TIP3   OH217777   1.349   2.102   3.969
 5938TIP3    H117778   1.378   2.051   3.893
 5938TIP3    H217779   1.319   2.036   4.032
 5939TIP3   OH217780   2.156   1.021   2.135
 5939TIP3    H117781   2.209   1.083   2.085
 5939TIP3    H217782   2.131   1.069   2.214
 5940TIP3   OH217783   3.664   4.089   4.873
 5940TIP3    H117784   3.660   4.161   4.936
 5940TIP3    H217785   3.688   4.013   4.925
 5941TIP3   OH217786   1.281   0.572   5.818
 5941TIP3    H117787   1.322   0.596   5.902
 5941TIP3    H217788   1.298   0.647   5.761
 5942TIP3   OH217789   0.005   0.404   1.539
 5942TIP3    H117790   0.094   0.369   1.528
 5942TIP3    H217791   0.014   0.497   1.521
 5943TIP3   OH217792   5.951   2.320   1.515
 5943TIP3    H117793   5.897   2.261   1.567
 5943TIP3    H217794   5.910   2.405   1.524
 5944TIP3   OH217795   2.775   1.830   0.365
 5944TIP3    H117796   2.748   1.902   0.422
 5944TIP3    H217797   2.842   1.783   0.414
 5945TIP3   OH217798   0.509   4.979   3.879
 5945TIP3    H117799   0.526   5.008   3.968
 5945TIP3    H217800   0.420   5.008   3.860
 5946TIP3   OH217801   5.079   4.643   5.340
 5946TIP3    H117802   4.995   4.597   5.347
 5946TIP3    H217803   5.145   4.575   5.357
 5947TIP3   OH217804   2.924   4.157   3.987
 5947TIP3    H117805   2.935   4.243   3.948
 5947TIP3    H217806   2.893   4.101   3.915
 5948TIP3   OH217807   2.863   3.556   5.879
 5948TIP3    H117808   2.785   3.582   5.829
 5948TIP3    H217809   2.926   3.626   5.863
 5949TIP3   OH217810   5.304   0.032   5.409
 5949TIP3    H117811   5.348  -0.032   5.353
 5949TIP3    H217812   5.211   0.018   5.393
 5950TIP3   OH217813   5.317   5.714   2.819
 5950TIP3    H117814   5.280   5.771   2.887
 5950TIP3    H217815   5.386   5.665   2.864
 5951TIP3   OH217816   2.257   6.697   4.015
 5951TIP3    H117817   2.291   6.749   4.089
 5951TIP3    H217818   2.162   6.704   4.023
 5952TIP3   OH217819   4.609   3.823   4.690
 5952TIP3    H117820   4.676   3.840   4.623
 5952TIP3    H217821   4.544   3.768   4.646
 5953TIP3   OH217822   3.022   1.079  -0.007
 5953TIP3    H117823   2.963   1.146   0.027
 5953TIP3    H217824   3.102   1.126  -0.029
 5954TIP3   OH217825   4.858   5.010   5.908
 5954TIP3    H117826   4.945   5.016   5.869
 5954TIP3    H217827   4.798   5.012   5.833
 5955TIP3   OH217828   6.865   2.515   5.539
 5955TIP3    H117829   6.835   2.424   5.547
 5955TIP3    H217830   6.921   2.529   5.616
 5956TIP3   OH217831   0.445   2.772   4.246
 5956TIP3    H117832   0.472   2.864   4.249
 5956TIP3    H217833   0.466   2.738   4.334
 5957TIP3   OH217834   6.237   4.586   0.528
 5957TIP3    H117835   6.244   4.675   0.495
 5957TIP3    H217836   6.324   4.566   0.562
 5958TIP3   OH217837   3.642   6.626   5.566
 5958TIP3    H117838   3.665   6.544   5.609
 5958TIP3    H217839   3.556   6.648   5.602
 5959TIP3   OH217840   6.302   4.857   0.512
 5959TIP3    H117841   6.335   4.947   0.503
 5959TIP3    H217842   6.220   4.857   0.462
 5960TIP3   OH217843   4.377   5.429   4.246
 5960TIP3    H117844   4.433   5.475   4.184
 5960TIP3    H217845   4.348   5.351   4.199
 5961TIP3   OH217846   4.873   6.466   2.347
 5961TIP3    H117847   4.929   6.409   2.295
 5961TIP3    H217848   4.899   6.555   2.322
 5962TIP3   OH217849   6.241   6.067   5.242
 5962TIP3    H117850   6.319   6.037   5.196
 5962TIP3    H217851   6.190   5.987   5.257
 5963TIP3   OH217852   1.633   3.759   1.084
 5963TIP3    H117853   1.653   3.818   1.157
 5963TIP3    H217854   1.538   3.751   1.084
 5964TIP3   OH217855   0.366   0.199   0.980
 5964TIP3    H117856   0.430   0.142   0.937
 5964TIP3    H217857   0.410   0.284   0.986
 5965TIP3   OH217858   4.809   1.335   3.254
 5965TIP3    H117859   4.879   1.399   3.251
 5965TIP3    H217860   4.773   1.342   3.343
 5966TIP3   OH217861   6.591   5.674   1.191
 5966TIP3    H117862   6.546   5.589   1.188
 5966TIP3    H217863   6.525   5.734   1.227
 5967TIP3   OH217864   3.476   2.398   1.522
 5967TIP3    H117865   3.488   2.469   1.458
 5967TIP3    H217866   3.454   2.444   1.604
 5968TIP3   OH217867   5.809   0.034   3.803
 5968TIP3    H117868   5.719   0.068   3.794
 5968TIP3    H217869   5.799  -0.047   3.852
 5969TIP3   OH217870   4.820   0.806   3.590
 5969TIP3    H117871   4.775   0.726   3.563
 5969TIP3    H217872   4.824   0.859   3.511
 5970TIP3   OH217873   3.972   2.210   5.144
 5970TIP3    H117874   4.049   2.258   5.175
 5970TIP3    H217875   3.914   2.207   5.221
 5971TIP3   OH217876   1.655   4.153   3.704
 5971TIP3    H117877   1.734   4.174   3.754
 5971TIP3    H217878   1.637   4.061   3.725
 5972TIP3   OH217879   0.797   0.597   2.506
 5972TIP3    H117880   0.842   0.637   2.581
 5972TIP3    H217881   0.723   0.656   2.488
 5973TIP3   OH217882   4.850   4.997   1.956
 5973TIP3    H117883   4.785   5.041   2.010
 5973TIP3    H217884   4.806   4.980   1.873
 5974TIP3   OH217885   2.044   4.387   2.689
 5974TIP3    H117886   2.077   4.444   2.758
 5974TIP3    H217887   2.010   4.310   2.736
 5975TIP3   OH217888   0.775   0.950   5.050
 5975TIP3    H117889   0.853   0.995   5.017
 5975TIP3    H217890   0.747   1.002   5.126
 5976TIP3   OH217891   3.486   6.558   1.415
 5976TIP3    H117892   3.397   6.552   1.380
 5976TIP3    H217893   3.541   6.575   1.338
 5977TIP3   OH217894   5.702   0.368   4.257
 5977TIP3    H117895   5.731   0.444   4.307
 5977TIP3    H217896   5.666   0.308   4.323
 5978TIP3   OH217897   7.147   2.849   2.501
 5978TIP3    H117898   7.121   2.762   2.530
 5978TIP3    H217899   7.098   2.909   2.557
 5979TIP3   OH217900   6.972   3.570   0.577
 5979TIP3    H117901   6.981   3.654   0.533
 5979TIP3    H217902   7.062   3.542   0.595
 5980TIP3   OH217903   0.486   4.155   4.284
 5980TIP3    H117904   0.521   4.067   4.294
 5980TIP3    H217905   0.453   4.178   4.370
 5981TIP3   OH217906   3.548   0.990   4.394
 5981TIP3    H117907   3.520   0.979   4.303
 5981TIP3    H217908   3.478   0.949   4.445
 5982TIP3   OH217909   5.514   5.486   4.418
 5982TIP3    H117910   5.593   5.527   4.454
 5982TIP3    H217911   5.442   5.521   4.471
 5983TIP3   OH217912   5.600   1.491  -0.016
 5983TIP3    H117913   5.642   1.468   0.067
 5983TIP3    H217914   5.609   1.586  -0.022
 5984TIP3   OH217915   4.183   2.813   3.378
 5984TIP3    H117916   4.248   2.783   3.443
 5984TIP3    H217917   4.234   2.828   3.299
 5985TIP3   OH217918   2.623   4.217   0.760
 5985TIP3    H117919   2.534   4.246   0.745
 5985TIP3    H217920   2.616   4.122   0.773
 5986TIP3   OH217921   2.868   4.230   0.328
 5986TIP3    H117922   2.805   4.220   0.399
 5986TIP3    H217923   2.926   4.154   0.336
 5987TIP3   OH217924   0.149   6.063   2.286
 5987TIP3    H117925   0.177   6.110   2.365
 5987TIP3    H217926   0.127   6.131   2.223
 5988TIP3   OH217927   5.751   6.045   3.198
 5988TIP3    H117928   5.748   6.016   3.107
 5988TIP3    H217929   5.673   6.006   3.238
 5989TIP3   OH217930   6.513   3.306   4.695
 5989TIP3    H117931   6.426   3.267   4.693
 5989TIP3    H217932   6.505   3.378   4.757
 5990TIP3   OH217933   4.326   3.945   5.728
 5990TIP3    H117934   4.338   3.954   5.822
 5990TIP3    H217935   4.401   3.991   5.690
 5991TIP3   OH217936   6.653   2.622   1.097
 5991TIP3    H117937   6.559   2.643   1.091
 5991TIP3    H217938   6.691   2.696   1.144
 5992TIP3   OH217939   2.002   0.850   4.684
 5992TIP3    H117940   1.928   0.802   4.646
 5992TIP3    H217941   2.068   0.782   4.701
 5993TIP3   OH217942   6.613   5.910   3.393
 5993TIP3    H117943   6.577   5.862   3.319
 5993TIP3    H217944   6.539   5.959   3.429
 5994TIP3   OH217945   2.062   5.117   4.995
 5994TIP3    H117946   2.013   5.072   4.926
 5994TIP3    H217947   2.130   5.054   5.020
 5995TIP3   OH217948   6.972   3.783   2.957
 5995TIP3    H117949   7.000   3.743   3.039
 5995TIP3    H217950   6.877   3.766   2.953
 5996TIP3   OH217951   4.896   2.955   5.471
 5996TIP3    H117952   4.813   2.950   5.424
 5996TIP3    H217953   4.908   2.868   5.507
 5997TIP3   OH217954   6.316   3.055   1.898
 5997TIP3    H117955   6.398   3.076   1.944
 5997TIP3    H217956   6.324   2.962   1.876
 5998TIP3   OH217957   1.601   2.243   2.514
 5998TIP3    H117958   1.666   2.176   2.492
 5998TIP3    H217959   1.642   2.294   2.584
 5999TIP3   OH217960   5.742   6.287   3.775
 5999TIP3    H117961   5.714   6.370   3.735
 5999TIP3    H217962   5.731   6.222   3.707
 6000TIP3   OH217963   5.256   2.948   4.250
 6000TIP3    H117964   5.188   3.005   4.212
 6000TIP3    H217965   5.331   2.959   4.191
 6001TIP3   OH217966   6.144   5.758   4.470
 6001TIP3    H117967   6.153   5.788   4.560
 6001TIP3    H217968   6.229   5.720   4.448
 6002TIP3   OH217969   0.124   6.507   0.370
 6002TIP3    H117970   0.168   6.466   0.295
 6002TIP3    H217971   0.030   6.500   0.349
 6003TIP3   OH217972   0.538   6.808   2.080
 6003TIP3    H117973   0.491   6.747   2.024
 6003TIP3    H217974   0.509   6.787   2.169
 6004TIP3   OH217975   2.380   1.472   2.161
 6004TIP3    H117976   2.388   1.436   2.249
 6004TIP3    H217977   2.388   1.567   2.172
 6005TIP3   OH217978   3.270   6.466   1.249
 6005TIP3    H117979   3.200   6.474   1.185
 6005TIP3    H217980   3.256   6.381   1.291
 6006TIP3   OH217981   3.469   6.199   0.643
 6006TIP3    H117982   3.508   6.257   0.578
 6006TIP3    H217983   3.505   6.112   0.623
 6007TIP3   OH217984   2.403   3.632   0.756
 6007TIP3    H117985   2.315   3.620   0.790
 6007TIP3    H217986   2.415   3.559   0.695
 6008TIP3   OH217987   0.915   2.591   4.604
 6008TIP3    H117988   0.965   2.519   4.641
 6008TIP3    H217989   0.855   2.550   4.542
 6009TIP3   OH217990   4.936   4.018   4.637
 6009TIP3    H117991   4.879   4.047   4.708
 6009TIP3    H217992   5.010   4.080   4.638
 6010TIP3   OH217993   3.257   5.414   5.611
 6010TIP3    H117994   3.326   5.479   5.600
 6010TIP3    H217995   3.176   5.462   5.594
 6011TIP3   OH217996   3.276   5.099   3.448
 6011TIP3    H117997   3.197   5.152   3.451
 6011TIP3    H217998   3.303   5.100   3.356
 6012TIP3   OH217999   1.765   4.615   5.758
 6012TIP3    H118000   1.764   4.690   5.699
 6012TIP3    H218001   1.721   4.645   5.837
 6013TIP3   OH218002   1.765   1.135   0.967
 6013TIP3    H118003   1.701   1.130   0.896
 6013TIP3    H218004   1.746   1.218   1.011
 6014TIP3   OH218005   2.635   0.636   4.082
 6014TIP3    H118006   2.553   0.632   4.131
 6014TIP3    H218007   2.641   0.551   4.038
 6015TIP3   OH218008   2.479   2.390   4.002
 6015TIP3    H118009   2.539   2.456   3.968
 6015TIP3    H218010   2.432   2.435   4.073
 6016TIP3   OH218011   0.414   0.728   0.815
 6016TIP3    H118012   0.499   0.717   0.857
 6016TIP3    H218013   0.384   0.814   0.844
 6017TIP3   OH218014   7.146   4.333   3.069
 6017TIP3    H118015   7.061   4.371   3.046
 6017TIP3    H218016   7.208   4.379   3.011
 6018TIP3   OH218017   1.078   5.204   5.207
 6018TIP3    H118018   1.156   5.147   5.207
 6018TIP3    H218019   1.020   5.167   5.141
 6019TIP3   OH218020   6.799   3.011   4.719
 6019TIP3    H118021   6.805   2.933   4.664
 6019TIP3    H218022   6.878   3.008   4.773
 6020TIP3   OH218023   0.475   3.625   5.724
 6020TIP3    H118024   0.532   3.681   5.777
 6020TIP3    H218025   0.491   3.652   5.634
 6021TIP3   OH218026   2.260   6.207   3.774
 6021TIP3    H118027   2.243   6.278   3.712
 6021TIP3    H218028   2.242   6.246   3.860
 6022TIP3   OH218029   4.178   1.205   3.519
 6022TIP3    H118030   4.163   1.122   3.475
 6022TIP3    H218031   4.270   1.225   3.503
 6023TIP3   OH218032   4.268   1.378   1.029
 6023TIP3    H118033   4.241   1.390   0.938
 6023TIP3    H218034   4.186   1.369   1.078
 6024TIP3   OH218035   7.139   5.452   0.831
 6024TIP3    H118036   7.097   5.467   0.916
 6024TIP3    H218037   7.198   5.526   0.819
 6025TIP3   OH218038   2.073   4.107   4.902
 6025TIP3    H118039   2.124   4.055   4.963
 6025TIP3    H218040   2.103   4.079   4.815
 6026TIP3   OH218041   5.486   6.090   1.480
 6026TIP3    H118042   5.485   5.996   1.466
 6026TIP3    H218043   5.474   6.128   1.393
 6027TIP3   OH218044   3.407   6.231   5.098
 6027TIP3    H118045   3.398   6.310   5.046
 6027TIP3    H218046   3.479   6.183   5.058
 6028TIP3   OH218047   6.445   6.431   0.428
 6028TIP3    H118048   6.432   6.489   0.503
 6028TIP3    H218049   6.490   6.355   0.464
 6029TIP3   OH218050   0.326   1.338   3.710
 6029TIP3    H118051   0.319   1.292   3.626
 6029TIP3    H218052   0.241   1.382   3.720
 6030TIP3   OH218053   3.158   0.239   4.203
 6030TIP3    H118054   3.237   0.202   4.163
 6030TIP3    H218055   3.114   0.285   4.132
 6031TIP3   OH218056   2.043   2.597   4.051
 6031TIP3    H118057   1.981   2.655   4.006
 6031TIP3    H218058   2.028   2.511   4.011
 6032TIP3   OH218059   0.497   3.402   4.241
 6032TIP3    H118060   0.548   3.350   4.302
 6032TIP3    H218061   0.443   3.338   4.194
 6033TIP3   OH218062   5.363   3.889   2.727
 6033TIP3    H118063   5.291   3.876   2.788
 6033TIP3    H218064   5.348   3.825   2.657
 6034TIP3   OH218065   6.538   5.861   0.460
 6034TIP3    H118066   6.462   5.809   0.485
 6034TIP3    H218067   6.613   5.805   0.480
 6035TIP3   OH218068   2.438   0.268   3.733
 6035TIP3    H118069   2.439   0.278   3.638
 6035TIP3    H218070   2.367   0.326   3.763
 6036TIP3   OH218071   1.212   6.563   3.441
 6036TIP3    H118072   1.296   6.555   3.486
 6036TIP3    H218073   1.169   6.479   3.455
 6037TIP3   OH218074   2.298   0.037   4.476
 6037TIP3    H118075   2.205   0.058   4.477
 6037TIP3    H218076   2.342   0.122   4.477
 6038TIP3   OH218077   2.027   3.491   3.169
 6038TIP3    H118078   2.115   3.503   3.134
 6038TIP3    H218079   1.973   3.552   3.119
 6039TIP3   OH218080   0.577   0.730   0.393
 6039TIP3    H118081   0.566   0.820   0.362
 6039TIP3    H218082   0.518   0.679   0.337
 6040TIP3   OH218083   4.174   0.430   3.310
 6040TIP3    H118084   4.231   0.443   3.234
 6040TIP3    H218085   4.179   0.336   3.328
 6041TIP3   OH218086   6.691   1.883   5.197
 6041TIP3    H118087   6.670   1.816   5.262
 6041TIP3    H218088   6.774   1.853   5.159
 6042TIP3   OH218089   6.007   3.223   5.736
 6042TIP3    H118090   5.995   3.290   5.668
 6042TIP3    H218091   5.960   3.257   5.812
 6043TIP3   OH218092   0.268   4.533   4.575
 6043TIP3    H118093   0.238   4.619   4.604
 6043TIP3    H218094   0.190   4.478   4.583
 6044TIP3   OH218095   1.957   1.989   0.754
 6044TIP3    H118096   1.980   1.992   0.661
 6044TIP3    H218097   2.026   2.038   0.797
 6045TIP3   OH218098   6.241   2.436   5.537
 6045TIP3    H118099   6.228   2.522   5.498
 6045TIP3    H218100   6.290   2.386   5.472
 6046TIP3   OH218101   4.621   1.363   2.648
 6046TIP3    H118102   4.701   1.406   2.618
 6046TIP3    H218103   4.565   1.435   2.677
 6047TIP3   OH218104   0.400   2.789   4.835
 6047TIP3    H118105   0.328   2.780   4.898
 6047TIP3    H218106   0.410   2.702   4.798
 6048TIP3   OH218107   4.974   2.356   5.827
 6048TIP3    H118108   4.947   2.313   5.746
 6048TIP3    H218109   4.998   2.445   5.801
 6049TIP3   OH218110   4.582   5.421   3.017
 6049TIP3    H118111   4.638   5.347   3.041
 6049TIP3    H218112   4.521   5.430   3.091
 6050TIP3   OH218113   0.638   3.901   0.787
 6050TIP3    H118114   0.626   3.816   0.828
 6050TIP3    H218115   0.732   3.919   0.797
 6051TIP3   OH218116   2.412   6.803   1.880
 6051TIP3    H118117   2.369   6.789   1.964
 6051TIP3    H218118   2.472   6.729   1.871
 6052TIP3   OH218119   5.659   1.739   1.831
 6052TIP3    H118120   5.582   1.688   1.806
 6052TIP3    H218121   5.643   1.827   1.796
 6053TIP3   OH218122   2.811   5.907   3.993
 6053TIP3    H118123   2.836   5.996   4.019
 6053TIP3    H218124   2.787   5.915   3.901
 6054TIP3   OH218125   3.484   0.570   4.395
 6054TIP3    H118126   3.566   0.524   4.376
 6054TIP3    H218127   3.420   0.500   4.410
 6055TIP3   OH218128   2.437   5.346   5.508
 6055TIP3    H118129   2.489   5.279   5.552
 6055TIP3    H218130   2.352   5.306   5.495
 6056TIP3   OH218131   2.088   3.023   1.772
 6056TIP3    H118132   2.172   2.994   1.809
 6056TIP3    H218133   2.030   3.029   1.848
 6057TIP3   OH218134   3.618   0.235   3.906
 6057TIP3    H118135   3.653   0.296   3.840
 6057TIP3    H218136   3.604   0.290   3.984
 6058TIP3   OH218137   2.351   5.591   2.820
 6058TIP3    H118138   2.291   5.664   2.835
 6058TIP3    H218139   2.384   5.569   2.907
 6059TIP3   OH218140   3.140   5.450   3.073
 6059TIP3    H118141   3.153   5.355   3.074
 6059TIP3    H218142   3.129   5.473   3.165
 6060TIP3   OH218143   5.327   3.374   2.641
 6060TIP3    H118144   5.288   3.315   2.705
 6060TIP3    H218145   5.384   3.431   2.693
 6061TIP3   OH218146   2.993   1.702   0.501
 6061TIP3    H118147   3.063   1.755   0.539
 6061TIP3    H218148   3.022   1.612   0.515
 6062TIP3   OH218149   5.513   6.604   1.597
 6062TIP3    H118150   5.484   6.566   1.514
 6062TIP3    H218151   5.536   6.695   1.576
 6063TIP3   OH218152   4.529   0.410   1.666
 6063TIP3    H118153   4.504   0.499   1.640
 6063TIP3    H218154   4.522   0.358   1.586
 6064TIP3   OH218155   1.951   3.586   1.917
 6064TIP3    H118156   1.986   3.672   1.893
 6064TIP3    H218157   2.002   3.560   1.993
 6065TIP3   OH218158   4.680   1.926   1.639
 6065TIP3    H118159   4.641   2.006   1.673
 6065TIP3    H218160   4.606   1.870   1.618
 6066TIP3   OH218161   3.618   2.903   0.757
 6066TIP3    H118162   3.670   2.827   0.733
 6066TIP3    H218163   3.539   2.897   0.703
 6067TIP3   OH218164   1.893   2.908   1.163
 6067TIP3    H118165   1.921   2.938   1.077
 6067TIP3    H218166   1.806   2.946   1.175
 6068TIP3   OH218167   1.705   5.859   1.380
 6068TIP3    H118168   1.722   5.870   1.286
 6068TIP3    H218169   1.659   5.939   1.405
 6069TIP3   OH218170   3.332   2.153   1.029
 6069TIP3    H118171   3.329   2.216   1.101
 6069TIP3    H218172   3.423   2.157   0.998
 6070TIP3   OH218173   2.893   4.140   4.924
 6070TIP3    H118174   2.826   4.072   4.922
 6070TIP3    H218175   2.968   4.100   4.880
 6071TIP3   OH218176   0.665   6.516   2.363
 6071TIP3    H118177   0.597   6.583   2.365
 6071TIP3    H218178   0.747   6.564   2.357
 6072TIP3   OH218179   3.753   6.594   4.488
 6072TIP3    H118180   3.825   6.624   4.432
 6072TIP3    H218181   3.723   6.674   4.532
 6073TIP3   OH218182   4.937   2.354   0.693
 6073TIP3    H118183   5.010   2.390   0.744
 6073TIP3    H218184   4.976   2.330   0.609
 6074TIP3   OH218185   3.258   4.907   1.229
 6074TIP3    H118186   3.249   4.995   1.268
 6074TIP3    H218187   3.273   4.850   1.304
 6075TIP3   OH218188   1.780   0.500   1.822
 6075TIP3    H118189   1.719   0.443   1.776
 6075TIP3    H218190   1.764   0.588   1.787
 6076TIP3   OH218191   6.515   4.886   2.181
 6076TIP3    H118192   6.561   4.899   2.264
 6076TIP3    H218193   6.447   4.954   2.180
 6077TIP3   OH218194   2.188   5.302   3.843
 6077TIP3    H118195   2.146   5.273   3.762
 6077TIP3    H218196   2.151   5.246   3.911
 6078TIP3   OH218197   5.442   2.842   5.619
 6078TIP3    H118198   5.389   2.897   5.561
 6078TIP3    H218199   5.513   2.811   5.563
 6079TIP3   OH218200   1.807   5.581   0.360
 6079TIP3    H118201   1.714   5.589   0.381
 6079TIP3    H218202   1.825   5.655   0.302
 6080TIP3   OH218203   5.509   1.505   1.799
 6080TIP3    H118204   5.435   1.480   1.743
 6080TIP3    H218205   5.565   1.427   1.802
 6081TIP3   OH218206   5.589   4.826   4.743
 6081TIP3    H118207   5.660   4.828   4.807
 6081TIP3    H218208   5.514   4.791   4.791
 6082TIP3   OH218209   4.136   6.337   1.911
 6082TIP3    H118210   4.065   6.325   1.847
 6082TIP3    H218211   4.102   6.299   1.992
 6083TIP3   OH218212   6.253   0.984   2.713
 6083TIP3    H118213   6.188   0.913   2.710
 6083TIP3    H218214   6.251   1.015   2.803
 6084TIP3   OH218215   1.647   4.867   4.878
 6084TIP3    H118216   1.565   4.915   4.891
 6084TIP3    H218217   1.624   4.776   4.894
 6085TIP3   OH218218   6.036   4.108   3.073
 6085TIP3    H118219   6.090   4.038   3.110
 6085TIP3    H218220   6.100   4.172   3.041
 6086TIP3   OH218221   3.401   4.334   1.813
 6086TIP3    H118222   3.443   4.257   1.774
 6086TIP3    H218223   3.439   4.341   1.900
 6087TIP3   OH218224   6.021   6.489   1.219
 6087TIP3    H118225   6.104   6.441   1.213
 6087TIP3    H218226   6.040   6.562   1.277
 6088TIP3   OH218227   5.655   4.400   0.371
 6088TIP3    H118228   5.581   4.420   0.314
 6088TIP3    H218229   5.630   4.434   0.456
 6089TIP3   OH218230   0.822   0.427   1.770
 6089TIP3    H118231   0.838   0.514   1.736
 6089TIP3    H218232   0.906   0.382   1.765
 6090TIP3   OH218233   6.169   5.983   3.806
 6090TIP3    H118234   6.090   5.932   3.789
 6090TIP3    H218235   6.178   5.983   3.901
 6091TIP3   OH218236   4.554   2.714   4.688
 6091TIP3    H118237   4.515   2.630   4.711
 6091TIP3    H218238   4.520   2.733   4.601
 6092TIP3   OH218239   6.545   1.876   2.485
 6092TIP3    H118240   6.619   1.817   2.503
 6092TIP3    H218241   6.468   1.819   2.486
 6093TIP3   OH218242   5.589   1.300   3.860
 6093TIP3    H118243   5.593   1.218   3.908
 6093TIP3    H218244   5.546   1.278   3.777
 6094TIP3   OH218245   5.330   1.534   0.914
 6094TIP3    H118246   5.300   1.445   0.891
 6094TIP3    H218247   5.303   1.588   0.839
 6095TIP3   OH218248   2.237   5.488   4.211
 6095TIP3    H118249   2.149   5.460   4.234
 6095TIP3    H218250   2.225   5.578   4.178
 6096TIP3   OH218251   1.947   3.121   0.043
 6096TIP3    H118252   1.956   3.059   0.115
 6096TIP3    H218253   1.997   3.081  -0.029
 6097TIP3   OH218254   3.447   2.008   4.585
 6097TIP3    H118255   3.415   1.950   4.654
 6097TIP3    H218256   3.525   2.049   4.621
 6098TIP3   OH218257   2.362   2.622   2.118
 6098TIP3    H118258   2.373   2.577   2.034
 6098TIP3    H218259   2.274   2.599   2.147
 6099TIP3   OH218260   4.123   1.295   1.567
 6099TIP3    H118261   4.097   1.241   1.492
 6099TIP3    H218262   4.136   1.232   1.638
 6100TIP3   OH218263   3.967   0.817   2.823
 6100TIP3    H118264   3.953   0.752   2.754
 6100TIP3    H218265   3.918   0.894   2.793
 6101TIP3   OH218266   2.964   0.365   3.924
 6101TIP3    H118267   2.971   0.289   3.866
 6101TIP3    H218268   2.870   0.379   3.934
 6102TIP3   OH218269   6.948   5.007   4.386
 6102TIP3    H118270   6.890   4.967   4.321
 6102TIP3    H218271   6.906   5.090   4.407
 6103TIP3   OH218272   6.978   5.914   2.450
 6103TIP3    H118273   7.008   5.859   2.377
 6103TIP3    H218274   7.040   5.987   2.452
 6104TIP3   OH218275   0.991   0.687   1.835
 6104TIP3    H118276   1.055   0.759   1.834
 6104TIP3    H218277   1.025   0.626   1.901
 6105TIP3   OH218278   4.389   3.676   4.617
 6105TIP3    H118279   4.306   3.714   4.590
 6105TIP3    H218280   4.375   3.649   4.708
 6106TIP3   OH218281   5.021   0.497   2.601
 6106TIP3    H118282   4.997   0.404   2.606
 6106TIP3    H218283   5.066   0.505   2.516
 6107TIP3   OH218284   2.825   5.060   5.181
 6107TIP3    H118285   2.900   5.115   5.160
 6107TIP3    H218286   2.860   4.994   5.242
 6108TIP3   OH218287   6.867   5.383   0.128
 6108TIP3    H118288   6.781   5.374   0.086
 6108TIP3    H218289   6.847   5.406   0.219
 6109TIP3   OH218290   5.485   5.352   3.336
 6109TIP3    H118291   5.412   5.408   3.310
 6109TIP3    H218292   5.456   5.263   3.317
 6110TIP3   OH218293   2.261   5.061   0.274
 6110TIP3    H118294   2.180   5.106   0.247
 6110TIP3    H218295   2.327   5.093   0.213
 6111TIP3   OH218296   0.229   3.587   1.934
 6111TIP3    H118297   0.301   3.636   1.974
 6111TIP3    H218298   0.167   3.573   2.006
 6112TIP3   OH218299   4.381   1.265   3.722
 6112TIP3    H118300   4.301   1.266   3.774
 6112TIP3    H218301   4.398   1.357   3.703
 6113TIP3   OH218302   3.679  -0.006   5.010
 6113TIP3    H118303   3.690   0.086   4.986
 6113TIP3    H218304   3.761  -0.031   5.051
 6114TIP3   OH218305   2.858   5.278   3.148
 6114TIP3    H118306   2.852   5.228   3.229
 6114TIP3    H218307   2.931   5.238   3.100
 6115TIP3   OH218308   6.255   1.512   5.667
 6115TIP3    H118309   6.298   1.496   5.751
 6115TIP3    H218310   6.309   1.578   5.624
 6116TIP3   OH218311   0.126   2.657   5.360
 6116TIP3    H118312   0.062   2.703   5.307
 6116TIP3    H218313   0.207   2.706   5.349
 6117TIP3   OH218314   6.327   1.674   2.422
 6117TIP3    H118315   6.338   1.603   2.485
 6117TIP3    H218316   6.248   1.650   2.373
 6118TIP3   OH218317   2.837   1.015   5.424
 6118TIP3    H118318   2.931   1.026   5.410
 6118TIP3    H218319   2.817   0.929   5.386
 6119TIP3   OH218320   1.964   6.163   1.918
 6119TIP3    H118321   1.991   6.168   1.826
 6119TIP3    H218322   2.034   6.209   1.966
 6120TIP3   OH218323   6.969   6.657   2.425
 6120TIP3    H118324   6.944   6.575   2.468
 6120TIP3    H218325   7.062   6.667   2.446
 6121TIP3   OH218326   0.894   4.158   2.464
 6121TIP3    H118327   0.893   4.227   2.530
 6121TIP3    H218328   0.802   4.146   2.441
 6122TIP3   OH218329   2.184   6.486   0.191
 6122TIP3    H118330   2.231   6.509   0.271
 6122TIP3    H218331   2.097   6.460   0.220
 6123TIP3   OH218332   3.800   1.668   3.406
 6123TIP3    H118333   3.713   1.647   3.373
 6123TIP3    H218334   3.807   1.618   3.488
 6124TIP3   OH218335   6.645   0.924   5.033
 6124TIP3    H118336   6.653   0.833   5.061
 6124TIP3    H218337   6.730   0.963   5.054
 6125TIP3   OH218338   0.685   3.166   2.750
 6125TIP3    H118339   0.729   3.111   2.685
 6125TIP3    H218340   0.757   3.209   2.797
 6126TIP3   OH218341   0.668   1.224   2.577
 6126TIP3    H118342   0.603   1.283   2.615
 6126TIP3    H218343   0.616   1.151   2.543
 6127TIP3   OH218344   1.750   1.724   3.818
 6127TIP3    H118345   1.796   1.801   3.783
 6127TIP3    H218346   1.819   1.665   3.845
 6128TIP3   OH218347   3.294   2.463   2.877
 6128TIP3    H118348   3.237   2.523   2.926
 6128TIP3    H218349   3.241   2.438   2.801
 6129TIP3   OH218350   0.021   1.059   3.414
 6129TIP3    H118351  -0.061   1.089   3.453
 6129TIP3    H218352   0.080   1.133   3.423
 6130TIP3   OH218353   4.272   0.649   5.658
 6130TIP3    H118354   4.216   0.664   5.734
 6130TIP3    H218355   4.212   0.647   5.584
 6131TIP3   OH218356   1.005   5.389   1.810
 6131TIP3    H118357   0.926   5.357   1.854
 6131TIP3    H218358   1.062   5.313   1.804
 6132TIP3   OH218359   3.821   6.414   4.960
 6132TIP3    H118360   3.777   6.481   4.909
 6132TIP3    H218361   3.898   6.458   4.996
 6133TIP3   OH218362   3.616   0.795   1.089
 6133TIP3    H118363   3.689   0.769   1.033
 6133TIP3    H218364   3.657   0.820   1.172
 6134TIP3   OH218365   1.208   6.675   2.112
 6134TIP3    H118366   1.209   6.740   2.042
 6134TIP3    H218367   1.169   6.597   2.072
 6135TIP3   OH218368   5.496   2.560   0.343
 6135TIP3    H118369   5.550   2.602   0.277
 6135TIP3    H218370   5.425   2.622   0.360
 6136TIP3   OH218371   5.741   6.688   5.417
 6136TIP3    H118372   5.782   6.763   5.459
 6136TIP3    H218373   5.705   6.722   5.335
 6137TIP3   OH218374   0.669   5.995   2.410
 6137TIP3    H118375   0.757   5.983   2.375
 6137TIP3    H218376   0.627   5.909   2.401
 6138TIP3   OH218377   3.402   1.441   1.803
 6138TIP3    H118378   3.311   1.410   1.802
 6138TIP3    H218379   3.453   1.365   1.832
 6139TIP3   OH218380   3.756   1.986   1.704
 6139TIP3    H118381   3.811   2.032   1.766
 6139TIP3    H218382   3.759   1.894   1.732
 6140TIP3   OH218383   0.487   2.127   4.745
 6140TIP3    H118384   0.502   2.220   4.760
 6140TIP3    H218385   0.551   2.103   4.678
 6141TIP3   OH218386   5.769   6.164   2.396
 6141TIP3    H118387   5.832   6.203   2.457
 6141TIP3    H218388   5.804   6.184   2.309
 6142TIP3   OH218389   3.659   3.642   2.865
 6142TIP3    H118390   3.675   3.668   2.774
 6142TIP3    H218391   3.576   3.685   2.888
 6143TIP3   OH218392   6.820   3.456   5.662
 6143TIP3    H118393   6.894   3.405   5.695
 6143TIP3    H218394   6.756   3.390   5.635
 6144TIP3   OH218395   1.222   5.676   0.062
 6144TIP3    H118396   1.271   5.741   0.011
 6144TIP3    H218397   1.130   5.693   0.038
 6145TIP3   OH218398   6.859   6.274   0.041
 6145TIP3    H118399   6.857   6.369   0.044
 6145TIP3    H218400   6.812   6.245   0.119
 6146TIP3   OH218401   0.714   0.928   4.320
 6146TIP3    H118402   0.664   0.867   4.266
 6146TIP3    H218403   0.661   0.937   4.400
 6147TIP3   OH218404   3.801   1.406   5.304
 6147TIP3    H118405   3.807   1.449   5.219
 6147TIP3    H218406   3.731   1.342   5.294
 6148TIP3   OH218407   5.871   3.913   2.872
 6148TIP3    H118408   5.917   3.986   2.830
 6148TIP3    H218409   5.941   3.852   2.895
 6149TIP3   OH218410   0.196   6.689   1.234
 6149TIP3    H118411   0.239   6.768   1.267
 6149TIP3    H218412   0.117   6.720   1.190
 6150TIP3   OH218413   3.193   3.127   5.785
 6150TIP3    H118414   3.105   3.089   5.784
 6150TIP3    H218415   3.250   3.054   5.809
 6151TIP3   OH218416   6.188   5.330   4.603
 6151TIP3    H118417   6.117   5.378   4.560
 6151TIP3    H218418   6.156   5.317   4.693
 6152TIP3   OH218419   6.714   5.884   4.944
 6152TIP3    H118420   6.690   5.970   4.909
 6152TIP3    H218421   6.799   5.864   4.904
 6153TIP3   OH218422   7.111   1.077   5.863
 6153TIP3    H118423   7.072   1.164   5.866
 6153TIP3    H218424   7.201   1.092   5.831
 6154TIP3   OH218425   0.986   3.337   4.322
 6154TIP3    H118426   0.914   3.319   4.261
 6154TIP3    H218427   1.064   3.343   4.266
 6155TIP3   OH218428   3.665   3.831   3.648
 6155TIP3    H118429   3.741   3.888   3.658
 6155TIP3    H218430   3.590   3.888   3.668
 6156TIP3   OH218431   6.245   0.123   5.497
 6156TIP3    H118432   6.184   0.049   5.500
 6156TIP3    H218433   6.221   0.177   5.572
 6157TIP3   OH218434   2.058   1.078   5.362
 6157TIP3    H118435   2.042   1.149   5.424
 6157TIP3    H218436   2.140   1.102   5.319
 6158TIP3   OH218437   6.797   3.801   2.680
 6158TIP3    H118438   6.745   3.721   2.680
 6158TIP3    H218439   6.745   3.863   2.629
 6159TIP3   OH218440   4.703   4.711   3.783
 6159TIP3    H118441   4.758   4.773   3.735
 6159TIP3    H218442   4.759   4.635   3.797
 6160TIP3   OH218443   0.862   4.220   5.610
 6160TIP3    H118444   0.783   4.167   5.612
 6160TIP3    H218445   0.933   4.159   5.628
 6161TIP3   OH218446   1.367   6.494   3.792
 6161TIP3    H118447   1.314   6.557   3.839
 6161TIP3    H218448   1.311   6.416   3.784
 6162TIP3   OH218449   4.133   3.052   0.428
 6162TIP3    H118450   4.203   2.992   0.403
 6162TIP3    H218451   4.055   2.996   0.436
 6163TIP3   OH218452   6.655   3.930   0.392
 6163TIP3    H118453   6.678   4.014   0.431
 6163TIP3    H218454   6.719   3.918   0.322
 6164TIP3   OH218455   4.900   6.322   0.026
 6164TIP3    H118456   4.829   6.380  -0.001
 6164TIP3    H218457   4.922   6.352   0.114
 6165TIP3   OH218458   1.504  -0.004   0.908
 6165TIP3    H118459   1.458   0.049   0.972
 6165TIP3    H218460   1.523   0.056   0.836
 6166TIP3   OH218461   6.972   2.656   4.438
 6166TIP3    H118462   6.951   2.728   4.377
 6166TIP3    H218463   6.898   2.596   4.429
 6167TIP3   OH218464   2.769   6.252   5.680
 6167TIP3    H118465   2.850   6.289   5.643
 6167TIP3    H218466   2.729   6.326   5.726
 6168TIP3   OH218467   2.415   5.180   0.075
 6168TIP3    H118468   2.471   5.239   0.127
 6168TIP3    H218469   2.466   5.164  -0.004
 6169TIP3   OH218470   4.901   5.554   3.641
 6169TIP3    H118471   4.843   5.600   3.580
 6169TIP3    H218472   4.984   5.547   3.594
 6170TIP3   OH218473   6.265   5.438   3.390
 6170TIP3    H118474   6.183   5.416   3.433
 6170TIP3    H218475   6.333   5.413   3.453
 6171TIP3   OH218476   2.702   4.104   5.928
 6171TIP3    H118477   2.608   4.082   5.929
 6171TIP3    H218478   2.723   4.116   5.836
 6172TIP3   OH218479   7.062   2.521   5.070
 6172TIP3    H118480   7.063   2.509   5.165
 6172TIP3    H218481   6.991   2.583   5.054
 6173TIP3   OH218482   6.699   0.777   2.711
 6173TIP3    H118483   6.773   0.738   2.664
 6173TIP3    H218484   6.668   0.707   2.769
 6174TIP3   OH218485   5.352   0.097   2.284
 6174TIP3    H118486   5.356   0.002   2.280
 6174TIP3    H218487   5.269   0.115   2.330
 6175TIP3   OH218488   3.831   0.603   2.350
 6175TIP3    H118489   3.863   0.523   2.391
 6175TIP3    H218490   3.774   0.573   2.280
 6176TIP3   OH218491   3.591   6.388   4.584
 6176TIP3    H118492   3.656   6.438   4.536
 6176TIP3    H218493   3.574   6.439   4.663
 6177TIP3   OH218494   3.764   2.725   1.289
 6177TIP3    H118495   3.757   2.688   1.376
 6177TIP3    H218496   3.842   2.684   1.251
 6178TIP3   OH218497   1.238   2.700   2.583
 6178TIP3    H118498   1.221   2.794   2.586
 6178TIP3    H218499   1.224   2.670   2.673
 6179TIP3   OH218500   5.701   1.673   2.097
 6179TIP3    H118501   5.689   1.700   2.006
 6179TIP3    H218502   5.693   1.578   2.095
 6180TIP3   OH218503   3.714   5.858   5.265
 6180TIP3    H118504   3.736   5.782   5.319
 6180TIP3    H218505   3.622   5.846   5.244
 6181TIP3   OH218506   1.661   1.510   1.806
 6181TIP3    H118507   1.682   1.419   1.789
 6181TIP3    H218508   1.726   1.560   1.756
 6182TIP3   OH218509   3.812   5.342   4.634
 6182TIP3    H118510   3.765   5.375   4.558
 6182TIP3    H218511   3.791   5.249   4.637
 6183TIP3   OH218512   5.185   3.252   2.409
 6183TIP3    H118513   5.262   3.244   2.353
 6183TIP3    H218514   5.215   3.304   2.484
 6184TIP3   OH218515   1.438   4.369   3.358
 6184TIP3    H118516   1.345   4.352   3.372
 6184TIP3    H218517   1.446   4.465   3.365
 6185TIP3   OH218518   2.188   1.286   4.578
 6185TIP3    H118519   2.109   1.255   4.536
 6185TIP3    H218520   2.157   1.334   4.655
 6186TIP3   OH218521   0.932   1.875   5.405
 6186TIP3    H118522   1.017   1.901   5.368
 6186TIP3    H218523   0.870   1.938   5.370
 6187TIP3   OH218524   2.304   1.888   3.413
 6187TIP3    H118525   2.336   1.955   3.353
 6187TIP3    H218526   2.382   1.838   3.437
 6188TIP3   OH218527   2.229   4.395   1.769
 6188TIP3    H118528   2.293   4.425   1.706
 6188TIP3    H218529   2.278   4.334   1.825
 6189TIP3   OH218530   4.326   2.838   3.142
 6189TIP3    H118531   4.319   2.928   3.111
 6189TIP3    H218532   4.308   2.784   3.065
 6190TIP3   OH218533   5.497   6.379   4.939
 6190TIP3    H118534   5.444   6.404   5.015
 6190TIP3    H218535   5.533   6.461   4.907
 6191TIP3   OH218536   1.987   1.352   3.007
 6191TIP3    H118537   2.044   1.280   3.033
 6191TIP3    H218538   1.989   1.352   2.912
 6192TIP3   OH218539   2.335   2.349   0.960
 6192TIP3    H118540   2.404   2.287   0.937
 6192TIP3    H218541   2.358   2.380   1.048
 6193TIP3   OH218542   1.920   4.001   2.383
 6193TIP3    H118543   1.859   3.993   2.457
 6193TIP3    H218544   1.944   4.093   2.381
 6194TIP3   OH218545   4.559   3.541   5.141
 6194TIP3    H118546   4.498   3.569   5.073
 6194TIP3    H218547   4.508   3.544   5.222
 6195TIP3   OH218548   3.887   1.289   0.180
 6195TIP3    H118549   3.794   1.280   0.200
 6195TIP3    H218550   3.890   1.307   0.086
 6196TIP3   OH218551   5.047   1.503   3.296
 6196TIP3    H118552   5.136   1.469   3.305
 6196TIP3    H218553   5.050   1.555   3.216
 6197TIP3   OH218554   1.288   1.231   5.200
 6197TIP3    H118555   1.283   1.286   5.278
 6197TIP3    H218556   1.236   1.278   5.135
 6198TIP3   OH218557   5.044   2.507   3.183
 6198TIP3    H118558   5.061   2.537   3.094
 6198TIP3    H218559   4.982   2.435   3.173
 6199TIP3   OH218560   1.113   4.581   0.946
 6199TIP3    H118561   1.136   4.580   1.039
 6199TIP3    H218562   1.127   4.492   0.916
 6200TIP3   OH218563   5.423   1.934   2.812
 6200TIP3    H118564   5.421   1.951   2.906
 6200TIP3    H218565   5.436   2.019   2.772
 6201TIP3   OH218566   2.969   0.366   5.829
 6201TIP3    H118567   2.880   0.371   5.864
 6201TIP3    H218568   3.007   0.290   5.874
 6202TIP3   OH218569   2.159   6.003   1.331
 6202TIP3    H118570   2.201   6.000   1.245
 6202TIP3    H218571   2.232   6.011   1.393
 6203TIP3   OH218572   0.501   1.384   2.719
 6203TIP3    H118573   0.493   1.344   2.806
 6203TIP3    H218574   0.414   1.375   2.681
 6204TIP3   OH218575   6.107   4.310   2.046
 6204TIP3    H118576   6.139   4.278   2.131
 6204TIP3    H218577   6.183   4.303   1.989
 6205TIP3   OH218578   3.738   0.390   1.877
 6205TIP3    H118579   3.675   0.320   1.892
 6205TIP3    H218580   3.819   0.359   1.916
 6206TIP3   OH218581   0.916   0.547   0.364
 6206TIP3    H118582   0.846   0.535   0.301
 6206TIP3    H218583   0.958   0.629   0.339
 6207TIP3   OH218584   0.187   3.831   2.339
 6207TIP3    H118585   0.251   3.818   2.269
 6207TIP3    H218586   0.102   3.821   2.297
 6208TIP3   OH218587   7.008   3.542   1.806
 6208TIP3    H118588   6.990   3.466   1.750
 6208TIP3    H218589   6.922   3.568   1.839
 6209TIP3   OH218590   7.071   4.207   1.688
 6209TIP3    H118591   7.114   4.287   1.717
 6209TIP3    H218592   7.119   4.137   1.731
 6210TIP3   OH218593   5.116   4.103   2.031
 6210TIP3    H118594   5.072   4.053   1.962
 6210TIP3    H218595   5.148   4.182   1.986
 6211TIP3   OH218596   6.396   6.246   5.635
 6211TIP3    H118597   6.337   6.199   5.577
 6211TIP3    H218598   6.406   6.332   5.594
 6212TIP3   OH218599   6.206   5.230   5.771
 6212TIP3    H118600   6.300   5.222   5.759
 6212TIP3    H218601   6.183   5.313   5.731
 6213TIP3   OH218602   3.143   1.612   3.937
 6213TIP3    H118603   3.060   1.601   3.983
 6213TIP3    H218604   3.210   1.596   4.003
 6214TIP3   OH218605   3.166   4.529   1.478
 6214TIP3    H118606   3.177   4.461   1.544
 6214TIP3    H218607   3.173   4.484   1.394
 6215TIP3   OH218608   0.319   3.345   3.915
 6215TIP3    H118609   0.243   3.312   3.867
 6215TIP3    H218610   0.301   3.438   3.929
 6216TIP3   OH218611   1.621   3.131   4.315
 6216TIP3    H118612   1.643   3.090   4.399
 6216TIP3    H218613   1.683   3.203   4.307
 6217TIP3   OH218614   1.401   5.855   5.572
 6217TIP3    H118615   1.449   5.883   5.495
 6217TIP3    H218616   1.437   5.769   5.594
 6218TIP3   OH218617   2.018   0.504   2.300
 6218TIP3    H118618   1.958   0.429   2.296
 6218TIP3    H218619   2.052   0.511   2.211
 6219TIP3   OH218620   6.262   5.796   0.722
 6219TIP3    H118621   6.299   5.881   0.747
 6219TIP3    H218622   6.324   5.732   0.758
 6220TIP3   OH218623   7.022   5.588   2.720
 6220TIP3    H118624   7.089   5.584   2.652
 6220TIP3    H218625   7.051   5.659   2.778
 6221TIP3   OH218626   6.810   6.412   0.763
 6221TIP3    H118627   6.809   6.464   0.844
 6221TIP3    H218628   6.858   6.333   0.786
 6222TIP3   OH218629   6.221   3.806   0.551
 6222TIP3    H118630   6.288   3.748   0.515
 6222TIP3    H218631   6.267   3.889   0.566
 6223TIP3   OH218632   4.621   1.974   2.697
 6223TIP3    H118633   4.537   1.992   2.739
 6223TIP3    H218634   4.598   1.946   2.608
 6224TIP3   OH218635   2.551   1.083   1.508
 6224TIP3    H118636   2.528   1.166   1.550
 6224TIP3    H218637   2.591   1.108   1.425
 6225TIP3   OH218638   7.186   6.620   4.623
 6225TIP3    H118639   7.149   6.683   4.561
 6225TIP3    H218640   7.205   6.543   4.569
 6226TIP3   OH218641   1.827   1.618   1.581
 6226TIP3    H118642   1.805   1.710   1.594
 6226TIP3    H218643   1.919   1.619   1.554
 6227TIP3   OH218644   3.463   3.168   1.052
 6227TIP3    H118645   3.522   3.123   0.991
 6227TIP3    H218646   3.513   3.245   1.079
 6228TIP3   OH218647   1.935   0.812   1.711
 6228TIP3    H118648   2.025   0.835   1.690
 6228TIP3    H218649   1.925   0.835   1.803
 6229TIP3   OH218650   1.027   1.785   3.780
 6229TIP3    H118651   1.013   1.710   3.722
 6229TIP3    H218652   0.994   1.860   3.732
 6230TIP3   OH218653   4.929   1.643   3.496
 6230TIP3    H118654   4.984   1.654   3.573
 6230TIP3    H218655   4.978   1.582   3.440
 6231TIP3   OH218656   4.080   0.624   2.070
 6231TIP3    H118657   4.121   0.542   2.097
 6231TIP3    H218658   4.055   0.609   1.978
 6232TIP3   OH218659   5.255   0.692   5.330
 6232TIP3    H118660   5.197   0.723   5.261
 6232TIP3    H218661   5.202   0.693   5.410
 6233TIP3   OH218662   7.105   1.065   0.303
 6233TIP3    H118663   7.092   1.128   0.375
 6233TIP3    H218664   7.089   1.116   0.224
 6234TIP3   OH218665   7.189   2.804   5.146
 6234TIP3    H118666   7.095   2.790   5.135
 6234TIP3    H218667   7.200   2.899   5.146
 6235TIP3   OH218668   7.191   1.277   2.609
 6235TIP3    H118669   7.162   1.187   2.594
 6235TIP3    H218670   7.174   1.292   2.702
 6236TIP3   OH218671   4.886   3.345   5.210
 6236TIP3    H118672   4.948   3.308   5.148
 6236TIP3    H218673   4.891   3.440   5.196
 6237TIP3   OH218674   3.285   5.757   3.488
 6237TIP3    H118675   3.299   5.844   3.451
 6237TIP3    H218676   3.339   5.756   3.568
 6238TIP3   OH218677   3.841   6.078   2.344
 6238TIP3    H118678   3.835   6.034   2.429
 6238TIP3    H218679   3.889   6.159   2.361
 6239TIP3   OH218680   4.590   0.328   5.517
 6239TIP3    H118681   4.640   0.261   5.471
 6239TIP3    H218682   4.621   0.411   5.481
 6240TIP3   OH218683   6.033   4.750   0.673
 6240TIP3    H118684   6.111   4.699   0.654
 6240TIP3    H218685   6.032   4.757   0.769
 6241TIP3   OH218686   1.007   6.272   2.722
 6241TIP3    H118687   0.959   6.195   2.690
 6241TIP3    H218688   1.087   6.273   2.669
 6242TIP3   OH218689   3.752   5.445   2.734
 6242TIP3    H118690   3.803   5.411   2.660
 6242TIP3    H218691   3.758   5.540   2.724
 6243TIP3   OH218692   2.781   2.999   2.643
 6243TIP3    H118693   2.844   3.063   2.609
 6243TIP3    H218694   2.698   3.023   2.601
 6244TIP3   OH218695   4.024   5.929   0.828
 6244TIP3    H118696   4.074   5.874   0.767
 6244TIP3    H218697   3.942   5.948   0.781
 6245TIP3   OH218698   3.498   4.519   4.678
 6245TIP3    H118699   3.452   4.592   4.637
 6245TIP3    H218700   3.446   4.499   4.755
 6246TIP3   OH218701   3.809   3.246   1.610
 6246TIP3    H118702   3.814   3.252   1.514
 6246TIP3    H218703   3.865   3.317   1.641
 6247TIP3   OH218704   6.873   6.145   5.079
 6247TIP3    H118705   6.809   6.087   5.120
 6247TIP3    H218706   6.834   6.232   5.084
 6248TIP3   OH218707   0.840   1.142   1.930
 6248TIP3    H118708   0.748   1.131   1.905
 6248TIP3    H218709   0.837   1.188   2.013
 6249TIP3   OH218710   6.758   2.332   5.251
 6249TIP3    H118711   6.833   2.385   5.277
 6249TIP3    H218712   6.682   2.382   5.281
 6250TIP3   OH218713   1.662   5.182   1.390
 6250TIP3    H118714   1.744   5.188   1.437
 6250TIP3    H218715   1.634   5.272   1.376
 6251TIP3   OH218716   1.696   4.224   0.237
 6251TIP3    H118717   1.697   4.249   0.329
 6251TIP3    H218718   1.718   4.304   0.190
 6252TIP3   OH218719   1.162   3.274   4.120
 6252TIP3    H118720   1.109   3.198   4.095
 6252TIP3    H218721   1.252   3.240   4.122
 6253TIP3   OH218722   5.540   2.920   0.806
 6253TIP3    H118723   5.528   2.868   0.727
 6253TIP3    H218724   5.635   2.925   0.817
 6254TIP3   OH218725   0.257   3.333   1.212
 6254TIP3    H118726   0.257   3.429   1.209
 6254TIP3    H218727   0.345   3.309   1.239
 6255TIP3   OH218728   6.172   3.582   4.214
 6255TIP3    H118729   6.237   3.577   4.284
 6255TIP3    H218730   6.122   3.661   4.233
 6256TIP3   OH218731   1.659   2.257   1.792
 6256TIP3    H118732   1.586   2.230   1.847
 6256TIP3    H218733   1.673   2.349   1.813
 6257TIP3   OH218734   4.142   1.951   1.760
 6257TIP3    H118735   4.063   1.954   1.814
 6257TIP3    H218736   4.170   2.043   1.753
 6258TIP3   OH218737   3.025   5.938   2.661
 6258TIP3    H118738   3.068   5.852   2.667
 6258TIP3    H218739   3.095   5.998   2.635
 6259TIP3   OH218740   1.440   1.217   0.533
 6259TIP3    H118741   1.374   1.283   0.551
 6259TIP3    H218742   1.391   1.144   0.495
 6260TIP3   OH218743   7.139   6.464   5.275
 6260TIP3    H118744   7.152   6.370   5.266
 6260TIP3    H218745   7.216   6.504   5.234
 6261TIP3   OH218746   2.369   5.003   3.051
 6261TIP3    H118747   2.386   5.056   3.128
 6261TIP3    H218748   2.391   5.060   2.977
 6262TIP3   OH218749   3.474   5.087   3.191
 6262TIP3    H118750   3.533   5.035   3.137
 6262TIP3    H218751   3.531   5.130   3.255
 6263TIP3   OH218752   5.057   5.641   4.726
 6263TIP3    H118753   5.098   5.561   4.762
 6263TIP3    H218754   5.053   5.701   4.800
 6264TIP3   OH218755   0.252   5.861   0.297
 6264TIP3    H118756   0.301   5.921   0.241
 6264TIP3    H218757   0.176   5.836   0.245
 6265TIP3   OH218758   5.188   0.341   0.354
 6265TIP3    H118759   5.246   0.267   0.338
 6265TIP3    H218760   5.246   0.414   0.374
 6266TIP3   OH218761   7.131   5.357   2.577
 6266TIP3    H118762   7.159   5.434   2.527
 6266TIP3    H218763   7.172   5.367   2.662
 6267TIP3   OH218764   1.659   5.597   0.822
 6267TIP3    H118765   1.567   5.595   0.846
 6267TIP3    H218766   1.678   5.689   0.804
 6268TIP3   OH218767   4.919   2.721   1.105
 6268TIP3    H118768   4.919   2.626   1.113
 6268TIP3    H218769   4.984   2.739   1.037
 6269TIP3   OH218770   2.335   2.843   1.540
 6269TIP3    H118771   2.414   2.802   1.574
 6269TIP3    H218772   2.361   2.933   1.520
 6270TIP3   OH218773   0.875   1.261   0.778
 6270TIP3    H118774   0.881   1.175   0.820
 6270TIP3    H218775   0.796   1.300   0.815
 6271TIP3   OH218776   5.266   5.240   2.095
 6271TIP3    H118777   5.222   5.282   2.020
 6271TIP3    H218778   5.242   5.148   2.088
 6272TIP3   OH218779   2.784   5.200   1.437
 6272TIP3    H118780   2.699   5.167   1.468
 6272TIP3    H218781   2.789   5.173   1.345
 6273TIP3   OH218782   7.073   5.438   1.757
 6273TIP3    H118783   7.026   5.428   1.674
 6273TIP3    H218784   7.057   5.529   1.783
 6274TIP3   OH218785   1.958   1.167   0.161
 6274TIP3    H118786   1.891   1.232   0.181
 6274TIP3    H218787   2.016   1.210   0.098
 6275TIP3   OH218788   4.755   5.708   2.500
 6275TIP3    H118789   4.764   5.669   2.413
 6275TIP3    H218790   4.713   5.641   2.553
 6276TIP3   OH218791   6.311   1.883   5.599
 6276TIP3    H118792   6.394   1.869   5.646
 6276TIP3    H218793   6.252   1.920   5.665
 6277TIP3   OH218794   6.561   0.851   4.243
 6277TIP3    H118795   6.596   0.848   4.154
 6277TIP3    H218796   6.554   0.759   4.269
 6278TIP3   OH218797   5.563   1.138   3.091
 6278TIP3    H118798   5.611   1.197   3.150
 6278TIP3    H218799   5.501   1.092   3.148
 6279TIP3   OH218800   3.597   3.424   2.049
 6279TIP3    H118801   3.506   3.396   2.037
 6279TIP3    H218802   3.590   3.508   2.093
 6280TIP3   OH218803   2.057   5.674   5.404
 6280TIP3    H118804   2.009   5.592   5.389
 6280TIP3    H218805   2.026   5.733   5.334
 6281TIP3   OH218806   3.727   0.880   4.893
 6281TIP3    H118807   3.749   0.812   4.829
 6281TIP3    H218808   3.718   0.832   4.976
 6282TIP3   OH218809   1.761   2.198   3.738
 6282TIP3    H118810   1.729   2.285   3.762
 6282TIP3    H218811   1.704   2.170   3.666
 6283TIP3   OH218812   1.395   6.061   2.142
 6283TIP3    H118813   1.367   6.073   2.052
 6283TIP3    H218814   1.363   5.974   2.166
 6284TIP3   OH218815   6.196   1.640   4.202
 6284TIP3    H118816   6.118   1.585   4.189
 6284TIP3    H218817   6.171   1.726   4.167
 6285TIP3   OH218818   3.274   5.673   1.706
 6285TIP3    H118819   3.238   5.726   1.777
 6285TIP3    H218820   3.312   5.736   1.645
 6286TIP3   OH218821   6.044   0.973   2.050
 6286TIP3    H118822   5.952   0.975   2.074
 6286TIP3    H218823   6.052   1.032   1.975
 6287TIP3   OH218824   1.774   6.675   0.644
 6287TIP3    H118825   1.867   6.673   0.625
 6287TIP3    H218826   1.769   6.665   0.739
 6288TIP3   OH218827   6.035   6.101   0.359
 6288TIP3    H118828   6.074   6.153   0.430
 6288TIP3    H218829   6.102   6.035   0.339
 6289TIP3   OH218830   5.815   0.959   3.162
 6289TIP3    H118831   5.759   0.987   3.090
 6289TIP3    H218832   5.865   1.037   3.186
 6290TIP3   OH218833   6.460   1.007   0.974
 6290TIP3    H118834   6.440   1.010   1.068
 6290TIP3    H218835   6.450   0.915   0.950
 6291TIP3   OH218836   0.064   3.270   3.132
 6291TIP3    H118837   0.018   3.215   3.195
 6291TIP3    H218838  -0.002   3.295   3.068
 6292TIP3   OH218839   3.177   2.712   0.184
 6292TIP3    H118840   3.096   2.691   0.138
 6292TIP3    H218841   3.240   2.728   0.114
 6293TIP3   OH218842   3.619   5.760   2.142
 6293TIP3    H118843   3.711   5.757   2.167
 6293TIP3    H218844   3.595   5.668   2.128
 6294TIP3   OH218845   1.892   2.917   2.991
 6294TIP3    H118846   1.945   2.868   3.054
 6294TIP3    H218847   1.947   2.922   2.913
 6295TIP3   OH218848   1.235   5.899   0.254
 6295TIP3    H118849   1.233   5.806   0.229
 6295TIP3    H218850   1.148   5.916   0.289
 6296TIP3   OH218851   3.340   2.365   1.217
 6296TIP3    H118852   3.265   2.416   1.246
 6296TIP3    H218853   3.415   2.423   1.232
 6297TIP3   OH218854   3.289   0.942   4.867
 6297TIP3    H118855   3.364   0.887   4.890
 6297TIP3    H218856   3.310   1.028   4.903
 6298TIP3   OH218857   6.995   2.999   2.747
 6298TIP3    H118858   6.958   3.014   2.833
 6298TIP3    H218859   7.067   2.937   2.762
 6299TIP3   OH218860   5.766   0.832   2.774
 6299TIP3    H118861   5.745   0.913   2.820
 6299TIP3    H218862   5.680   0.794   2.753
 6300TIP3   OH218863   1.037   3.118   3.109
 6300TIP3    H118864   0.946   3.135   3.133
 6300TIP3    H218865   1.033   3.050   3.042
 6301TIP3   OH218866   0.544   3.179   0.669
 6301TIP3    H118867   0.459   3.199   0.632
 6301TIP3    H218868   0.592   3.262   0.663
 6302TIP3   OH218869   3.198   5.390   4.837
 6302TIP3    H118870   3.104   5.392   4.853
 6302TIP3    H218871   3.208   5.422   4.747
 6303TIP3   OH218872   3.881   2.555   5.427
 6303TIP3    H118873   3.816   2.544   5.496
 6303TIP3    H218874   3.833   2.593   5.353
 6304TIP3   OH218875   4.557   1.391   0.916
 6304TIP3    H118876   4.477   1.339   0.922
 6304TIP3    H218877   4.566   1.431   1.003
 6305TIP3   OH218878   3.172   4.806   5.534
 6305TIP3    H118879   3.207   4.815   5.445
 6305TIP3    H218880   3.246   4.826   5.591
 6306TIP3   OH218881   5.899   5.750   4.352
 6306TIP3    H118882   5.896   5.810   4.278
 6306TIP3    H218883   5.990   5.751   4.382
 6307TIP3   OH218884   0.601   1.395   0.776
 6307TIP3    H118885   0.507   1.410   0.763
 6307TIP3    H218886   0.630   1.349   0.697
 6308TIP3   OH218887   5.558   5.117   2.693
 6308TIP3    H118888   5.477   5.143   2.647
 6308TIP3    H218889   5.561   5.022   2.684
 6309TIP3   OH218890   1.963   2.449   0.251
 6309TIP3    H118891   2.041   2.500   0.231
 6309TIP3    H218892   1.892   2.492   0.202
 6310TIP3   OH218893   0.229   4.029   5.578
 6310TIP3    H118894   0.312   4.074   5.559
 6310TIP3    H218895   0.222   3.963   5.509
 6311TIP3   OH218896   3.527   6.045   4.163
 6311TIP3    H118897   3.463   5.989   4.205
 6311TIP3    H218898   3.488   6.132   4.165
 6312TIP3   OH218899   2.554   3.477   2.974
 6312TIP3    H118900   2.490   3.487   3.044
 6312TIP3    H218901   2.547   3.385   2.948
 6313TIP3   OH218902   0.969   0.596   0.764
 6313TIP3    H118903   0.882   0.576   0.730
 6313TIP3    H218904   0.957   0.679   0.811
 6314TIP3   OH218905   0.841   4.821   3.443
 6314TIP3    H118906   0.819   4.888   3.507
 6314TIP3    H218907   0.803   4.852   3.361
 6315TIP3   OH218908   4.423   1.575   2.696
 6315TIP3    H118909   4.388   1.649   2.746
 6315TIP3    H218910   4.355   1.555   2.631
 6316TIP3   OH218911   5.455   3.197   2.190
 6316TIP3    H118912   5.466   3.264   2.257
 6316TIP3    H218913   5.384   3.230   2.134
 6317TIP3   OH218914   6.893   2.899   5.639
 6317TIP3    H118915   6.946   2.931   5.566
 6317TIP3    H218916   6.816   2.956   5.640
 6318TIP3   OH218917   2.573   1.191   0.991
 6318TIP3    H118918   2.505   1.138   0.951
 6318TIP3    H218919   2.606   1.246   0.920
 6319TIP3   OH218920   2.732   0.110   1.317
 6319TIP3    H118921   2.768   0.128   1.230
 6319TIP3    H218922   2.808   0.113   1.376
 6320TIP3   OH218923   4.269   4.068   4.604
 6320TIP3    H118924   4.235   4.034   4.521
 6320TIP3    H218925   4.196   4.115   4.643
 6321TIP3   OH218926   3.037   2.442   2.406
 6321TIP3    H118927   3.101   2.490   2.459
 6321TIP3    H218928   3.077   2.437   2.320
 6322TIP3   OH218929   1.608   0.883   5.858
 6322TIP3    H118930   1.696   0.918   5.874
 6322TIP3    H218931   1.621   0.788   5.850
 6323TIP3   OH218932   7.137   5.536   1.089
 6323TIP3    H118933   7.054   5.532   1.137
 6323TIP3    H218934   7.163   5.628   1.095
 6324TIP3   OH218935   5.053   2.122   0.961
 6324TIP3    H118936   5.096   2.160   1.038
 6324TIP3    H218937   5.061   2.189   0.893
 6325TIP3   OH218938   5.470   6.404   1.757
 6325TIP3    H118939   5.496   6.467   1.690
 6325TIP3    H218940   5.517   6.324   1.735
 6326TIP3   OH218941   3.738   1.497   0.494
 6326TIP3    H118942   3.749   1.537   0.408
 6326TIP3    H218943   3.643   1.493   0.506
 6327TIP3   OH218944   1.471   1.648   3.753
 6327TIP3    H118945   1.554   1.646   3.801
 6327TIP3    H218946   1.456   1.557   3.729
 6328TIP3   OH218947   5.628   3.956   1.888
 6328TIP3    H118948   5.598   3.926   1.973
 6328TIP3    H218949   5.700   4.016   1.907
 6329TIP3   OH218950   6.711   0.785   3.753
 6329TIP3    H118951   6.644   0.850   3.731
 6329TIP3    H218952   6.669   0.701   3.736
 6330TIP3   OH218953   6.305   3.838   3.124
 6330TIP3    H118954   6.372   3.852   3.058
 6330TIP3    H218955   6.269   3.751   3.104
 6331TIP3   OH218956   0.326   2.681   2.181
 6331TIP3    H118957   0.392   2.730   2.230
 6331TIP3    H218958   0.376   2.626   2.121
 6332TIP3   OH218959   1.986   3.860   1.228
 6332TIP3    H118960   1.908   3.823   1.270
 6332TIP3    H218961   2.053   3.860   1.297
 6333TIP3   OH218962   4.388   2.229   5.003
 6333TIP3    H118963   4.435   2.146   4.999
 6333TIP3    H218964   4.317   2.220   4.940
 6334TIP3   OH218965   5.243   3.735   0.258
 6334TIP3    H118966   5.178   3.750   0.327
 6334TIP3    H218967   5.208   3.781   0.182
 6335TIP3   OH218968   6.774   0.091   3.913
 6335TIP3    H118969   6.743   0.119   3.827
 6335TIP3    H218970   6.706   0.118   3.973
 6336TIP3   OH218971   2.717   1.239   2.211
 6336TIP3    H118972   2.729   1.302   2.141
 6336TIP3    H218973   2.627   1.251   2.240
 6337TIP3   OH218974   1.768   5.945   4.291
 6337TIP3    H118975   1.678   5.975   4.296
 6337TIP3    H218976   1.821   6.025   4.285
 6338TIP3   OH218977   3.278   4.698   2.327
 6338TIP3    H118978   3.270   4.613   2.285
 6338TIP3    H218979   3.217   4.694   2.401
 6339TIP3   OH218980   4.353   3.865   1.244
 6339TIP3    H118981   4.311   3.949   1.260
 6339TIP3    H218982   4.378   3.867   1.151
 6340TIP3   OH218983   1.729   1.397   1.060
 6340TIP3    H118984   1.636   1.389   1.038
 6340TIP3    H218985   1.730   1.441   1.145
 6341TIP3   OH218986   2.897   6.691   5.775
 6341TIP3    H118987   2.903   6.737   5.859
 6341TIP3    H218988   2.811   6.717   5.741
 6342TIP3   OH218989   6.226   6.172   4.496
 6342TIP3    H118990   6.158   6.113   4.463
 6342TIP3    H218991   6.294   6.114   4.529
 6343TIP3   OH218992   1.066   1.097   0.610
 6343TIP3    H118993   1.038   1.006   0.601
 6343TIP3    H218994   1.007   1.135   0.674
 6344TIP3   OH218995   5.508   5.938   3.329
 6344TIP3    H118996   5.418   5.948   3.363
 6344TIP3    H218997   5.498   5.881   3.253
 6345TIP3   OH218998   0.387   2.162   5.395
 6345TIP3    H118999   0.447   2.179   5.468
 6345TIP3    H219000   0.419   2.218   5.324
 6346TIP3   OH219001   6.573   4.639   1.564
 6346TIP3    H119002   6.573   4.687   1.646
 6346TIP3    H219003   6.529   4.556   1.585
 6347TIP3   OH219004   4.632   6.673   4.320
 6347TIP3    H119005   4.587   6.672   4.404
 6347TIP3    H219006   4.570   6.715   4.260
 6348TIP3   OH219007   0.458   3.556   1.470
 6348TIP3    H119008   0.408   3.513   1.539
 6348TIP3    H219009   0.420   3.644   1.464
 6349TIP3   OH219010   1.424   0.205   4.039
 6349TIP3    H119011   1.423   0.118   3.999
 6349TIP3    H219012   1.395   0.264   3.970
 6350TIP3   OH219013   3.265   0.360   4.721
 6350TIP3    H119014   3.256   0.401   4.635
 6350TIP3    H219015   3.194   0.296   4.724
 6351TIP3   OH219016   1.070   6.756   2.586
 6351TIP3    H119017   1.109   6.708   2.513
 6351TIP3    H219018   1.052   6.690   2.652
 6352TIP3   OH219019   2.638   2.400   2.345
 6352TIP3    H119020   2.697   2.443   2.407
 6352TIP3    H219021   2.693   2.381   2.269
 6353TIP3   OH219022   3.914   2.188   1.295
 6353TIP3    H119023   3.954   2.220   1.214
 6353TIP3    H219024   3.984   2.188   1.359
 6354TIP3   OH219025   0.560   0.399   0.427
 6354TIP3    H119026   0.535   0.492   0.432
 6354TIP3    H219027   0.605   0.391   0.343
 6355TIP3   OH219028   5.858   4.342   2.583
 6355TIP3    H119029   5.829   4.321   2.494
 6355TIP3    H219030   5.953   4.327   2.581
 6356TIP3   OH219031   2.464   1.462   2.424
 6356TIP3    H119032   2.380   1.503   2.442
 6356TIP3    H219033   2.458   1.375   2.464
 6357TIP3   OH219034   1.969   1.233   4.457
 6357TIP3    H119035   1.975   1.277   4.372
 6357TIP3    H219036   1.876   1.212   4.466
 6358TIP3   OH219037   3.267   5.045   0.897
 6358TIP3    H119038   3.235   4.960   0.927
 6358TIP3    H219039   3.201   5.076   0.836
 6359TIP3   OH219040   0.601   1.428   4.135
 6359TIP3    H119041   0.627   1.337   4.120
 6359TIP3    H219042   0.627   1.474   4.055
 6360TIP3   OH219043   6.190   4.580   1.892
 6360TIP3    H119044   6.230   4.533   1.819
 6360TIP3    H219045   6.249   4.564   1.966
 6361TIP3   OH219046   0.556   5.856   1.230
 6361TIP3    H119047   0.645   5.874   1.262
 6361TIP3    H219048   0.545   5.915   1.156
 6362TIP3   OH219049   5.642   6.294   2.876
 6362TIP3    H119050   5.647   6.228   2.944
 6362TIP3    H219051   5.584   6.361   2.911
 6363TIP3   OH219052   6.161   3.686   2.281
 6363TIP3    H119053   6.074   3.647   2.269
 6363TIP3    H219054   6.163   3.759   2.219
 6364TIP3   OH219055   3.234   1.841   0.545
 6364TIP3    H119056   3.283   1.824   0.625
 6364TIP3    H219057   3.301   1.846   0.477
 6365TIP3   OH219058   5.326   6.155   0.142
 6365TIP3    H119059   5.344   6.147   0.236
 6365TIP3    H219060   5.350   6.070   0.105
 6366TIP3   OH219061   5.726   0.197   4.696
 6366TIP3    H119062   5.647   0.169   4.742
 6366TIP3    H219063   5.798   0.157   4.745
 6367TIP3   OH219064   6.193   5.060   2.737
 6367TIP3    H119065   6.139   5.015   2.672
 6367TIP3    H219066   6.195   5.001   2.812
 6368TIP3   OH219067   1.356   2.097   4.972
 6368TIP3    H119068   1.333   2.064   4.884
 6368TIP3    H219069   1.286   2.064   5.028
 6369TIP3   OH219070   0.855   4.379   4.499
 6369TIP3    H119071   0.809   4.462   4.488
 6369TIP3    H219072   0.788   4.319   4.532
 6370TIP3   OH219073   4.925   4.202   1.540
 6370TIP3    H119074   4.854   4.194   1.603
 6370TIP3    H219075   4.985   4.265   1.580
 6371TIP3   OH219076   5.678   3.144   1.018
 6371TIP3    H119077   5.714   3.112   0.935
 6371TIP3    H219078   5.687   3.071   1.078
 6372TIP3   OH219079   6.519   3.392   4.016
 6372TIP3    H119080   6.426   3.415   4.014
 6372TIP3    H219081   6.535   3.360   4.104
 6373TIP3   OH219082   5.688   5.986   5.476
 6373TIP3    H119083   5.605   5.940   5.491
 6373TIP3    H219084   5.684   6.013   5.384
 6374TIP3   OH219085   6.505   2.142   2.584
 6374TIP3    H119086   6.444   2.164   2.655
 6374TIP3    H219087   6.519   2.048   2.593
 6375TIP3   OH219088   0.852   3.790   4.346
 6375TIP3    H119089   0.819   3.710   4.305
 6375TIP3    H219090   0.923   3.818   4.289
 6376TIP3   OH219091   4.574   2.243   5.393
 6376TIP3    H119092   4.570   2.282   5.306
 6376TIP3    H219093   4.582   2.149   5.376
 6377TIP3   OH219094   3.470   2.015   1.943
 6377TIP3    H119095   3.399   1.957   1.914
 6377TIP3    H219096   3.513   2.042   1.862
 6378TIP3   OH219097   5.487   0.770   4.136
 6378TIP3    H119098   5.579   0.779   4.112
 6378TIP3    H219099   5.471   0.675   4.133
 6379TIP3   OH219100   4.250   2.501   0.972
 6379TIP3    H119101   4.255   2.591   1.002
 6379TIP3    H219102   4.334   2.485   0.929
 6380TIP3   OH219103   5.425   6.206   1.231
 6380TIP3    H119104   5.400   6.141   1.166
 6380TIP3    H219105   5.498   6.253   1.191
 6381TIP3   OH219106   0.680   0.419   1.993
 6381TIP3    H119107   0.688   0.330   2.026
 6381TIP3    H219108   0.731   0.418   1.911
 6382TIP3   OH219109   0.256   5.066   3.858
 6382TIP3    H119110   0.182   5.037   3.805
 6382TIP3    H219111   0.216   5.114   3.931
 6383TIP3   OH219112   5.890   5.420   4.513
 6383TIP3    H119113   5.871   5.437   4.421
 6383TIP3    H219114   5.882   5.506   4.555
 6384TIP3   OH219115   2.128   1.870   3.149
 6384TIP3    H119116   2.085   1.929   3.211
 6384TIP3    H219117   2.149   1.792   3.200
 6385TIP3   OH219118   0.625   6.522   2.662
 6385TIP3    H119119   0.683   6.596   2.681
 6385TIP3    H219120   0.659   6.486   2.580
 6386TIP3   OH219121   2.127   3.841   5.672
 6386TIP3    H119122   2.058   3.789   5.629
 6386TIP3    H219123   2.085   3.925   5.690
 6387TIP3   OH219124   0.057   1.630   3.438
 6387TIP3    H119125   0.074   1.557   3.497
 6387TIP3    H219126   0.016   1.697   3.494
 6388TIP3   OH219127   4.577   1.120   5.274
 6388TIP3    H119128   4.501   1.136   5.218
 6388TIP3    H219129   4.559   1.036   5.316
 6389TIP3   OH219130   6.545   4.090   5.518
 6389TIP3    H119131   6.609   4.076   5.448
 6389TIP3    H219132   6.472   4.135   5.476
 6390TIP3   OH219133   0.358   1.005   5.597
 6390TIP3    H119134   0.338   0.924   5.549
 6390TIP3    H219135   0.369   1.071   5.529
 6391TIP3   OH219136   3.082   4.449   3.140
 6391TIP3    H119137   3.028   4.443   3.219
 6391TIP3    H219138   3.064   4.367   3.093
 6392TIP3   OH219139   4.173   0.576   4.803
 6392TIP3    H119140   4.137   0.487   4.800
 6392TIP3    H219141   4.096   0.633   4.804
 6393TIP3   OH219142   4.056   4.241   5.022
 6393TIP3    H119143   4.042   4.177   4.952
 6393TIP3    H219144   4.148   4.231   5.046
 6394TIP3   OH219145   6.497   1.325   5.124
 6394TIP3    H119146   6.584   1.294   5.101
 6394TIP3    H219147   6.459   1.353   5.041
 6395TIP3   OH219148   0.774   3.424   3.686
 6395TIP3    H119149   0.848   3.477   3.714
 6395TIP3    H219150   0.814   3.350   3.640
 6396TIP3   OH219151   6.380   5.646   2.551
 6396TIP3    H119152   6.340   5.732   2.541
 6396TIP3    H219153   6.308   5.589   2.579
 6397TIP3   OH219154   2.907   4.986   0.404
 6397TIP3    H119155   2.862   4.949   0.328
 6397TIP3    H219156   2.994   5.009   0.372
 6398TIP3   OH219157   5.075   5.435   0.176
 6398TIP3    H119158   5.035   5.352   0.149
 6398TIP3    H219159   5.081   5.429   0.271
 6399TIP3   OH219160   2.572   6.665   4.187
 6399TIP3    H119161   2.534   6.662   4.099
 6399TIP3    H219162   2.520   6.730   4.234
 6400TIP3   OH219163   5.928   5.954   2.254
 6400TIP3    H119164   5.862   5.960   2.185
 6400TIP3    H219165   6.003   5.912   2.211
 6401TIP3   OH219166   4.285   2.333   5.786
 6401TIP3    H119167   4.312   2.425   5.782
 6401TIP3    H219168   4.366   2.284   5.798
 6402TIP3   OH219169   5.761   2.002   5.900
 6402TIP3    H119170   5.675   2.039   5.878
 6402TIP3    H219171   5.822   2.046   5.841
 6403TIP3   OH219172   6.608   4.929   1.157
 6403TIP3    H119173   6.675   4.974   1.208
 6403TIP3    H219174   6.559   4.878   1.221
 6404TIP3   OH219175   6.806   2.132   3.122
 6404TIP3    H119176   6.724   2.094   3.153
 6404TIP3    H219177   6.780   2.198   3.058
 6405TIP3   OH219178   3.478   1.635   1.971
 6405TIP3    H119179   3.568   1.628   2.004
 6405TIP3    H219180   3.461   1.551   1.929
 6406TIP3   OH219181   1.652   1.990   4.834
 6406TIP3    H119182   1.678   2.055   4.768
 6406TIP3    H219183   1.641   2.041   4.914
 6407TIP3   OH219184   3.627   1.685   4.357
 6407TIP3    H119185   3.657   1.738   4.431
 6407TIP3    H219186   3.546   1.725   4.329
 6408TIP3   OH219187   4.796   2.442   0.254
 6408TIP3    H119188   4.753   2.527   0.259
 6408TIP3    H219189   4.757   2.391   0.325
 6409TIP3   OH219190   1.622   1.356   1.522
 6409TIP3    H119191   1.539   1.318   1.495
 6409TIP3    H219192   1.638   1.320   1.610
 6410TIP3   OH219193   3.288   3.924   2.192
 6410TIP3    H119194   3.212   3.983   2.190
 6410TIP3    H219195   3.361   3.977   2.163
 6411TIP3   OH219196   1.047   2.800   4.140
 6411TIP3    H119197   1.137   2.767   4.141
 6411TIP3    H219198   1.024   2.808   4.232
 6412TIP3   OH219199   2.589   0.449   1.549
 6412TIP3    H119200   2.675   0.418   1.578
 6412TIP3    H219201   2.548   0.483   1.628
 6413TIP3   OH219202   3.526   3.195   2.220
 6413TIP3    H119203   3.557   3.138   2.149
 6413TIP3    H219204   3.453   3.243   2.181
 6414TIP3   OH219205   6.647   6.392   5.368
 6414TIP3    H119206   6.589   6.316   5.364
 6414TIP3    H219207   6.654   6.413   5.461
 6415TIP3   OH219208   3.531   2.567   2.552
 6415TIP3    H119209   3.599   2.563   2.620
 6415TIP3    H219210   3.570   2.522   2.477
 6416TIP3   OH219211   2.709   6.312   4.819
 6416TIP3    H119212   2.723   6.221   4.844
 6416TIP3    H219213   2.625   6.312   4.774
 6417TIP3   OH219214   0.223   1.103   4.966
 6417TIP3    H119215   0.248   1.192   4.990
 6417TIP3    H219216   0.282   1.047   5.016
 6418TIP3   OH219217   0.184   1.715   1.527
 6418TIP3    H119218   0.241   1.758   1.462
 6418TIP3    H219219   0.242   1.655   1.573
 6419TIP3   OH219220   0.214   3.913   5.817
 6419TIP3    H119221   0.248   3.949   5.736
 6419TIP3    H219222   0.193   3.822   5.796
 6420TIP3   OH219223   5.513   1.525   5.256
 6420TIP3    H119224   5.458   1.541   5.333
 6420TIP3    H219225   5.455   1.480   5.194
 6421TIP3   OH219226   1.702   1.249   1.776
 6421TIP3    H119227   1.740   1.176   1.727
 6421TIP3    H219228   1.650   1.207   1.844
 6422TIP3   OH219229   5.133   3.976   2.272
 6422TIP3    H119230   5.054   3.983   2.327
 6422TIP3    H219231   5.110   4.022   2.191
 6423TIP3   OH219232   2.868   1.444   4.648
 6423TIP3    H119233   2.949   1.395   4.639
 6423TIP3    H219234   2.824   1.435   4.564
 6424TIP3   OH219235   0.500   3.051   4.290
 6424TIP3    H119236   0.410   3.072   4.317
 6424TIP3    H219237   0.555   3.094   4.355
 6425TIP3   OH219238   5.525   1.902   5.059
 6425TIP3    H119239   5.540   1.985   5.105
 6425TIP3    H219240   5.571   1.837   5.111
 6426TIP3   OH219241   1.550   5.902   4.942
 6426TIP3    H119242   1.551   5.936   4.853
 6426TIP3    H219243   1.630   5.936   4.982
 6427TIP3   OH219244   5.814   1.329   4.034
 6427TIP3    H119245   5.740   1.348   3.976
 6427TIP3    H219246   5.874   1.277   3.980
 6428TIP3   OH219247   1.401   4.003   3.319
 6428TIP3    H119248   1.486   4.031   3.351
 6428TIP3    H219249   1.409   4.005   3.223
 6429TIP3   OH219250   2.380   3.389   2.576
 6429TIP3    H119251   2.468   3.428   2.576
 6429TIP3    H219252   2.367   3.360   2.667
 6430TIP3   OH219253   5.436   1.861   4.733
 6430TIP3    H119254   5.498   1.870   4.661
 6430TIP3    H219255   5.363   1.811   4.696
 6431TIP3   OH219256   6.502   0.523   3.161
 6431TIP3    H119257   6.494   0.616   3.181
 6431TIP3    H219258   6.421   0.484   3.195
 6432TIP3   OH219259   5.048   5.158   0.186
 6432TIP3    H119260   5.035   5.064   0.182
 6432TIP3    H219261   5.132   5.169   0.230
 6433TIP3   OH219262   5.656   5.243   5.805
 6433TIP3    H119263   5.747   5.223   5.828
 6433TIP3    H219264   5.664   5.306   5.733
 6434TIP3   OH219265   2.050   4.300   4.538
 6434TIP3    H119266   2.091   4.333   4.618
 6434TIP3    H219267   2.048   4.375   4.479
 6435TIP3   OH219268   3.818   1.952   4.137
 6435TIP3    H119269   3.799   1.991   4.222
 6435TIP3    H219270   3.735   1.953   4.090
 6436TIP3   OH219271   2.605   6.161   5.128
 6436TIP3    H119272   2.700   6.167   5.129
 6436TIP3    H219273   2.584   6.094   5.193
 6437TIP3   OH219274   6.578   5.036   0.546
 6437TIP3    H119275   6.605   4.946   0.562
 6437TIP3    H219276   6.597   5.082   0.629
 6438TIP3   OH219277   5.288   5.498   1.221
 6438TIP3    H119278   5.378   5.529   1.221
 6438TIP3    H219279   5.294   5.406   1.245
 6439TIP3   OH219280   5.246   4.781   0.476
 6439TIP3    H119281   5.245   4.713   0.408
 6439TIP3    H219282   5.243   4.733   0.558
 6440TIP3   OH219283   3.099   1.042   2.236
 6440TIP3    H119284   3.162   1.014   2.302
 6440TIP3    H219285   3.059   0.961   2.205
 6441TIP3   OH219286   6.191   5.827   4.713
 6441TIP3    H119287   6.173   5.859   4.801
 6441TIP3    H219288   6.264   5.881   4.682
 6442TIP3   OH219289   2.622   5.463   5.805
 6442TIP3    H119290   2.688   5.506   5.860
 6442TIP3    H219291   2.643   5.370   5.809
 6443TIP3   OH219292   1.124   4.359   2.762
 6443TIP3    H119293   1.111   4.264   2.763
 6443TIP3    H219294   1.219   4.370   2.754
 6444TIP3   OH219295   5.756   6.055   2.028
 6444TIP3    H119296   5.775   6.141   2.067
 6444TIP3    H219297   5.664   6.061   2.002
 6445TIP3   OH219298   3.033   6.417   3.727
 6445TIP3    H119299   3.009   6.479   3.796
 6445TIP3    H219300   2.971   6.345   3.738
 6446TIP3   OH219301   6.337   4.349   0.429
 6446TIP3    H119302   6.413   4.357   0.486
 6446TIP3    H219303   6.279   4.419   0.457
 6447TIP3   OH219304   7.139   2.782   0.887
 6447TIP3    H119305   7.116   2.739   0.805
 6447TIP3    H219306   7.161   2.711   0.947
 6448TIP3   OH219307   3.970   0.893   5.824
 6448TIP3    H119308   3.936   0.819   5.773
 6448TIP3    H219309   3.911   0.965   5.804
 6449TIP3   OH219310   3.632   3.723   0.262
 6449TIP3    H119311   3.588   3.809   0.265
 6449TIP3    H219312   3.610   3.682   0.345
 6450TIP3   OH219313   0.085   3.331   2.723
 6450TIP3    H119314  -0.006   3.321   2.693
 6450TIP3    H219315   0.084   3.409   2.778
 6451TIP3   OH219316   1.744   5.933   1.113
 6451TIP3    H119317   1.821   5.959   1.063
 6451TIP3    H219318   1.675   5.922   1.047
 6452TIP3   OH219319   4.823   0.269   2.829
 6452TIP3    H119320   4.746   0.268   2.772
 6452TIP3    H219321   4.827   0.181   2.866
 6453TIP3   OH219322   4.721   5.959   3.193
 6453TIP3    H119323   4.670   5.879   3.196
 6453TIP3    H219324   4.678   6.017   3.256
 6454TIP3   OH219325   4.350   2.761   1.214
 6454TIP3    H119326   4.279   2.780   1.275
 6454TIP3    H219327   4.429   2.761   1.268
 6455TIP3   OH219328   5.605   4.997   0.804
 6455TIP3    H119329   5.578   4.944   0.729
 6455TIP3    H219330   5.695   5.022   0.784
 6456TIP3   OH219331   4.060   0.620   3.002
 6456TIP3    H119332   4.035   0.702   2.958
 6456TIP3    H219333   4.015   0.625   3.087
 6457TIP3   OH219334   2.559   5.385   2.470
 6457TIP3    H119335   2.495   5.452   2.494
 6457TIP3    H219336   2.508   5.316   2.428
 6458TIP3   OH219337   5.953   5.379   1.109
 6458TIP3    H119338   5.964   5.466   1.147
 6458TIP3    H219339   5.860   5.374   1.087
 6459TIP3   OH219340   3.575   3.302   2.590
 6459TIP3    H119341   3.521   3.365   2.541
 6459TIP3    H219342   3.565   3.328   2.681
 6460TIP3   OH219343   1.426   0.261   0.077
 6460TIP3    H119344   1.439   0.275   0.171
 6460TIP3    H219345   1.459   0.173   0.061
 6461TIP3   OH219346   4.561   6.769   0.719
 6461TIP3    H119347   4.602   6.723   0.792
 6461TIP3    H219348   4.629   6.771   0.651
 6462TIP3   OH219349   2.178   4.251   1.115
 6462TIP3    H119350   2.200   4.159   1.105
 6462TIP3    H219351   2.178   4.286   1.026
 6463TIP3   OH219352   6.535   4.269   4.895
 6463TIP3    H119353   6.493   4.199   4.944
 6463TIP3    H219354   6.480   4.346   4.910
 6464TIP3   OH219355   5.489   4.961   4.259
 6464TIP3    H119356   5.459   5.049   4.284
 6464TIP3    H219357   5.532   4.974   4.174
 6465TIP3   OH219358   0.874   6.589   2.064
 6465TIP3    H119359   0.855   6.664   2.008
 6465TIP3    H219360   0.856   6.620   2.153
 6466TIP3   OH219361   0.973   2.920   0.761
 6466TIP3    H119362   1.040   2.980   0.794
 6466TIP3    H219363   1.018   2.867   0.695
 6467TIP3   OH219364   5.136   3.152   4.106
 6467TIP3    H119365   5.103   3.158   4.016
 6467TIP3    H219366   5.201   3.222   4.111
 6468TIP3   OH219367   3.968   0.165   4.683
 6468TIP3    H119368   3.873   0.162   4.673
 6468TIP3    H219369   3.995   0.074   4.675
 6469TIP3   OH219370   7.023   4.950   0.806
 6469TIP3    H119371   6.997   4.951   0.714
 6469TIP3    H219372   7.013   4.859   0.832
 6470TIP3   OH219373   6.567   2.078   1.576
 6470TIP3    H119374   6.568   2.083   1.481
 6470TIP3    H219375   6.626   2.007   1.598
 6471TIP3   OH219376   1.864   5.105   2.528
 6471TIP3    H119377   1.881   5.081   2.619
 6471TIP3    H219378   1.864   5.200   2.528
 6472TIP3   OH219379   0.585   6.220   1.280
 6472TIP3    H119380   0.665   6.166   1.283
 6472TIP3    H219381   0.595   6.274   1.202
 6473TIP3   OH219382   2.838   2.463   1.450
 6473TIP3    H119383   2.822   2.432   1.539
 6473TIP3    H219384   2.756   2.446   1.403
 6474TIP3   OH219385   1.798   3.344   0.993
 6474TIP3    H119386   1.890   3.320   1.005
 6474TIP3    H219387   1.758   3.267   0.952
 6475TIP3   OH219388   3.292   5.749   0.368
 6475TIP3    H119389   3.272   5.777   0.457
 6475TIP3    H219390   3.258   5.660   0.362
 6476TIP3   OH219391   2.691   4.447   5.626
 6476TIP3    H119392   2.634   4.457   5.702
 6476TIP3    H219393   2.722   4.536   5.607
 6477TIP3   OH219394   6.999   1.591   4.053
 6477TIP3    H119395   6.986   1.682   4.026
 6477TIP3    H219396   7.093   1.577   4.044
 6478TIP3   OH219397   2.636   6.720   5.365
 6478TIP3    H119398   2.679   6.639   5.391
 6478TIP3    H219399   2.573   6.693   5.297
 6479TIP3   OH219400   5.817   1.816   4.927
 6479TIP3    H119401   5.761   1.763   4.983
 6479TIP3    H219402   5.777   1.808   4.840
 6480TIP3   OH219403   6.454   1.437  -0.005
 6480TIP3    H119404   6.408   1.454  -0.087
 6480TIP3    H219405   6.401   1.370   0.039
 6481TIP3   OH219406   0.577   0.754   3.120
 6481TIP3    H119407   0.489   0.714   3.120
 6481TIP3    H219408   0.637   0.680   3.113
 6482TIP3   OH219409   4.703   5.018   1.474
 6482TIP3    H119410   4.703   4.953   1.404
 6482TIP3    H219411   4.634   5.080   1.449
 6483TIP3   OH219412   6.223   2.307   3.871
 6483TIP3    H119413   6.303   2.269   3.908
 6483TIP3    H219414   6.200   2.378   3.931
 6484TIP3   OH219415   0.880   5.564   2.276
 6484TIP3    H119416   0.927   5.495   2.322
 6484TIP3    H219417   0.869   5.531   2.187
 6485TIP3   OH219418   1.351   0.069   3.127
 6485TIP3    H119419   1.361   0.107   3.039
 6485TIP3    H219420   1.257   0.072   3.144
 6486TIP3   OH219421   6.313   6.440   3.755
 6486TIP3    H119422   6.310   6.346   3.734
 6486TIP3    H219423   6.328   6.442   3.850
 6487TIP3   OH219424   6.327   5.802   0.024
 6487TIP3    H119425   6.257   5.833   0.081
 6487TIP3    H219426   6.408   5.823   0.072
 6488TIP3   OH219427   1.292   6.532   1.051
 6488TIP3    H119428   1.247   6.483   0.982
 6488TIP3    H219429   1.223   6.587   1.090
 6489TIP3   OH219430   5.841   5.481   2.130
 6489TIP3    H119431   5.852   5.478   2.034
 6489TIP3    H219432   5.829   5.389   2.155
 6490TIP3   OH219433   1.519   1.607   1.507
 6490TIP3    H119434   1.528   1.512   1.497
 6490TIP3    H219435   1.608   1.641   1.491
 6491TIP3   OH219436   6.067   0.102   3.845
 6491TIP3    H119437   5.972   0.091   3.839
 6491TIP3    H219438   6.097   0.023   3.890
 6492TIP3   OH219439   2.546   0.100   3.912
 6492TIP3    H119440   2.506   0.145   3.838
 6492TIP3    H219441   2.579   0.018   3.875
 6493TIP3   OH219442   3.085   6.659   2.165
 6493TIP3    H119443   3.016   6.628   2.106
 6493TIP3    H219444   3.166   6.640   2.118
 6494TIP3   OH219445   4.403   5.341   3.685
 6494TIP3    H119446   4.380   5.249   3.700
 6494TIP3    H219447   4.337   5.373   3.624
 6495TIP3   OH219448   6.095   4.437   5.648
 6495TIP3    H119449   6.053   4.455   5.732
 6495TIP3    H219450   6.189   4.451   5.665
 6496TIP3   OH219451   0.308   4.197   3.659
 6496TIP3    H119452   0.230   4.183   3.713
 6496TIP3    H219453   0.308   4.291   3.639
 6497TIP3   OH219454   6.980   1.039   4.722
 6497TIP3    H119455   6.938   1.095   4.787
 6497TIP3    H219456   7.037   0.982   4.773
 6498TIP3   OH219457   1.945   3.323   2.900
 6498TIP3    H119458   1.985   3.322   2.987
 6498TIP3    H219459   1.999   3.264   2.848
 6499TIP3   OH219460   2.102   2.280   0.605
 6499TIP3    H119461   2.118   2.191   0.574
 6499TIP3    H219462   2.185   2.325   0.594
 6500TIP3   OH219463   1.360   5.924   2.787
 6500TIP3    H119464   1.312   5.845   2.814
 6500TIP3    H219465   1.363   5.978   2.865
 6501TIP3   OH219466   4.805   6.651   3.159
 6501TIP3    H119467   4.834   6.731   3.115
 6501TIP3    H219468   4.785   6.591   3.088
 6502TIP3   OH219469   1.956   5.033   2.051
 6502TIP3    H119470   1.980   4.987   1.971
 6502TIP3    H219471   2.035   5.029   2.106
 6503TIP3   OH219472   5.201   1.054   1.602
 6503TIP3    H119473   5.130   1.105   1.563
 6503TIP3    H219474   5.206   0.975   1.548
 6504TIP3   OH219475   3.263   0.834   3.071
 6504TIP3    H119476   3.250   0.826   2.976
 6504TIP3    H219477   3.313   0.756   3.095
 6505TIP3   OH219478   1.663   1.689   2.509
 6505TIP3    H119479   1.629   1.641   2.433
 6505TIP3    H219480   1.605   1.663   2.581
 6506TIP3   OH219481   3.101   6.769   0.639
 6506TIP3    H119482   3.096   6.693   0.697
 6506TIP3    H219483   3.176   6.752   0.583
 6507TIP3   OH219484   2.390   1.748   2.248
 6507TIP3    H119485   2.431   1.782   2.169
 6507TIP3    H219486   2.382   1.823   2.306
 6508TIP3   OH219487   6.570   0.559   4.248
 6508TIP3    H119488   6.662   0.546   4.270
 6508TIP3    H219489   6.563   0.532   4.156
 6509TIP3   OH219490   5.874   6.751   2.970
 6509TIP3    H119491   5.892   6.680   3.032
 6509TIP3    H219492   5.899   6.830   3.017
 6510TIP3   OH219493   2.047   3.335   1.098
 6510TIP3    H119494   2.061   3.401   1.166
 6510TIP3    H219495   2.121   3.345   1.039
 6511TIP3   OH219496   2.915   6.076   5.527
 6511TIP3    H119497   2.845   6.125   5.570
 6511TIP3    H219498   2.869   6.021   5.463
 6512TIP3   OH219499   3.994   3.643   3.489
 6512TIP3    H119500   3.929   3.684   3.432
 6512TIP3    H219501   4.073   3.639   3.435
 6513TIP3   OH219502   1.670   0.407   3.236
 6513TIP3    H119503   1.757   0.401   3.277
 6513TIP3    H219504   1.650   0.318   3.208
 6514TIP3   OH219505   4.526   5.110   0.665
 6514TIP3    H119506   4.564   5.178   0.721
 6514TIP3    H219507   4.600   5.054   0.641
 6515TIP3   OH219508   1.884   3.644   2.994
 6515TIP3    H119509   1.861   3.736   2.986
 6515TIP3    H219510   1.847   3.602   2.917
 6516TIP3   OH219511   5.107   5.342   5.575
 6516TIP3    H119512   5.146   5.331   5.662
 6516TIP3    H219513   5.059   5.424   5.581
 6517TIP3   OH219514   6.420   2.497   5.106
 6517TIP3    H119515   6.365   2.538   5.039
 6517TIP3    H219516   6.390   2.406   5.110
 6518TIP3   OH219517   5.312   1.882   1.898
 6518TIP3    H119518   5.331   1.976   1.894
 6518TIP3    H219519   5.225   1.877   1.938
 6519TIP3   OH219520   0.623   0.362   0.697
 6519TIP3    H119521   0.567   0.363   0.620
 6519TIP3    H219522   0.688   0.431   0.681
 6520TIP3   OH219523   6.164   4.457   3.300
 6520TIP3    H119524   6.164   4.400   3.222
 6520TIP3    H219525   6.126   4.403   3.369
 6521TIP3   OH219526   2.936   6.707   4.858
 6521TIP3    H119527   2.844   6.693   4.834
 6521TIP3    H219528   2.966   6.621   4.886
 6522TIP3   OH219529   4.683   1.990   0.283
 6522TIP3    H119530   4.601   1.940   0.281
 6522TIP3    H219531   4.659   2.077   0.250
 6523TIP3   OH219532   1.456   2.794   0.767
 6523TIP3    H119533   1.397   2.736   0.719
 6523TIP3    H219534   1.512   2.832   0.700
 6524TIP3   OH219535   2.380   0.712   2.900
 6524TIP3    H119536   2.309   0.756   2.946
 6524TIP3    H219537   2.364   0.619   2.915
 6525TIP3   OH219538   6.732   1.264   4.278
 6525TIP3    H119539   6.649   1.225   4.301
 6525TIP3    H219540   6.747   1.331   4.345
 6526TIP3   OH219541   3.020   5.745   3.199
 6526TIP3    H119542   3.056   5.684   3.264
 6526TIP3    H219543   3.085   5.747   3.129
 6527TIP3   OH219544   4.145   6.290   5.837
 6527TIP3    H119545   4.138   6.345   5.759
 6527TIP3    H219546   4.057   6.290   5.874
 6528TIP3   OH219547   0.343   5.540   5.289
 6528TIP3    H119548   0.280   5.570   5.223
 6528TIP3    H219549   0.387   5.620   5.318
 6529TIP3   OH219550   1.883   2.038   4.390
 6529TIP3    H119551   1.805   1.996   4.426
 6529TIP3    H219552   1.954   1.977   4.408
 6530TIP3   OH219553   1.207   0.800   5.035
 6530TIP3    H119554   1.296   0.765   5.026
 6530TIP3    H219555   1.217   0.894   5.019
 6531TIP3   OH219556   0.867   4.956   3.119
 6531TIP3    H119557   0.787   5.000   3.146
 6531TIP3    H219558   0.919   5.025   3.078
 6532TIP3   OH219559   7.140   1.386   1.100
 6532TIP3    H119560   7.191   1.452   1.147
 6532TIP3    H219561   7.146   1.308   1.155
 6533TIP3   OH219562   0.437   5.222   0.457
 6533TIP3    H119563   0.462   5.131   0.477
 6533TIP3    H219564   0.356   5.214   0.407
 6534TIP3   OH219565   1.815   4.405   0.084
 6534TIP3    H119566   1.838   4.368  -0.001
 6534TIP3    H219567   1.899   4.435   0.120
 6535TIP3   OH219568   3.367   2.533   3.691
 6535TIP3    H119569   3.353   2.628   3.698
 6535TIP3    H219570   3.290   2.501   3.645
 6536TIP3   OH219571   7.161   4.469   0.390
 6536TIP3    H119572   7.190   4.460   0.480
 6536TIP3    H219573   7.137   4.381   0.363
 6537TIP3   OH219574   5.193   0.274   3.226
 6537TIP3    H119575   5.141   0.311   3.155
 6537TIP3    H219576   5.284   0.287   3.198
 6538TIP3   OH219577   0.848   1.950   1.613
 6538TIP3    H119578   0.785   1.937   1.684
 6538TIP3    H219579   0.806   2.013   1.555
 6539TIP3   OH219580   5.196   3.235   1.035
 6539TIP3    H119581   5.245   3.196   1.107
 6539TIP3    H219582   5.132   3.292   1.076
 6540TIP3   OH219583   2.062   0.809   3.266
 6540TIP3    H119584   2.108   0.843   3.189
 6540TIP3    H219585   1.976   0.851   3.263
 6541TIP3   OH219586   1.999   5.563   3.760
 6541TIP3    H119587   1.941   5.533   3.830
 6541TIP3    H219588   2.074   5.505   3.763
 6542TIP3   OH219589   0.962   4.926   1.653
 6542TIP3    H119590   0.987   4.957   1.740
 6542TIP3    H219591   1.044   4.918   1.605
 6543TIP3   OH219592   2.976   2.760   2.916
 6543TIP3    H119593   2.918   2.797   2.982
 6543TIP3    H219594   3.056   2.738   2.963
 6544TIP3   OH219595   6.881   3.090   4.152
 6544TIP3    H119596   6.907   3.066   4.062
 6544TIP3    H219597   6.804   3.146   4.141
 6545TIP3   OH219598   2.229   3.297   2.019
 6545TIP3    H119599   2.221   3.326   1.928
 6545TIP3    H219600   2.323   3.305   2.039
 6546TIP3   OH219601   6.155   5.274   3.610
 6546TIP3    H119602   6.205   5.194   3.630
 6546TIP3    H219603   6.175   5.333   3.682
 6547TIP3   OH219604   0.812   3.505   4.524
 6547TIP3    H119605   0.723   3.533   4.545
 6547TIP3    H219606   0.804   3.462   4.439
 6548TIP3   OH219607   3.233   1.908   1.137
 6548TIP3    H119608   3.311   1.898   1.192
 6548TIP3    H219609   3.268   1.928   1.050
 6549TIP3   OH219610   6.162   4.498   3.781
 6549TIP3    H119611   6.153   4.567   3.715
 6549TIP3    H219612   6.250   4.511   3.817
 6550TIP3   OH219613   3.436   2.806   2.780
 6550TIP3    H119614   3.460   2.828   2.690
 6550TIP3    H219615   3.350   2.764   2.773
 6551TIP3   OH219616   7.162   5.340   1.324
 6551TIP3    H119617   7.157   5.402   1.251
 6551TIP3    H219618   7.255   5.332   1.342
 6552TIP3   OH219619   0.782   0.343   2.658
 6552TIP3    H119620   0.739   0.416   2.614
 6552TIP3    H219621   0.875   0.365   2.657
 6553TIP3   OH219622   0.415   6.545   0.273
 6553TIP3    H119623   0.383   6.599   0.346
 6553TIP3    H219624   0.492   6.501   0.309
 6554TIP3   OH219625   6.135   4.710   4.752
 6554TIP3    H119626   6.044   4.738   4.742
 6554TIP3    H219627   6.147   4.699   4.847
 6555TIP3   OH219628   4.925   2.976   2.273
 6555TIP3    H119629   5.001   3.033   2.263
 6555TIP3    H219630   4.861   3.010   2.210
 6556TIP3   OH219631   5.762   5.408   4.238
 6556TIP3    H119632   5.792   5.318   4.231
 6556TIP3    H219633   5.668   5.402   4.253
 6557TIP3   OH219634   5.070   5.675   0.452
 6557TIP3    H119635   5.007   5.742   0.478
 6557TIP3    H219636   5.032   5.593   0.483
 6558TIP3   OH219637   2.379   1.987   2.403
 6558TIP3    H119638   2.363   1.958   2.493
 6558TIP3    H219639   2.441   2.059   2.411
 6559TIP3   OH219640   3.871   2.119   3.637
 6559TIP3    H119641   3.863   2.058   3.563
 6559TIP3    H219642   3.780   2.136   3.663
 6560TIP3   OH219643   1.469   3.492   1.286
 6560TIP3    H119644   1.561   3.494   1.310
 6560TIP3    H219645   1.460   3.559   1.218
 6561TIP3   OH219646   1.012   5.503   1.562
 6561TIP3    H119647   1.094   5.549   1.575
 6561TIP3    H219648   0.993   5.462   1.647
 6562TIP3   OH219649   3.060   0.426   2.892
 6562TIP3    H119650   3.009   0.372   2.832
 6562TIP3    H219651   3.148   0.428   2.854
 6563TIP3   OH219652   2.332   1.137   5.270
 6563TIP3    H119653   2.360   1.208   5.328
 6563TIP3    H219654   2.399   1.133   5.202
 6564TIP3   OH219655   6.007   4.119   3.751
 6564TIP3    H119656   6.024   4.173   3.828
 6564TIP3    H219657   5.912   4.114   3.746
 6565TIP3   OH219658   3.303   2.151   0.626
 6565TIP3    H119659   3.347   2.128   0.544
 6565TIP3    H219660   3.210   2.130   0.610
 6566TIP3   OH219661   1.841   0.124   4.645
 6566TIP3    H119662   1.815   0.157   4.731
 6566TIP3    H219663   1.925   0.081   4.660
 6567TIP3   OH219664   4.455   6.135   0.767
 6567TIP3    H119665   4.383   6.098   0.716
 6567TIP3    H219666   4.495   6.200   0.709
 6568TIP3   OH219667   3.808   1.513   1.609
 6568TIP3    H119668   3.738   1.523   1.544
 6568TIP3    H219669   3.887   1.541   1.564
 6569TIP3   OH219670   3.471   0.000   3.752
 6569TIP3    H119671   3.547   0.016   3.808
 6569TIP3    H219672   3.407   0.066   3.779
 6570TIP3   OH219673   7.161   0.595   0.518
 6570TIP3    H119674   7.167   0.662   0.587
 6570TIP3    H219675   7.241   0.606   0.467
 6571TIP3   OH219676   2.176   6.114   4.257
 6571TIP3    H119677   2.196   6.203   4.286
 6571TIP3    H219678   2.259   6.081   4.222
 6572TIP3   OH219679   1.714   6.572   1.150
 6572TIP3    H119680   1.783   6.553   1.087
 6572TIP3    H219681   1.752   6.547   1.235
 6573TIP3   OH219682   3.508   0.377   3.267
 6573TIP3    H119683   3.566   0.312   3.228
 6573TIP3    H219684   3.447   0.400   3.197
 6574TIP3   OH219685   6.295   1.332   4.552
 6574TIP3    H119686   6.284   1.426   4.571
 6574TIP3    H219687   6.389   1.318   4.557
 6575TIP3   OH219688   3.981   0.051   1.855
 6575TIP3    H119689   3.927  -0.018   1.895
 6575TIP3    H219690   3.957   0.050   1.763
 6576TIP3   OH219691   2.659   2.251   3.396
 6576TIP3    H119692   2.622   2.327   3.440
 6576TIP3    H219693   2.657   2.273   3.303
 6577TIP3   OH219694   3.645   3.167   4.516
 6577TIP3    H119695   3.577   3.187   4.580
 6577TIP3    H219696   3.614   3.205   4.434
 6578TIP3   OH219697   1.920   6.158   3.856
 6578TIP3    H119698   1.987   6.132   3.793
 6578TIP3    H219699   1.837   6.138   3.813
 6579TIP3   OH219700   4.486   5.898   4.999
 6579TIP3    H119701   4.420   5.861   4.940
 6579TIP3    H219702   4.499   5.830   5.065
 6580TIP3   OH219703   2.924   2.116   2.449
 6580TIP3    H119704   2.940   2.196   2.497
 6580TIP3    H219705   3.001   2.106   2.392
 6581TIP3   OH219706   3.027   4.847   2.185
 6581TIP3    H119707   3.081   4.861   2.106
 6581TIP3    H219708   2.972   4.926   2.190
 6582TIP3   OH219709   6.000   1.278   2.603
 6582TIP3    H119710   6.080   1.275   2.550
 6582TIP3    H219711   5.942   1.336   2.554
 6583TIP3   OH219712   4.792   4.550   4.894
 6583TIP3    H119713   4.760   4.513   4.812
 6583TIP3    H219714   4.736   4.626   4.909
 6584TIP3   OH219715   2.682   0.593   5.616
 6584TIP3    H119716   2.709   0.501   5.622
 6584TIP3    H219717   2.746   0.633   5.557
 6585TIP3   OH219718   3.717   5.261   3.283
 6585TIP3    H119719   3.720   5.350   3.250
 6585TIP3    H219720   3.788   5.215   3.237
 6586TIP3   OH219721   1.451   2.162   1.949
 6586TIP3    H119722   1.425   2.216   2.023
 6586TIP3    H219723   1.368   2.138   1.907
 6587TIP3   OH219724   3.096   5.841   1.875
 6587TIP3    H119725   3.101   5.935   1.855
 6587TIP3    H219726   3.158   5.829   1.947
 6588TIP3   OH219727   5.108   1.941   2.079
 6588TIP3    H119728   5.182   1.989   2.118
 6588TIP3    H219729   5.102   1.860   2.131
 6589TIP3   OH219730   3.470   2.687   2.247
 6589TIP3    H119731   3.416   2.721   2.319
 6589TIP3    H219732   3.538   2.753   2.236
 6590TIP3   OH219733   3.356   0.599   0.541
 6590TIP3    H119734   3.396   0.557   0.465
 6590TIP3    H219735   3.310   0.675   0.505
 6591TIP3   OH219736   0.571   5.861   0.406
 6591TIP3    H119737   0.516   5.825   0.476
 6591TIP3    H219738   0.508   5.898   0.344
 6592TIP3   OH219739   4.932   0.194   4.286
 6592TIP3    H119740   4.988   0.238   4.222
 6592TIP3    H219741   4.931   0.252   4.362
 6593TIP3   OH219742   3.825   4.045   0.161
 6593TIP3    H119743   3.863   3.960   0.184
 6593TIP3    H219744   3.816   4.090   0.245
 6594TIP3   OH219745   3.987   4.202   1.930
 6594TIP3    H119746   3.997   4.262   2.005
 6594TIP3    H219747   3.956   4.258   1.859
 6595TIP3   OH219748   7.232   5.073   0.662
 6595TIP3    H119749   7.166   5.108   0.601
 6595TIP3    H219750   7.181   5.045   0.738
 6596TIP3   OH219751   1.156   5.185  -0.023
 6596TIP3    H119752   1.067   5.149  -0.017
 6596TIP3    H219753   1.197   5.160   0.060
 6597TIP3   OH219754   4.524   1.149   0.343
 6597TIP3    H119755   4.471   1.225   0.319
 6597TIP3    H219756   4.584   1.182   0.410
 6598TIP3   OH219757   6.962   0.257   2.620
 6598TIP3    H119758   6.986   0.213   2.539
 6598TIP3    H219759   6.910   0.193   2.668
 6599TIP3   OH219760   5.165   6.126   1.754
 6599TIP3    H119761   5.185   6.182   1.679
 6599TIP3    H219762   5.188   6.180   1.830
 6600TIP3   OH219763   1.005   3.158   0.048
 6600TIP3    H119764   1.053   3.130  -0.030
 6600TIP3    H219765   0.916   3.128   0.033
 6601TIP3   OH219766   3.881   0.807   1.623
 6601TIP3    H119767   3.866   0.896   1.653
 6601TIP3    H219768   3.826   0.799   1.544
 6602TIP3   OH219769   5.812   4.902   2.550
 6602TIP3    H119770   5.737   4.863   2.506
 6602TIP3    H219771   5.802   4.996   2.534
 6603TIP3   OH219772   0.495   3.053   3.418
 6603TIP3    H119773   0.410   3.014   3.399
 6603TIP3    H219774   0.490   3.141   3.380
 6604TIP3   OH219775   1.319   2.659   3.257
 6604TIP3    H119776   1.225   2.656   3.274
 6604TIP3    H219777   1.342   2.751   3.266
 6605TIP3   OH219778   4.257   2.337   4.474
 6605TIP3    H119779   4.205   2.412   4.444
 6605TIP3    H219780   4.218   2.262   4.430
 6606TIP3   OH219781   5.506   2.086   4.230
 6606TIP3    H119782   5.601   2.098   4.236
 6606TIP3    H219783   5.489   2.078   4.136
 6607TIP3   OH219784   1.527   2.252   3.309
 6607TIP3    H119785   1.523   2.274   3.216
 6607TIP3    H219786   1.462   2.310   3.350
 6608TIP3   OH219787   2.613   2.115   0.129
 6608TIP3    H119788   2.557   2.148   0.059
 6608TIP3    H219789   2.689   2.174   0.129
 6609TIP3   OH219790   1.220   5.026   1.552
 6609TIP3    H119791   1.311   4.998   1.547
 6609TIP3    H219792   1.204   5.067   1.467
 6610TIP3   OH219793   6.963   0.808   4.438
 6610TIP3    H119794   6.916   0.847   4.364
 6610TIP3    H219795   6.902   0.814   4.511
 6611TIP3   OH219796   2.600   6.103   1.742
 6611TIP3    H119797   2.516   6.125   1.784
 6611TIP3    H219798   2.590   6.133   1.652
 6612TIP3   OH219799   2.468   0.984   3.126
 6612TIP3    H119800   2.515   0.907   3.095
 6612TIP3    H219801   2.391   0.949   3.171
 6613TIP3   OH219802   0.832   4.112   1.656
 6613TIP3    H119803   0.914   4.081   1.695
 6613TIP3    H219804   0.763   4.070   1.706
 6614TIP3   OH219805   6.983   5.261   3.458
 6614TIP3    H119806   7.028   5.222   3.383
 6614TIP3    H219807   6.950   5.187   3.508
 6615TIP3   OH219808   2.963   5.004   4.542
 6615TIP3    H119809   3.005   5.081   4.580
 6615TIP3    H219810   2.896   4.979   4.605
 6616TIP3   OH219811   5.777   1.705   2.970
 6616TIP3    H119812   5.701   1.659   3.006
 6616TIP3    H219813   5.846   1.691   3.035
 6617TIP3   OH219814   5.616   1.960   5.583
 6617TIP3    H119815   5.679   1.928   5.647
 6617TIP3    H219816   5.532   1.962   5.631
 6618TIP3   OH219817   3.331   1.513   4.137
 6618TIP3    H119818   3.312   1.553   4.222
 6618TIP3    H219819   3.321   1.419   4.152
 6619TIP3   OH219820   6.046   1.359   4.785
 6619TIP3    H119821   6.140   1.359   4.767
 6619TIP3    H219822   6.035   1.418   4.860
 6620TIP3   OH219823   6.695   1.799   1.546
 6620TIP3    H119824   6.733   1.820   1.632
 6620TIP3    H219825   6.716   1.874   1.491
 6621TIP3   OH219826   5.159   3.595   3.088
 6621TIP3    H119827   5.173   3.545   3.008
 6621TIP3    H219828   5.081   3.648   3.070
 6622TIP3   OH219829   1.740   2.785   3.819
 6622TIP3    H119830   1.678   2.719   3.849
 6622TIP3    H219831   1.816   2.734   3.789
 6623TIP3   OH219832   3.881   4.873   4.514
 6623TIP3    H119833   3.962   4.822   4.515
 6623TIP3    H219834   3.900   4.948   4.457
 6624TIP3   OH219835   5.038   5.888   0.814
 6624TIP3    H119836   4.990   5.909   0.733
 6624TIP3    H219837   5.014   5.798   0.834
 6625TIP3   OH219838   2.721   1.037   2.039
 6625TIP3    H119839   2.728   1.110   2.100
 6625TIP3    H219840   2.641   0.991   2.064
 6626TIP3   OH219841   4.182   4.794   0.801
 6626TIP3    H119842   4.249   4.753   0.746
 6626TIP3    H219843   4.101   4.786   0.750
 6627TIP3   OH219844   2.448   3.861   1.327
 6627TIP3    H119845   2.476   3.779   1.286
 6627TIP3    H219846   2.526   3.917   1.325
 6628TIP3   OH219847   5.460   2.293   1.573
 6628TIP3    H119848   5.425   2.207   1.596
 6628TIP3    H219849   5.492   2.283   1.484
 6629TIP3   OH219850   5.044   2.781   5.287
 6629TIP3    H119851   5.044   2.749   5.377
 6629TIP3    H219852   4.959   2.754   5.252
 6630TIP3   OH219853   6.525   0.379   4.567
 6630TIP3    H119854   6.500   0.344   4.481
 6630TIP3    H219855   6.577   0.457   4.546
 6631TIP3   OH219856   2.673   5.152   1.071
 6631TIP3    H119857   2.626   5.236   1.078
 6631TIP3    H219858   2.604   5.087   1.059
 6632TIP3   OH219859   1.018   2.574   5.818
 6632TIP3    H119860   1.032   2.522   5.897
 6632TIP3    H219861   1.024   2.511   5.746
 6633TIP3   OH219862   1.000   1.118   5.344
 6633TIP3    H119863   1.076   1.114   5.287
 6633TIP3    H219864   1.035   1.136   5.431
 6634TIP3   OH219865   0.829   4.555   0.631
 6634TIP3    H119866   0.750   4.586   0.676
 6634TIP3    H219867   0.877   4.635   0.610
 6635TIP3   OH219868   5.802   2.994   0.832
 6635TIP3    H119869   5.844   2.956   0.909
 6635TIP3    H219870   5.874   3.020   0.775
 6636TIP3   OH219871   3.709   6.775   0.245
 6636TIP3    H119872   3.712   6.788   0.339
 6636TIP3    H219873   3.623   6.737   0.228
 6637TIP3   OH219874   1.107   4.369   4.580
 6637TIP3    H119875   1.036   4.379   4.516
 6637TIP3    H219876   1.064   4.336   4.659
 6638TIP3   OH219877   1.661   4.600   3.335
 6638TIP3    H119878   1.711   4.669   3.291
 6638TIP3    H219879   1.573   4.635   3.343
 6639TIP3   OH219880   5.493   0.312   3.461
 6639TIP3    H119881   5.547   0.273   3.392
 6639TIP3    H219882   5.556   0.351   3.522
 6640TIP3   OH219883   2.587   3.205   3.325
 6640TIP3    H119884   2.596   3.237   3.414
 6640TIP3    H219885   2.672   3.167   3.304
 6641TIP3   OH219886   1.187   5.179   2.663
 6641TIP3    H119887   1.216   5.136   2.583
 6641TIP3    H219888   1.247   5.253   2.674
 6642TIP3   OH219889   3.947   3.070   3.702
 6642TIP3    H119890   3.983   2.985   3.725
 6642TIP3    H219891   3.992   3.132   3.759
 6643TIP3   OH219892   4.879   0.503   4.867
 6643TIP3    H119893   4.964   0.517   4.908
 6643TIP3    H219894   4.815   0.531   4.932
 6644TIP3   OH219895   0.613   4.458   2.799
 6644TIP3    H119896   0.540   4.514   2.772
 6644TIP3    H219897   0.648   4.501   2.878
 6645TIP3   OH219898   4.147   1.688   3.115
 6645TIP3    H119899   4.237   1.719   3.110
 6645TIP3    H219900   4.132   1.672   3.208
 6646TIP3   OH219901   0.765   5.356   1.358
 6646TIP3    H119902   0.748   5.322   1.270
 6646TIP3    H219903   0.725   5.442   1.359
 6647TIP3   OH219904   3.125   0.876   4.268
 6647TIP3    H119905   3.095   0.891   4.179
 6647TIP3    H219906   3.072   0.934   4.322
 6648TIP3   OH219907   4.736   3.232   5.483
 6648TIP3    H119908   4.724   3.260   5.574
 6648TIP3    H219909   4.814   3.278   5.453
 6649TIP3   OH219910   0.847   4.160   3.748
 6649TIP3    H119911   0.895   4.205   3.818
 6649TIP3    H219912   0.846   4.223   3.676
 6650TIP3   OH219913   2.555   2.492   2.921
 6650TIP3    H119914   2.483   2.469   2.862
 6650TIP3    H219915   2.560   2.587   2.916
 6651TIP3   OH219916   6.248   4.094   3.293
 6651TIP3    H119917   6.199   4.013   3.281
 6651TIP3    H219918   6.338   4.072   3.268
 6652TIP3   OH219919   3.990   1.858   3.946
 6652TIP3    H119920   3.955   1.891   3.864
 6652TIP3    H219921   3.921   1.877   4.010
 6653TIP3   OH219922   0.663   1.029   3.683
 6653TIP3    H119923   0.678   1.103   3.623
 6653TIP3    H219924   0.590   0.981   3.645
 6654TIP3   OH219925   7.076   4.867   4.819
 6654TIP3    H119926   7.142   4.805   4.850
 6654TIP3    H219927   7.120   4.951   4.819
 6655TIP3   OH219928   5.003   3.227   4.979
 6655TIP3    H119929   5.021   3.241   4.886
 6655TIP3    H219930   4.999   3.132   4.989
 6656TIP3   OH219931   5.280   1.518   3.529
 6656TIP3    H119932   5.321   1.513   3.443
 6656TIP3    H219933   5.216   1.447   3.529
 6657TIP3   OH219934   0.544   2.319   1.021
 6657TIP3    H119935   0.529   2.360   0.936
 6657TIP3    H219936   0.529   2.225   1.006
 6658TIP3   OH219937   5.771   2.087   4.712
 6658TIP3    H119938   5.863   2.112   4.710
 6658TIP3    H219939   5.725   2.164   4.744
 6659TIP3   OH219940   2.427   0.465   5.863
 6659TIP3    H119941   2.371   0.455   5.941
 6659TIP3    H219942   2.461   0.554   5.869
 6660TIP3   OH219943   0.279   3.461   5.261
 6660TIP3    H119944   0.283   3.495   5.350
 6660TIP3    H219945   0.293   3.366   5.270
 6661TIP3   OH219946   5.655   3.824   4.434
 6661TIP3    H119947   5.569   3.785   4.416
 6661TIP3    H219948   5.680   3.865   4.351
 6662TIP3   OH219949   5.875   4.681   3.802
 6662TIP3    H119950   5.946   4.642   3.751
 6662TIP3    H219951   5.795   4.646   3.762
 6663TIP3   OH219952   1.307   2.711   3.775
 6663TIP3    H119953   1.212   2.725   3.777
 6663TIP3    H219954   1.344   2.799   3.768
 6664TIP3   OH219955   6.651   2.172  -0.032
 6664TIP3    H119956   6.728   2.179   0.024
 6664TIP3    H219957   6.578   2.156   0.028
 6665TIP3   OH219958   5.554   1.818   3.178
 6665TIP3    H119959   5.490   1.843   3.112
 6665TIP3    H219960   5.548   1.723   3.183
 6666TIP3   OH219961   2.301   4.240   3.598
 6666TIP3    H119962   2.208   4.252   3.619
 6666TIP3    H219963   2.345   4.310   3.646
 6667TIP3   OH219964   3.950   6.314   4.037
 6667TIP3    H119965   3.979   6.236   3.990
 6667TIP3    H219966   4.010   6.322   4.111
 6668TIP3   OH219967   0.478   5.478   3.460
 6668TIP3    H119968   0.511   5.393   3.488
 6668TIP3    H219969   0.394   5.459   3.418
 6669TIP3   OH219970   4.924   6.748   4.817
 6669TIP3    H119971   4.932   6.841   4.797
 6669TIP3    H219972   5.002   6.728   4.870
 6670TIP3   OH219973   5.997   2.666   1.712
 6670TIP3    H119974   6.049   2.741   1.683
 6670TIP3    H219975   5.929   2.658   1.646
 6671TIP3   OH219976   5.856   2.969   2.034
 6671TIP3    H119977   5.919   2.903   2.006
 6671TIP3    H219978   5.789   2.969   1.966
 6672TIP3   OH219979   3.941   0.912   2.100
 6672TIP3    H119980   3.852   0.910   2.134
 6672TIP3    H219981   3.954   0.827   2.058
 6673TIP3   OH219982   3.423   0.362   1.530
 6673TIP3    H119983   3.483   0.289   1.543
 6673TIP3    H219984   3.441   0.392   1.441
 6674TIP3   OH219985   5.228   1.275   0.839
 6674TIP3    H119986   5.145   1.227   0.833
 6674TIP3    H219987   5.280   1.243   0.766
 6675TIP3   OH219988   0.158   4.352   4.899
 6675TIP3    H119989   0.168   4.444   4.924
 6675TIP3    H219990   0.099   4.316   4.966
 6676TIP3   OH219991   2.100   1.412   0.432
 6676TIP3    H119992   2.107   1.458   0.348
 6676TIP3    H219993   2.166   1.454   0.488
 6677TIP3   OH219994   2.158   4.461   4.218
 6677TIP3    H119995   2.242   4.446   4.260
 6677TIP3    H219996   2.178   4.469   4.124
 6678TIP3   OH219997   4.457   2.925   5.004
 6678TIP3    H119998   4.446   3.018   4.985
 6678TIP3    H219999   4.370   2.894   5.028
 6679TIP3   OH220000   0.398   3.625   4.008
 6679TIP3    H120001   0.439   3.608   4.093
 6679TIP3    H220002   0.464   3.597   3.944
 6680TIP3   OH220003   4.555   5.907   2.546
 6680TIP3    H120004   4.577   5.824   2.589
 6680TIP3    H220005   4.488   5.884   2.482
 6681TIP3   OH220006   4.904   2.956   4.974
 6681TIP3    H120007   4.951   2.883   5.016
 6681TIP3    H220008   4.811   2.933   4.983
 6682TIP3   OH220009   3.747   4.836   1.252
 6682TIP3    H120010   3.795   4.902   1.302
 6682TIP3    H220011   3.703   4.886   1.183
 6683TIP3   OH220012   0.323   1.140   4.720
 6683TIP3    H120013   0.256   1.112   4.658
 6683TIP3    H220014   0.283   1.123   4.806
 6684TIP3   OH220015   3.417   4.612   5.219
 6684TIP3    H120016   3.510   4.629   5.235
 6684TIP3    H220017   3.391   4.553   5.290
 6685TIP3   OH220018   2.940   4.703   1.447
 6685TIP3    H120019   2.994   4.630   1.478
 6685TIP3    H220020   2.970   4.720   1.358
 6686TIP3   OH220021   1.593   6.757   2.158
 6686TIP3    H120022   1.545   6.736   2.238
 6686TIP3    H220023   1.537   6.725   2.087
 6687TIP3   OH220024   2.878   2.356   5.085
 6687TIP3    H120025   2.808   2.391   5.140
 6687TIP3    H220026   2.851   2.374   4.995
 6688TIP3   OH220027   2.751   4.462   2.380
 6688TIP3    H120028   2.697   4.519   2.435
 6688TIP3    H220029   2.819   4.520   2.346
 6689TIP3   OH220030   3.462   1.888   1.330
 6689TIP3    H120031   3.468   1.899   1.425
 6689TIP3    H220032   3.543   1.926   1.296
 6690TIP3   OH220033   3.148   1.482   3.419
 6690TIP3    H120034   3.079   1.543   3.445
 6690TIP3    H220035   3.186   1.521   3.340
 6691TIP3   OH220036   3.669   2.107   4.683
 6691TIP3    H120037   3.701   2.160   4.755
 6691TIP3    H220038   3.748   2.084   4.633
 6692TIP3   OH220039   2.972   1.587   2.920
 6692TIP3    H120040   2.991   1.493   2.917
 6692TIP3    H220041   2.908   1.597   2.990
 6693TIP3   OH220042   1.270   0.781   2.534
 6693TIP3    H120043   1.313   0.731   2.464
 6693TIP3    H220044   1.324   0.859   2.545
 6694TIP3   OH220045   6.500   6.261   3.367
 6694TIP3    H120046   6.530   6.223   3.449
 6694TIP3    H220047   6.427   6.319   3.392
 6695TIP3   OH220048   5.214   4.194   2.599
 6695TIP3    H120049   5.223   4.204   2.504
 6695TIP3    H220050   5.141   4.134   2.610
 6696TIP3   OH220051   1.497   5.869   0.414
 6696TIP3    H120052   1.542   5.784   0.407
 6696TIP3    H220053   1.436   5.870   0.340
 6697TIP3   OH220054   5.499   1.954   3.553
 6697TIP3    H120055   5.407   1.967   3.577
 6697TIP3    H220056   5.536   2.043   3.552
 6698TIP3   OH220057   7.072   1.629   2.961
 6698TIP3    H120058   7.084   1.535   2.968
 6698TIP3    H220059   7.040   1.655   3.047
 6699TIP3   OH220060   1.552   3.704   4.382
 6699TIP3    H120061   1.512   3.624   4.347
 6699TIP3    H220062   1.515   3.712   4.470
 6700TIP3   OH220063   6.815   6.453   0.487
 6700TIP3    H120064   6.820   6.511   0.563
 6700TIP3    H220065   6.873   6.380   0.508
 6701TIP3   OH220066   2.800   2.492   2.531
 6701TIP3    H120067   2.887   2.489   2.492
 6701TIP3    H220068   2.796   2.577   2.576
 6702TIP3   OH220069   1.045   2.245   1.508
 6702TIP3    H120070   1.009   2.161   1.480
 6702TIP3    H220071   1.103   2.271   1.437
 6703TIP3   OH220072   0.994   0.665   4.784
 6703TIP3    H120073   1.034   0.746   4.752
 6703TIP3    H220074   0.901   0.688   4.794
 6704TIP3   OH220075   1.456   3.180   1.065
 6704TIP3    H120076   1.448   3.191   1.160
 6704TIP3    H220077   1.441   3.268   1.030
 6705TIP3   OH220078   6.198   2.421   1.566
 6705TIP3    H120079   6.113   2.386   1.540
 6705TIP3    H220080   6.241   2.348   1.612
 6706TIP3   OH220081   5.671   2.948   4.456
 6706TIP3    H120082   5.676   2.987   4.368
 6706TIP3    H220083   5.606   2.878   4.447
 6707TIP3   OH220084   0.841   0.302   4.043
 6707TIP3    H120085   0.826   0.207   4.040
 6707TIP3    H220086   0.936   0.311   4.046
 6708TIP3   OH220087   5.970   1.510   5.567
 6708TIP3    H120088   5.974   1.502   5.472
 6708TIP3    H220089   6.061   1.500   5.596
 6709TIP3   OH220090   0.535   3.527   4.529
 6709TIP3    H120091   0.460   3.566   4.574
 6709TIP3    H220092   0.503   3.511   4.440
 6710TIP3   OH220093   0.145   3.545   4.356
 6710TIP3    H120094   0.051   3.533   4.343
 6710TIP3    H220095   0.185   3.473   4.308
 6711TIP3   OH220096   4.010   1.521   4.807
 6711TIP3    H120097   4.041   1.560   4.889
 6711TIP3    H220098   4.037   1.583   4.739
 6712TIP3   OH220099   4.847   1.812   0.522
 6712TIP3    H120100   4.919   1.844   0.576
 6712TIP3    H220101   4.873   1.835   0.432
 6713TIP3   OH220102   2.504   5.468   0.719
 6713TIP3    H120103   2.417   5.451   0.683
 6713TIP3    H220104   2.553   5.387   0.703
 6714TIP3   OH220105   5.258   1.887   5.173
 6714TIP3    H120106   5.220   1.802   5.193
 6714TIP3    H220107   5.254   1.935   5.256
 6715TIP3   OH220108   0.127   3.023   2.665
 6715TIP3    H120109   0.107   2.993   2.754
 6715TIP3    H220110   0.090   2.956   2.608
 6716TIP3   OH220111   4.291   3.963   3.347
 6716TIP3    H120112   4.311   4.016   3.270
 6716TIP3    H220113   4.326   4.013   3.421
 6717TIP3   OH220114   1.543   1.151   3.748
 6717TIP3    H120115   1.551   1.121   3.839
 6717TIP3    H220116   1.615   1.107   3.702
 6718TIP3   OH220117   5.604   1.553   0.897
 6718TIP3    H120118   5.510   1.546   0.910
 6718TIP3    H220119   5.626   1.641   0.926
 6719TIP3   OH220120   6.735   5.115   1.558
 6719TIP3    H120121   6.658   5.068   1.589
 6719TIP3    H220122   6.701   5.199   1.526
 6720TIP3   OH220123   0.192   0.686   4.093
 6720TIP3    H120124   0.178   0.772   4.055
 6720TIP3    H220125   0.251   0.702   4.167
 6721TIP3   OH220126   0.296   4.580   4.043
 6721TIP3    H120127   0.305   4.527   4.123
 6721TIP3    H220128   0.292   4.670   4.075
 6722TIP3   OH220129   1.902   2.171   2.764
 6722TIP3    H120130   1.925   2.242   2.824
 6722TIP3    H220131   1.959   2.185   2.688
 6723TIP3   OH220132   1.974   2.273   4.877
 6723TIP3    H120133   2.034   2.337   4.839
 6723TIP3    H220134   1.937   2.227   4.801
 6724TIP3   OH220135   3.756   1.424   2.570
 6724TIP3    H120136   3.826   1.466   2.619
 6724TIP3    H220137   3.677   1.473   2.595
 6725TIP3   OH220138   5.880   5.983   3.538
 6725TIP3    H120139   5.857   5.913   3.600
 6725TIP3    H220140   5.797   6.013   3.502
 6726TIP3   OH220141   4.048   1.952   2.282
 6726TIP3    H120142   4.022   2.043   2.265
 6726TIP3    H220143   4.099   1.957   2.363
 6727TIP3   OH220144   3.248   2.880   1.787
 6727TIP3    H120145   3.305   2.914   1.719
 6727TIP3    H220146   3.212   2.799   1.751
 6728TIP3   OH220147   0.102   0.052   5.570
 6728TIP3    H120148   0.012   0.033   5.545
 6728TIP3    H220149   0.149  -0.031   5.558
 6729TIP3   OH220150   6.843   4.256   3.619
 6729TIP3    H120151   6.920   4.203   3.638
 6729TIP3    H220152   6.875   4.325   3.561
 6730TIP3   OH220153   3.701   1.668   0.273
 6730TIP3    H120154   3.786   1.634   0.247
 6730TIP3    H220155   3.720   1.754   0.309
 6731TIP3   OH220156   0.335   0.048   2.063
 6731TIP3    H120157   0.252   0.025   2.021
 6731TIP3    H220158   0.396  -0.019   2.035
 6732TIP3   OH220159   0.729   6.823   5.581
 6732TIP3    H120160   0.765   6.787   5.662
 6732TIP3    H220161   0.766   6.768   5.512
 6733TIP3   OH220162   6.523   4.180   3.244
 6733TIP3    H120163   6.612   4.142   3.247
 6733TIP3    H220164   6.505   4.206   3.334
 6734TIP3   OH220165   5.119   4.525   0.974
 6734TIP3    H120166   5.047   4.471   0.941
 6734TIP3    H220167   5.149   4.478   1.052
 6735TIP3   OH220168   4.956   0.538   1.937
 6735TIP3    H120169   4.921   0.513   1.852
 6735TIP3    H220170   4.888   0.594   1.976
 6736TIP3   OH220171   5.248   0.617   1.137
 6736TIP3    H120172   5.326   0.672   1.147
 6736TIP3    H220173   5.255   0.552   1.206
 6737TIP3   OH220174   6.581   2.145   3.613
 6737TIP3    H120175   6.609   2.114   3.699
 6737TIP3    H220176   6.486   2.135   3.614
 6738TIP3   OH220177   2.864   6.263   1.614
 6738TIP3    H120178   2.773   6.231   1.611
 6738TIP3    H220179   2.895   6.253   1.524
 6739TIP3   OH220180   4.170   5.974   2.243
 6739TIP3    H120181   4.119   5.955   2.322
 6739TIP3    H220182   4.249   6.017   2.275
 6740TIP3   OH220183   1.766   3.576   0.160
 6740TIP3    H120184   1.831   3.515   0.126
 6740TIP3    H220185   1.792   3.590   0.251
 6741TIP3   OH220186   3.221   5.708   2.683
 6741TIP3    H120187   3.285   5.685   2.750
 6741TIP3    H220188   3.270   5.762   2.621
 6742TIP3   OH220189   6.117   4.885   3.756
 6742TIP3    H120190   6.176   4.833   3.701
 6742TIP3    H220191   6.111   4.836   3.838
 6743TIP3   OH220192   4.620   3.457   1.678
 6743TIP3    H120193   4.628   3.459   1.582
 6743TIP3    H220194   4.643   3.545   1.706
 6744TIP3   OH220195   6.076   4.983   5.767
 6744TIP3    H120196   6.145   5.048   5.749
 6744TIP3    H220197   6.104   4.905   5.719
 6745TIP3   OH220198   6.108   3.778   4.659
 6745TIP3    H120199   6.015   3.760   4.645
 6745TIP3    H220200   6.130   3.844   4.593
 6746TIP3   OH220201   1.149   4.762   1.306
 6746TIP3    H120202   1.164   4.834   1.244
 6746TIP3    H220203   1.107   4.804   1.381
 6747TIP3   OH220204   1.256   5.181   0.407
 6747TIP3    H120205   1.273   5.130   0.328
 6747TIP3    H220206   1.303   5.133   0.476
 6748TIP3   OH220207   6.112   1.635   2.236
 6748TIP3    H120208   6.023   1.662   2.256
 6748TIP3    H220209   6.129   1.668   2.148
 6749TIP3   OH220210   1.838   2.425   5.181
 6749TIP3    H120211   1.914   2.366   5.185
 6749TIP3    H220212   1.799   2.419   5.268
 6750TIP3   OH220213   0.760   0.017   5.722
 6750TIP3    H120214   0.688  -0.035   5.759
 6750TIP3    H220215   0.724   0.056   5.643
 6751TIP3   OH220216   4.152   0.862   3.421
 6751TIP3    H120217   4.133   0.921   3.348
 6751TIP3    H220218   4.247   0.852   3.419
 6752TIP3   OH220219   6.098   3.781   1.399
 6752TIP3    H120220   6.061   3.694   1.412
 6752TIP3    H220221   6.021   3.838   1.388
 6753TIP3   OH220222   5.015   4.104   3.524
 6753TIP3    H120223   5.093   4.090   3.470
 6753TIP3    H220224   4.991   4.195   3.507
 6754TIP3   OH220225   5.480   2.342   5.474
 6754TIP3    H120226   5.433   2.260   5.462
 6754TIP3    H220227   5.412   2.407   5.492
 6755TIP3   OH220228   3.389   0.132   4.094
 6755TIP3    H120229   3.421   0.214   4.058
 6755TIP3    H220230   3.331   0.097   4.026
 6756TIP3   OH220231   6.339   2.247   5.038
 6756TIP3    H120232   6.420   2.210   5.073
 6756TIP3    H220233   6.301   2.176   4.986
 6757TIP3   OH220234   3.310   0.763   1.843
 6757TIP3    H120235   3.311   0.804   1.756
 6757TIP3    H220236   3.267   0.828   1.899
 6758TIP3   OH220237   0.841   2.812   1.005
 6758TIP3    H120238   0.934   2.826   1.027
 6758TIP3    H220239   0.828   2.718   1.019
 6759TIP3   OH220240   1.366   5.232   4.029
 6759TIP3    H120241   1.297   5.192   4.082
 6759TIP3    H220242   1.447   5.193   4.062
 6760TIP3   OH220243   6.094   5.795   1.872
 6760TIP3    H120244   6.047   5.877   1.886
 6760TIP3    H220245   6.033   5.727   1.901
 6761TIP3   OH220246   3.965   1.991   5.479
 6761TIP3    H120247   4.004   2.078   5.494
 6761TIP3    H220248   4.020   1.951   5.413
 6762TIP3   OH220249   4.799   6.198   5.595
 6762TIP3    H120250   4.730   6.254   5.559
 6762TIP3    H220251   4.754   6.118   5.621
 6763TIP3   OH220252   1.036   2.419   4.838
 6763TIP3    H120253   0.942   2.402   4.852
 6763TIP3    H220254   1.056   2.490   4.900
 6764TIP3   OH220255   4.561   3.186   4.236
 6764TIP3    H120256   4.486   3.197   4.294
 6764TIP3    H220257   4.526   3.200   4.148
 6765TIP3   OH220258   4.417   1.374   1.401
 6765TIP3    H120259   4.377   1.450   1.357
 6765TIP3    H220260   4.432   1.404   1.491
 6766TIP3   OH220261   6.072   5.039   3.411
 6766TIP3    H120262   6.088   5.116   3.357
 6766TIP3    H220263   6.148   4.982   3.396
 6767TIP3   OH220264   6.652   5.724   4.526
 6767TIP3    H120265   6.679   5.738   4.435
 6767TIP3    H220266   6.705   5.786   4.576
 6768TIP3   OH220267   3.853   0.817   5.251
 6768TIP3    H120268   3.801   0.880   5.300
 6768TIP3    H220269   3.791   0.751   5.222
 6769TIP3   OH220270   3.914   4.952   5.531
 6769TIP3    H120271   3.927   4.879   5.470
 6769TIP3    H220272   3.818   4.960   5.537
 6770TIP3   OH220273   3.908   3.411   5.866
 6770TIP3    H120274   3.996   3.432   5.836
 6770TIP3    H220275   3.889   3.325   5.827
 6771TIP3   OH220276   7.051   3.009   1.956
 6771TIP3    H120277   6.969   3.041   1.917
 6771TIP3    H220278   7.120   3.048   1.903
 6772TIP3   OH220279   4.077   4.925   0.519
 6772TIP3    H120280   4.106   4.907   0.429
 6772TIP3    H220281   4.145   4.983   0.554
 6773TIP3   OH220282   5.924   0.226   5.046
 6773TIP3    H120283   5.856   0.284   5.010
 6773TIP3    H220284   5.967   0.278   5.114
 6774TIP3   OH220285   2.099   2.244   0.882
 6774TIP3    H120286   2.091   2.269   0.790
 6774TIP3    H220287   2.190   2.263   0.904
 6775TIP3   OH220288   5.129   4.225   4.590
 6775TIP3    H120289   5.173   4.302   4.555
 6775TIP3    H220290   5.177   4.151   4.553
 6776TIP3   OH220291   4.571   2.545   4.424
 6776TIP3    H120292   4.496   2.526   4.480
 6776TIP3    H220293   4.598   2.460   4.390
 6777TIP3   OH220294   5.924   2.378   2.969
 6777TIP3    H120295   5.835   2.344   2.959
 6777TIP3    H220296   5.912   2.464   3.011
 6778TIP3   OH220297   0.048   3.571   1.554
 6778TIP3    H120298  -0.030   3.554   1.502
 6778TIP3    H220299   0.084   3.651   1.516
 6779TIP3   OH220300   3.518   3.356   0.042
 6779TIP3    H120301   3.445   3.417   0.035
 6779TIP3    H220302   3.581   3.386  -0.023
 6780TIP3   OH220303   0.821   5.573   3.073
 6780TIP3    H120304   0.801   5.487   3.037
 6780TIP3    H220305   0.880   5.613   3.010
 6781TIP3   OH220306   3.376   4.875   0.565
 6781TIP3    H120307   3.368   4.918   0.650
 6781TIP3    H220308   3.371   4.782   0.584
 6782TIP3   OH220309   3.072   5.237   4.051
 6782TIP3    H120310   3.041   5.326   4.063
 6782TIP3    H220311   3.037   5.189   4.127
 6783TIP3   OH220312   2.386   6.663   5.168
 6783TIP3    H120313   2.303   6.619   5.185
 6783TIP3    H220314   2.392   6.666   5.073
 6784TIP3   OH220315   1.908   5.337   5.729
 6784TIP3    H120316   1.878   5.411   5.781
 6784TIP3    H220317   2.001   5.328   5.752
 6785TIP3   OH220318   5.829   4.010   2.399
 6785TIP3    H120319   5.921   3.982   2.392
 6785TIP3    H220320   5.801   3.975   2.484
 6786TIP3   OH220321   1.827   2.104   5.451
 6786TIP3    H120322   1.796   2.025   5.496
 6786TIP3    H220323   1.902   2.074   5.399
 6787TIP3   OH220324   7.130   1.049   0.688
 6787TIP3    H120325   7.128   1.117   0.620
 6787TIP3    H220326   7.038   1.030   0.706
 6788TIP3   OH220327   3.964   5.339   2.566
 6788TIP3    H120328   4.037   5.325   2.506
 6788TIP3    H220329   3.891   5.291   2.527
 6789TIP3   OH220330   4.606   1.509   0.129
 6789TIP3    H120331   4.639   1.554   0.207
 6789TIP3    H220332   4.562   1.431   0.163
 6790TIP3   OH220333   6.433   6.622   3.177
 6790TIP3    H120334   6.371   6.633   3.104
 6790TIP3    H220335   6.505   6.570   3.140
 6791TIP3   OH220336   5.790   6.546   2.416
 6791TIP3    H120337   5.736   6.591   2.481
 6791TIP3    H220338   5.798   6.457   2.450
 6792TIP3   OH220339   5.778   1.077   2.883
 6792TIP3    H120340   5.848   1.138   2.907
 6792TIP3    H220341   5.699   1.116   2.919
 6793TIP3   OH220342   1.584   1.038   1.468
 6793TIP3    H120343   1.513   1.102   1.462
 6793TIP3    H220344   1.650   1.070   1.407
 6794TIP3   OH220345   0.813   0.397   3.758
 6794TIP3    H120346   0.780   0.471   3.707
 6794TIP3    H220347   0.784   0.415   3.848
 6795TIP3   OH220348   2.421   6.033   2.797
 6795TIP3    H120349   2.346   5.979   2.773
 6795TIP3    H220350   2.382   6.117   2.824
 6796TIP3   OH220351   6.701   6.397   0.238
 6796TIP3    H120352   6.744   6.442   0.311
 6796TIP3    H220353   6.622   6.359   0.278
 6797TIP3   OH220354   5.013   5.432   4.258
 6797TIP3    H120355   4.958   5.469   4.327
 6797TIP3    H220356   4.952   5.392   4.196
 6798TIP3   OH220357   3.951   1.748   2.579
 6798TIP3    H120358   3.907   1.689   2.640
 6798TIP3    H220359   3.918   1.722   2.493
 6799TIP3   OH220360   6.003   0.841   4.190
 6799TIP3    H120361   6.063   0.912   4.165
 6799TIP3    H220362   5.989   0.792   4.110
 6800TIP3   OH220363   1.995   0.644   4.351
 6800TIP3    H120364   1.950   0.562   4.371
 6800TIP3    H220365   1.926   0.710   4.353
 6801TIP3   OH220366   6.056   2.754   0.097
 6801TIP3    H120367   5.987   2.790   0.042
 6801TIP3    H220368   6.089   2.830   0.146
 6802TIP3   OH220369   1.090   4.487   1.309
 6802TIP3    H120370   0.995   4.486   1.318
 6802TIP3    H220371   1.113   4.580   1.313
 6803TIP3   OH220372   3.586   2.887   0.464
 6803TIP3    H120373   3.622   2.824   0.402
 6803TIP3    H220374   3.642   2.964   0.456
 6804TIP3   OH220375   6.694   0.890   5.737
 6804TIP3    H120376   6.783   0.877   5.769
 6804TIP3    H220377   6.699   0.868   5.644
 6805TIP3   OH220378   1.710   1.965   2.845
 6805TIP3    H120379   1.765   2.033   2.807
 6805TIP3    H220380   1.633   1.961   2.789
 6806TIP3   OH220381   5.453   2.618   3.880
 6806TIP3    H120382   5.515   2.683   3.911
 6806TIP3    H220383   5.384   2.617   3.947
 6807TIP3   OH220384  -0.018   4.718   2.947
 6807TIP3    H120385   0.059   4.711   3.003
 6807TIP3    H220386  -0.016   4.638   2.894
 6808TIP3   OH220387   3.955   3.771   5.187
 6808TIP3    H120388   3.907   3.849   5.158
 6808TIP3    H220389   3.901   3.698   5.159
 6809TIP3   OH220390   1.103   2.650   4.993
 6809TIP3    H120391   1.085   2.732   4.947
 6809TIP3    H220392   1.197   2.652   5.010
 6810TIP3   OH220393   5.797   2.351   5.802
 6810TIP3    H120394   5.707   2.323   5.818
 6810TIP3    H220395   5.793   2.403   5.722
 6811TIP3   OH220396   6.795   1.702   3.750
 6811TIP3    H120397   6.849   1.734   3.822
 6811TIP3    H220398   6.779   1.779   3.696
 6812TIP3   OH220399   6.110   6.582   5.442
 6812TIP3    H120400   6.168   6.564   5.516
 6812TIP3    H220401   6.044   6.513   5.446
 6813TIP3   OH220402   7.085   4.535   4.055
 6813TIP3    H120403   7.124   4.491   4.130
 6813TIP3    H220404   7.077   4.626   4.082
 6814TIP3   OH220405   0.201   0.284   5.658
 6814TIP3    H120406   0.193   0.276   5.753
 6814TIP3    H220407   0.141   0.218   5.624
 6815TIP3   OH220408   6.797   1.133   0.027
 6815TIP3    H120409   6.734   1.186  -0.023
 6815TIP3    H220410   6.780   1.156   0.118
 6816TIP3   OH220411   3.284   6.071   4.593
 6816TIP3    H120412   3.367   6.099   4.553
 6816TIP3    H220413   3.229   6.044   4.520
 6817TIP3   OH220414   2.533   0.237   2.941
 6817TIP3    H120415   2.442   0.260   2.961
 6817TIP3    H220416   2.584   0.279   3.010
 6818TIP3   OH220417   4.698   4.907   0.582
 6818TIP3    H120418   4.767   4.846   0.608
 6818TIP3    H220419   4.693   4.898   0.487
 6819TIP3   OH220420   0.977   6.264   0.952
 6819TIP3    H120421   0.998   6.257   1.046
 6819TIP3    H220422   1.050   6.313   0.915
 6820TIP3   OH220423   3.285   5.188   4.354
 6820TIP3    H120424   3.244   5.115   4.308
 6820TIP3    H220425   3.367   5.153   4.388
 6821TIP3   OH220426   6.333   0.041   2.024
 6821TIP3    H120427   6.420   0.008   2.045
 6821TIP3    H220428   6.332   0.129   2.061
 6822TIP3   OH220429   0.500   6.295   0.376
 6822TIP3    H120430   0.557   6.219   0.372
 6822TIP3    H220431   0.538   6.350   0.444
 6823TIP3   OH220432   4.643   6.752   4.947
 6823TIP3    H120433   4.712   6.804   4.906
 6823TIP3    H220434   4.673   6.661   4.940
 6824TIP3   OH220435   0.237   1.360   2.696
 6824TIP3    H120436   0.220   1.366   2.790
 6824TIP3    H220437   0.155   1.326   2.660
 6825TIP3   OH220438   0.762   5.569   3.383
 6825TIP3    H120439   0.776   5.575   3.288
 6825TIP3    H220440   0.672   5.537   3.392
 6826TIP3   OH220441   2.384   0.415   0.222
 6826TIP3    H120442   2.448   0.345   0.235
 6826TIP3    H220443   2.348   0.399   0.134
 6827TIP3   OH220444   5.732   2.204   5.136
 6827TIP3    H120445   5.664   2.268   5.156
 6827TIP3    H220446   5.709   2.128   5.190
 6828TIP3   OH220447   1.422   6.608   0.232
 6828TIP3    H120448   1.513   6.593   0.258
 6828TIP3    H220449   1.423   6.695   0.192
 6829TIP3   OH220450   4.360   4.973   2.544
 6829TIP3    H120451   4.343   4.885   2.578
 6829TIP3    H220452   4.298   4.983   2.472
 6830TIP3   OH220453   6.168   4.281   3.499
 6830TIP3    H120454   6.223   4.229   3.442
 6830TIP3    H220455   6.216   4.286   3.582
 6831TIP3   OH220456   5.159   6.533   5.357
 6831TIP3    H120457   5.082   6.585   5.337
 6831TIP3    H220458   5.126   6.460   5.409
 6832TIP3   OH220459   4.864   6.272   1.471
 6832TIP3    H120460   4.852   6.248   1.379
 6832TIP3    H220461   4.775   6.290   1.503
 6833TIP3   OH220462   1.727   3.816   4.051
 6833TIP3    H120463   1.641   3.775   4.042
 6833TIP3    H220464   1.773   3.794   3.970
 6834TIP3   OH220465   3.729   3.175   0.909
 6834TIP3    H120466   3.726   3.152   0.816
 6834TIP3    H220467   3.782   3.106   0.949
 6835TIP3   OH220468   2.040   1.740   0.048
 6835TIP3    H120469   1.950   1.709   0.034
 6835TIP3    H220470   2.029   1.824   0.091
 6836TIP3   OH220471   5.664   6.616   4.208
 6836TIP3    H120472   5.737   6.645   4.153
 6836TIP3    H220473   5.628   6.697   4.245
 6837TIP3   OH220474   0.833   4.497   5.838
 6837TIP3    H120475   0.796   4.459   5.917
 6837TIP3    H220476   0.839   4.591   5.856
 6838TIP3   OH220477   7.145   1.198   1.307
 6838TIP3    H120478   7.110   1.276   1.351
 6838TIP3    H220479   7.068   1.147   1.283
 6839TIP3   OH220480   2.998   1.097   3.582
 6839TIP3    H120481   3.002   1.152   3.503
 6839TIP3    H220482   2.957   1.154   3.648
 6840TIP3   OH220483   3.934   4.223   5.483
 6840TIP3    H120484   3.977   4.149   5.438
 6840TIP3    H220485   4.001   4.257   5.543
 6841TIP3   OH220486   1.692   5.041   2.006
 6841TIP3    H120487   1.683   5.031   1.911
 6841TIP3    H220488   1.786   5.054   2.019
 6842TIP3   OH220489   2.835   3.559   4.146
 6842TIP3    H120490   2.884   3.641   4.141
 6842TIP3    H220491   2.821   3.533   4.055
 6843TIP3   OH220492   6.628   3.846   1.439
 6843TIP3    H120493   6.627   3.927   1.387
 6843TIP3    H220494   6.535   3.827   1.454
 6844TIP3   OH220495   2.651   0.347   3.171
 6844TIP3    H120496   2.694   0.410   3.113
 6844TIP3    H220497   2.723   0.305   3.219
 6845TIP3   OH220498   3.310   4.024   5.460
 6845TIP3    H120499   3.392   4.044   5.414
 6845TIP3    H220500   3.242   4.040   5.394
 6846TIP3   OH220501   6.466   5.189   5.648
 6846TIP3    H120502   6.519   5.269   5.657
 6846TIP3    H220503   6.473   5.167   5.555
 6847TIP3   OH220504   2.318   1.221   4.172
 6847TIP3    H120505   2.348   1.285   4.108
 6847TIP3    H220506   2.312   1.139   4.123
 6848TIP3   OH220507   3.899   4.303   4.386
 6848TIP3    H120508   3.874   4.278   4.296
 6848TIP3    H220509   3.834   4.258   4.441
 6849TIP3   OH220510   6.554   3.056   4.898
 6849TIP3    H120511   6.624   3.030   4.838
 6849TIP3    H220512   6.542   3.150   4.881
 6850TIP3   OH220513   1.500   4.507   2.004
 6850TIP3    H120514   1.532   4.418   1.988
 6850TIP3    H220515   1.410   4.496   2.033
 6851TIP3   OH220516   0.837   3.257   4.985
 6851TIP3    H120517   0.839   3.352   4.993
 6851TIP3    H220518   0.744   3.235   4.984
 6852TIP3   OH220519   0.568   2.760   3.468
 6852TIP3    H120520   0.547   2.847   3.503
 6852TIP3    H220521   0.503   2.746   3.400
 6853TIP3   OH220522   1.749   1.049   3.623
 6853TIP3    H120523   1.800   0.975   3.655
 6853TIP3    H220524   1.698   1.013   3.550
 6854TIP3   OH220525   3.243   6.333   0.521
 6854TIP3    H120526   3.219   6.241   0.522
 6854TIP3    H220527   3.336   6.334   0.543
 6855TIP3   OH220528   2.144   3.192   2.715
 6855TIP3    H120529   2.177   3.167   2.629
 6855TIP3    H220530   2.196   3.140   2.777
 6856TIP3   OH220531   1.493   1.368   2.074
 6856TIP3    H120532   1.580   1.354   2.112
 6856TIP3    H220533   1.506   1.435   2.007
 6857TIP3   OH220534   1.815   6.350   0.705
 6857TIP3    H120535   1.725   6.327   0.685
 6857TIP3    H220536   1.864   6.328   0.626
 6858TIP3   OH220537   0.545   0.984   0.958
 6858TIP3    H120538   0.514   1.061   0.911
 6858TIP3    H220539   0.467   0.949   1.000
 6859TIP3   OH220540   5.747   4.978   2.137
 6859TIP3    H120541   5.749   5.006   2.046
 6859TIP3    H220542   5.824   4.922   2.147
 6860TIP3   OH220543   6.277   6.703   4.001
 6860TIP3    H120544   6.205   6.676   3.944
 6860TIP3    H220545   6.277   6.638   4.072
 6861TIP3   OH220546   2.742   0.408   2.169
 6861TIP3    H120547   2.763   0.469   2.240
 6861TIP3    H220548   2.722   0.464   2.094
 6862TIP3   OH220549   1.863   6.517   2.107
 6862TIP3    H120550   1.802   6.565   2.163
 6862TIP3    H220551   1.894   6.444   2.162
 6863TIP3   OH220552   0.376   1.482   3.455
 6863TIP3    H120553   0.462   1.495   3.415
 6863TIP3    H220554   0.383   1.520   3.542
 6864TIP3   OH220555   2.171   4.982   3.759
 6864TIP3    H120556   2.135   4.894   3.748
 6864TIP3    H220557   2.099   5.040   3.733
 6865TIP3   OH220558   2.493   2.752   2.582
 6865TIP3    H120559   2.580   2.741   2.621
 6865TIP3    H220560   2.505   2.729   2.490
 6866TIP3   OH220561   4.852   2.528   4.708
 6866TIP3    H120562   4.807   2.553   4.627
 6866TIP3    H220563   4.782   2.525   4.774
 6867TIP3   OH220564   2.371   5.701   0.514
 6867TIP3    H120565   2.447   5.661   0.472
 6867TIP3    H220566   2.376   5.671   0.605
 6868TIP3   OH220567   3.632   5.714   2.881
 6868TIP3    H120568   3.576   5.767   2.824
 6868TIP3    H220569   3.572   5.673   2.943
 6869TIP3   OH220570   5.874   2.901   5.597
 6869TIP3    H120571   5.934   2.945   5.657
 6869TIP3    H220572   5.830   2.835   5.651
 6870TIP3   OH220573   6.545   1.460   5.521
 6870TIP3    H120574   6.591   1.483   5.602
 6870TIP3    H220575   6.538   1.365   5.524
 6871TIP3   OH220576   3.888   1.056   0.975
 6871TIP3    H120577   3.895   1.020   1.064
 6871TIP3    H220578   3.963   1.019   0.929
 6872TIP3   OH220579   5.558   0.741   0.635
 6872TIP3    H120580   5.528   0.672   0.576
 6872TIP3    H220581   5.633   0.702   0.680
 6873TIP3   OH220582   6.203   4.275   2.296
 6873TIP3    H120583   6.295   4.290   2.316
 6873TIP3    H220584   6.156   4.318   2.367
 6874TIP3   OH220585   1.957   5.895   0.428
 6874TIP3    H120586   2.033   5.837   0.433
 6874TIP3    H220587   1.910   5.865   0.350
 6875TIP3   OH220588   4.379   0.896   1.107
 6875TIP3    H120589   4.395   0.854   1.192
 6875TIP3    H220590   4.378   0.989   1.127
 6876TIP3   OH220591   5.272   5.587   5.458
 6876TIP3    H120592   5.296   5.585   5.551
 6876TIP3    H220593   5.355   5.601   5.412
 6877TIP3   OH220594   0.543   0.560   4.824
 6877TIP3    H120595   0.464   0.534   4.871
 6877TIP3    H220596   0.616   0.529   4.878
 6878TIP3   OH220597   5.386   4.411   1.617
 6878TIP3    H120598   5.322   4.354   1.573
 6878TIP3    H220599   5.333   4.476   1.663
 6879TIP3   OH220600   0.906   1.728   5.059
 6879TIP3    H120601   0.900   1.714   4.964
 6879TIP3    H220602   0.878   1.818   5.071
 6880TIP3   OH220603   1.464   1.618   0.937
 6880TIP3    H120604   1.415   1.558   0.993
 6880TIP3    H220605   1.533   1.653   0.993
 6881TIP3   OH220606   1.524   1.081   5.473
 6881TIP3    H120607   1.604   1.120   5.438
 6881TIP3    H220608   1.531   0.988   5.453
 6882TIP3   OH220609   6.858   0.684   3.220
 6882TIP3    H120610   6.818   0.726   3.296
 6882TIP3    H220611   6.942   0.651   3.252
 6883TIP3   OH220612   0.872   3.634   2.248
 6883TIP3    H120613   0.963   3.604   2.246
 6883TIP3    H220614   0.878   3.728   2.261
 6884TIP3   OH220615   1.992   3.936   4.116
 6884TIP3    H120616   1.915   3.901   4.071
 6884TIP3    H220617   1.958   4.007   4.170
 6885TIP3   OH220618   4.896   2.309   5.548
 6885TIP3    H120619   4.909   2.250   5.474
 6885TIP3    H220620   4.846   2.382   5.513
 6886TIP3   OH220621   0.046   6.812   0.118
 6886TIP3    H120622   0.065   6.865   0.195
 6886TIP3    H220623   0.101   6.734   0.128
 6887TIP3   OH220624   5.132   0.754   5.570
 6887TIP3    H120625   5.048   0.757   5.615
 6887TIP3    H220626   5.169   0.841   5.581
 6888TIP3   OH220627   0.389   5.425   5.750
 6888TIP3    H120628   0.416   5.335   5.769
 6888TIP3    H220629   0.435   5.448   5.669
 6889TIP3   OH220630   0.080   5.420   3.267
 6889TIP3    H120631   0.018   5.349   3.283
 6889TIP3    H220632   0.058   5.486   3.334
 6890TIP3   OH220633   5.058   3.676   3.377
 6890TIP3    H120634   4.979   3.627   3.354
 6890TIP3    H220635   5.067   3.741   3.308
 6891TIP3   OH220636   0.371   3.099   0.197
 6891TIP3    H120637   0.466   3.085   0.190
 6891TIP3    H220638   0.343   3.032   0.260
 6892TIP3   OH220639   5.325   3.216   4.339
 6892TIP3    H120640   5.359   3.212   4.429
 6892TIP3    H220641   5.291   3.129   4.322
 6893TIP3   OH220642   0.379   4.200   5.338
 6893TIP3    H120643   0.463   4.223   5.298
 6893TIP3    H220644   0.341   4.135   5.280
 6894TIP3   OH220645   7.185   2.921   4.169
 6894TIP3    H120646   7.227   2.853   4.222
 6894TIP3    H220647   7.115   2.874   4.123
 6895TIP3   OH220648   6.796   5.973  -0.010
 6895TIP3    H120649   6.790   6.035   0.062
 6895TIP3    H220650   6.884   5.985  -0.045
 6896TIP3   OH220651   1.787   4.590   0.897
 6896TIP3    H120652   1.791   4.679   0.864
 6896TIP3    H220653   1.700   4.559   0.871
 6897TIP3   OH220654   3.727   2.479   3.200
 6897TIP3    H120655   3.769   2.565   3.196
 6897TIP3    H220656   3.637   2.495   3.172
 6898TIP3   OH220657   3.207   6.208   2.770
 6898TIP3    H120658   3.282   6.216   2.829
 6898TIP3    H220659   3.246   6.208   2.682
 6899TIP3   OH220660   5.313   5.310   2.475
 6899TIP3    H120661   5.395   5.330   2.430
 6899TIP3    H220662   5.306   5.215   2.472
 6900TIP3   OH220663   4.194   4.756   4.807
 6900TIP3    H120664   4.265   4.818   4.793
 6900TIP3    H220665   4.121   4.808   4.839
 6901TIP3   OH220666   0.527   0.288   5.122
 6901TIP3    H120667   0.500   0.361   5.177
 6901TIP3    H220668   0.490   0.308   5.036
 6902TIP3   OH220669   2.999   3.777   4.080
 6902TIP3    H120670   3.052   3.827   4.140
 6902TIP3    H220671   3.062   3.735   4.021
 6903TIP3   OH220672   5.475   0.698   5.541
 6903TIP3    H120673   5.405   0.695   5.476
 6903TIP3    H220674   5.493   0.606   5.561
 6904TIP3   OH220675   5.245   4.915   2.202
 6904TIP3    H120676   5.336   4.911   2.171
 6904TIP3    H220677   5.196   4.949   2.128
 6905TIP3   OH220678   6.319   3.506   3.682
 6905TIP3    H120679   6.337   3.413   3.675
 6905TIP3    H220680   6.402   3.545   3.708
 6906TIP3   OH220681   5.675   2.652   3.716
 6906TIP3    H120682   5.614   2.592   3.673
 6906TIP3    H220683   5.697   2.610   3.799
 6907TIP3   OH220684   5.087   0.006   2.990
 6907TIP3    H120685   5.156   0.071   3.002
 6907TIP3    H220686   5.126  -0.060   2.932
 6908TIP3   OH220687   0.700   3.813   5.148
 6908TIP3    H120688   0.734   3.750   5.211
 6908TIP3    H220689   0.611   3.831   5.177
 6909TIP3   OH220690   1.474   2.613   3.571
 6909TIP3    H120691   1.431   2.610   3.657
 6909TIP3    H220692   1.464   2.704   3.543
 6910TIP3   OH220693   7.026   5.674   1.884
 6910TIP3    H120694   7.103   5.731   1.890
 6910TIP3    H220695   6.964   5.709   1.948
 6911TIP3   OH220696   4.598   2.262   4.038
 6911TIP3    H120697   4.535   2.198   4.006
 6911TIP3    H220698   4.660   2.211   4.090
 6912TIP3   OH220699   1.941   6.030   2.866
 6912TIP3    H120700   1.936   6.103   2.804
 6912TIP3    H220701   1.878   5.966   2.832
 6913TIP3   OH220702   0.487   5.607   2.224
 6913TIP3    H120703   0.512   5.600   2.316
 6913TIP3    H220704   0.483   5.701   2.206
 6914TIP3   OH220705   5.520   4.747   4.446
 6914TIP3    H120706   5.560   4.770   4.530
 6914TIP3    H220707   5.534   4.823   4.390
 6915TIP3   OH220708   6.719   2.253   0.712
 6915TIP3    H120709   6.678   2.294   0.787
 6915TIP3    H220710   6.668   2.283   0.637
 6916TIP3   OH220711   1.441   3.283   2.364
 6916TIP3    H120712   1.534   3.287   2.343
 6916TIP3    H220713   1.399   3.256   2.282
 6917TIP3   OH220714   1.890   6.295   2.252
 6917TIP3    H120715   1.914   6.208   2.284
 6917TIP3    H220716   1.795   6.299   2.262
 6918TIP3   OH220717   3.428   2.978   4.413
 6918TIP3    H120718   3.420   2.931   4.496
 6918TIP3    H220719   3.521   2.974   4.392
 6919TIP3   OH220720   5.702   2.222   2.948
 6919TIP3    H120721   5.765   2.149   2.950
 6919TIP3    H220722   5.626   2.190   2.996
 6920TIP3   OH220723   6.866   5.671   5.259
 6920TIP3    H120724   6.835   5.640   5.344
 6920TIP3    H220725   6.810   5.625   5.195
 6921TIP3   OH220726   5.003   4.383   2.161
 6921TIP3    H120727   5.050   4.465   2.140
 6921TIP3    H220728   4.913   4.399   2.133
 6922TIP3   OH220729   7.148   4.023   1.860
 6922TIP3    H120730   7.109   4.060   1.938
 6922TIP3    H220731   7.154   3.929   1.877
 6923TIP3   OH220732   6.089   4.911   5.378
 6923TIP3    H120733   6.026   4.965   5.427
 6923TIP3    H220734   6.116   4.843   5.439
 6924TIP3   OH220735   4.953   1.873   5.240
 6924TIP3    H120736   4.897   1.824   5.300
 6924TIP3    H220737   5.023   1.811   5.217
 6925TIP3   OH220738   1.987   2.456   2.848
 6925TIP3    H120739   1.913   2.507   2.882
 6925TIP3    H220740   1.990   2.478   2.755
 6926TIP3   OH220741   6.500   4.252   4.468
 6926TIP3    H120742   6.543   4.266   4.383
 6926TIP3    H220743   6.454   4.169   4.458
 6927TIP3   OH220744   1.358   5.049   2.441
 6927TIP3    H120745   1.452   5.064   2.428
 6927TIP3    H220746   1.354   4.981   2.508
 6928TIP3   OH220747   3.437   1.690   4.596
 6928TIP3    H120748   3.504   1.750   4.629
 6928TIP3    H220749   3.397   1.653   4.674
 6929TIP3   OH220750   4.938   2.362   2.398
 6929TIP3    H120751   4.955   2.446   2.357
 6929TIP3    H220752   4.846   2.367   2.426
 6930TIP3   OH220753   3.829   5.720   1.260
 6930TIP3    H120754   3.905   5.711   1.317
 6930TIP3    H220755   3.770   5.779   1.308
 6931TIP3   OH220756   4.885   4.552   3.907
 6931TIP3    H120757   4.966   4.600   3.923
 6931TIP3    H220758   4.907   4.461   3.926
 6932TIP3   OH220759   0.231   6.199   0.336
 6932TIP3    H120760   0.313   6.244   0.354
 6932TIP3    H220761   0.208   6.156   0.419
 6933TIP3   OH220762   2.385   6.097   4.916
 6933TIP3    H120763   2.431   6.083   4.833
 6933TIP3    H220764   2.455   6.106   4.981
 6934TIP3   OH220765   4.754   6.118   0.114
 6934TIP3    H120766   4.816   6.178   0.072
 6934TIP3    H220767   4.668   6.158   0.099
 6935TIP3   OH220768   5.919   1.229   0.854
 6935TIP3    H120769   5.882   1.297   0.910
 6935TIP3    H220770   6.001   1.204   0.897
 6936TIP3   OH220771   1.220   1.638   4.557
 6936TIP3    H120772   1.129   1.665   4.549
 6936TIP3    H220773   1.230   1.615   4.650
 6937TIP3   OH220774   1.323   1.735   0.735
 6937TIP3    H120775   1.372   1.677   0.793
 6937TIP3    H220776   1.379   1.812   0.724
 6938TIP3   OH220777   6.992   6.667   2.916
 6938TIP3    H120778   6.917   6.693   2.863
 6938TIP3    H220779   6.973   6.577   2.943
 6939TIP3   OH220780   0.590   5.720   5.336
 6939TIP3    H120781   0.672   5.682   5.305
 6939TIP3    H220782   0.609   5.813   5.348
 6940TIP3   OH220783   5.759   2.348   4.859
 6940TIP3    H120784   5.751   2.332   4.953
 6940TIP3    H220785   5.784   2.440   4.852
 6941TIP3   OH220786   0.122   1.190   1.849
 6941TIP3    H120787   0.083   1.235   1.774
 6941TIP3    H220788   0.076   1.225   1.925
 6942TIP3   OH220789   5.491   6.094   4.797
 6942TIP3    H120790   5.460   6.084   4.886
 6942TIP3    H220791   5.546   6.172   4.799
 6943TIP3   OH220792   2.551   3.520   5.259
 6943TIP3    H120793   2.584   3.579   5.326
 6943TIP3    H220794   2.594   3.436   5.278
 6944TIP3   OH220795   3.184   2.658   5.762
 6944TIP3    H120796   3.139   2.597   5.821
 6944TIP3    H220797   3.186   2.740   5.810
 6945TIP3   OH220798   5.377   3.044   5.421
 6945TIP3    H120799   5.457   3.085   5.388
 6945TIP3    H220800   5.311   3.064   5.355
 6946TIP3   OH220801   6.479   0.566   2.506
 6946TIP3    H120802   6.553   0.615   2.471
 6946TIP3    H220803   6.518   0.504   2.568
 6947TIP3   OH220804   5.403   4.098   1.219
 6947TIP3    H120805   5.429   4.041   1.147
 6947TIP3    H220806   5.483   4.146   1.242
 6948TIP3   OH220807   1.388   2.397   5.630
 6948TIP3    H120808   1.365   2.381   5.722
 6948TIP3    H220809   1.484   2.405   5.632
 6949TIP3   OH220810   3.042   6.689   4.037
 6949TIP3    H120811   2.967   6.734   4.077
 6949TIP3    H220812   3.099   6.668   4.112
 6950TIP3   OH220813   2.293   2.835   2.753
 6950TIP3    H120814   2.281   2.755   2.806
 6950TIP3    H220815   2.358   2.810   2.688
 6951TIP3   OH220816   1.858   4.460   3.849
 6951TIP3    H120817   1.843   4.517   3.773
 6951TIP3    H220818   1.852   4.518   3.924
 6952TIP3   OH220819   2.064   3.231   2.249
 6952TIP3    H120820   2.083   3.267   2.163
 6952TIP3    H220821   2.050   3.137   2.234
 6953TIP3   OH220822   2.284   4.268   5.624
 6953TIP3    H120823   2.327   4.267   5.539
 6953TIP3    H220824   2.214   4.332   5.615
 6954TIP3   OH220825   1.206   3.090   0.807
 6954TIP3    H120826   1.160   3.174   0.806
 6954TIP3    H220827   1.246   3.086   0.894
 6955TIP3   OH220828   3.664   3.995   2.307
 6955TIP3    H120829   3.727   4.007   2.235
 6955TIP3    H220830   3.578   4.004   2.266
 6956TIP3   OH220831   3.218   4.794   4.406
 6956TIP3    H120832   3.145   4.846   4.440
 6956TIP3    H220833   3.238   4.833   4.321
 6957TIP3   OH220834   6.851   3.635   4.692
 6957TIP3    H120835   6.933   3.678   4.667
 6957TIP3    H220836   6.835   3.570   4.623
 6958TIP3   OH220837   5.231   0.967   3.051
 6958TIP3    H120838   5.219   1.015   2.968
 6958TIP3    H220839   5.317   0.925   3.041
 6959TIP3   OH220840   2.499   1.805   2.004
 6959TIP3    H120841   2.484   1.879   1.945
 6959TIP3    H220842   2.593   1.787   1.995
 6960TIP3   OH220843   1.261   1.306   3.250
 6960TIP3    H120844   1.243   1.253   3.172
 6960TIP3    H220845   1.349   1.341   3.235
 6961TIP3   OH220846   0.323   1.898   5.033
 6961TIP3    H120847   0.300   1.984   5.071
 6961TIP3    H220848   0.293   1.835   5.098
 6962TIP3   OH220849   2.470   0.595   3.831
 6962TIP3    H120850   2.507   0.646   3.759
 6962TIP3    H220851   2.458   0.659   3.902
 6963TIP3   OH220852   1.003   4.940   0.145
 6963TIP3    H120853   1.090   4.900   0.153
 6963TIP3    H220854   0.958   4.918   0.226
 6964TIP3   OH220855   1.751   4.289   2.434
 6964TIP3    H120856   1.679   4.265   2.376
 6964TIP3    H220857   1.813   4.335   2.378
 6965TIP3   OH220858   2.522   3.616   4.243
 6965TIP3    H120859   2.617   3.624   4.238
 6965TIP3    H220860   2.496   3.680   4.310
 6966TIP3   OH220861   5.191   0.894   4.824
 6966TIP3    H120862   5.234   0.904   4.739
 6966TIP3    H220863   5.099   0.877   4.802
 6967TIP3   OH220864   0.971   4.732   4.660
 6967TIP3    H120865   0.893   4.784   4.640
 6967TIP3    H220866   0.947   4.683   4.739
 6968TIP3   OH220867   6.121   2.355   2.792
 6968TIP3    H120868   6.070   2.317   2.721
 6968TIP3    H220869   6.080   2.323   2.872
 6969TIP3   OH220870   5.236   2.069   4.248
 6969TIP3    H120871   5.197   1.982   4.244
 6969TIP3    H220872   5.330   2.055   4.233
 6970TIP3   OH220873   3.290   2.823   2.395
 6970TIP3    H120874   3.336   2.903   2.424
 6970TIP3    H220875   3.205   2.828   2.439
 6971TIP3   OH220876   0.273   5.817   4.076
 6971TIP3    H120877   0.198   5.771   4.114
 6971TIP3    H220878   0.288   5.772   3.993
 6972TIP3   OH220879   5.403   1.423   4.583
 6972TIP3    H120880   5.477   1.386   4.534
 6972TIP3    H220881   5.351   1.346   4.607
 6973TIP3   OH220882   0.511   3.963   4.845
 6973TIP3    H120883   0.544   4.040   4.892
 6973TIP3    H220884   0.426   3.991   4.811
 6974TIP3   OH220885   4.958   4.641   3.407
 6974TIP3    H120886   4.908   4.701   3.463
 6974TIP3    H220887   5.035   4.618   3.459
 6975TIP3   OH220888   0.155   1.474   2.954
 6975TIP3    H120889   0.173   1.532   2.880
 6975TIP3    H220890   0.150   1.533   3.030
 6976TIP3   OH220891   2.369   6.614   3.494
 6976TIP3    H120892   2.354   6.520   3.500
 6976TIP3    H220893   2.378   6.643   3.585
 6977TIP3   OH220894   5.631   3.637   2.607
 6977TIP3    H120895   5.632   3.636   2.702
 6977TIP3    H220896   5.539   3.650   2.583
 6978TIP3   OH220897   4.383   2.511   4.630
 6978TIP3    H120898   4.322   2.577   4.660
 6978TIP3    H220899   4.328   2.442   4.594
 6979TIP3   OH220900   6.253   0.652   3.289
 6979TIP3    H120901   6.296   0.721   3.238
 6979TIP3    H220902   6.237   0.692   3.374
 6980TIP3   OH220903   2.521   3.022   2.092
 6980TIP3    H120904   2.461   2.988   2.159
 6980TIP3    H220905   2.608   3.015   2.133
 6981TIP3   OH220906   6.649   4.942   4.337
 6981TIP3    H120907   6.574   4.954   4.279
 6981TIP3    H220908   6.615   4.961   4.424
 6982TIP3   OH220909   6.713   4.103   1.642
 6982TIP3    H120910   6.771   4.032   1.668
 6982TIP3    H220911   6.733   4.174   1.703
 6983TIP3   OH220912   0.384   2.528   5.163
 6983TIP3    H120913   0.352   2.453   5.113
 6983TIP3    H220914   0.318   2.597   5.147
 6984TIP3   OH220915   4.125   5.648   3.169
 6984TIP3    H120916   4.065   5.586   3.211
 6984TIP3    H220917   4.069   5.719   3.138
 6985TIP3   OH220918   4.655   5.244   2.510
 6985TIP3    H120919   4.598   5.235   2.434
 6985TIP3    H220920   4.728   5.184   2.493
 6986TIP3   OH220921   0.280   4.121   3.385
 6986TIP3    H120922   0.283   4.110   3.480
 6986TIP3    H220923   0.222   4.051   3.355
 6987TIP3   OH220924   6.995   6.562   1.211
 6987TIP3    H120925   6.977   6.651   1.242
 6987TIP3    H220926   6.983   6.507   1.289
 6988TIP3   OH220927   6.893   3.840   3.752
 6988TIP3    H120928   6.888   3.826   3.657
 6988TIP3    H220929   6.802   3.839   3.781
 6989TIP3   OH220930   3.111   1.057   3.103
 6989TIP3    H120931   3.200   1.023   3.108
 6989TIP3    H220932   3.092   1.087   3.192
 6990TIP3   OH220933   2.094   6.756   2.018
 6990TIP3    H120934   2.025   6.720   2.073
 6990TIP3    H220935   2.169   6.698   2.031
 6991TIP3   OH220936   5.474   2.631   3.256
 6991TIP3    H120937   5.537   2.585   3.310
 6991TIP3    H220938   5.476   2.722   3.287
 6992TIP3   OH220939   0.804   4.145   2.007
 6992TIP3    H120940   0.714   4.112   2.015
 6992TIP3    H220941   0.825   4.179   2.093
 6993TIP3   OH220942   7.068   1.327   5.518
 6993TIP3    H120943   7.162   1.307   5.511
 6993TIP3    H220944   7.065   1.421   5.534
 6994TIP3   OH220945   5.357   4.487   0.848
 6994TIP3    H120946   5.295   4.535   0.903
 6994TIP3    H220947   5.407   4.434   0.910
 6995TIP3   OH220948   2.196   2.193   1.207
 6995TIP3    H120949   2.167   2.105   1.229
 6995TIP3    H220950   2.123   2.231   1.158
 6996TIP3   OH220951   0.222   1.785   5.671
 6996TIP3    H120952   0.210   1.822   5.584
 6996TIP3    H220953   0.187   1.696   5.665
 6997TIP3   OH220954   0.931   3.108   3.767
 6997TIP3    H120955   1.013   3.156   3.752
 6997TIP3    H220956   0.894   3.096   3.680
 6998TIP3   OH220957   5.397   6.417   3.502
 6998TIP3    H120958   5.467   6.370   3.549
 6998TIP3    H220959   5.337   6.446   3.571
 6999TIP3   OH220960   5.849   1.960   2.970
 6999TIP3    H120961   5.863   1.970   3.064
 6999TIP3    H220962   5.799   1.879   2.961
 7000TIP3   OH220963   4.066   2.980   4.099
 7000TIP3    H120964   4.019   2.898   4.083
 7000TIP3    H220965   3.997   3.046   4.110
 7001TIP3   OH220966   4.807   2.576   1.623
 7001TIP3    H120967   4.878   2.639   1.610
 7001TIP3    H220968   4.850   2.493   1.638
 7002TIP3   OH220969   2.945   6.393   2.463
 7002TIP3    H120970   2.946   6.312   2.413
 7002TIP3    H220971   2.954   6.365   2.555
 7003TIP3   OH220972   2.985   6.582   4.550
 7003TIP3    H120973   2.954   6.563   4.639
 7003TIP3    H220974   2.998   6.497   4.510
 7004TIP3   OH220975   1.319   0.162   1.987
 7004TIP3    H120976   1.287   0.076   1.961
 7004TIP3    H220977   1.264   0.224   1.938
 7005TIP3   OH220978   4.285   1.414   0.759
 7005TIP3    H120979   4.346   1.477   0.722
 7005TIP3    H220980   4.334   1.332   0.764
 7006TIP3   OH220981   7.019   3.588   1.418
 7006TIP3    H120982   6.936   3.588   1.465
 7006TIP3    H220983   7.010   3.657   1.353
 7007TIP3   OH220984   1.736   3.522   4.102
 7007TIP3    H120985   1.729   3.530   4.007
 7007TIP3    H220986   1.824   3.553   4.122
 7008TIP3   OH220987   2.013   0.321   2.987
 7008TIP3    H120988   2.008   0.256   3.057
 7008TIP3    H220989   1.935   0.305   2.934
 7009TIP3   OH220990   1.249   4.294   1.167
 7009TIP3    H120991   1.330   4.345   1.159
 7009TIP3    H220992   1.193   4.346   1.224
 7010TIP3   OH220993   2.304   3.473   2.336
 7010TIP3    H120994   2.329   3.450   2.426
 7010TIP3    H220995   2.245   3.402   2.309
 7011TIP3   OH220996   1.194   6.213   1.791
 7011TIP3    H120997   1.134   6.257   1.730
 7011TIP3    H220998   1.136   6.169   1.853
 7012TIP3   OH220999   5.872   4.405  -0.007
 7012TIP3    H121000   5.816   4.330   0.012
 7012TIP3    H221001   5.895   4.441   0.078
 7013TIP3   OH221002   4.307   6.570   2.951
 7013TIP3    H121003   4.309   6.485   2.995
 7013TIP3    H221004   4.398   6.588   2.928
 7014TIP3   OH221005   4.898   1.455   4.062
 7014TIP3    H121006   4.929   1.544   4.047
 7014TIP3    H221007   4.902   1.414   3.975
 7015TIP3   OH221008   1.339   2.570   2.216
 7015TIP3    H121009   1.377   2.535   2.135
 7015TIP3    H221010   1.287   2.645   2.188
 7016TIP3   OH221011   5.724   3.057   4.216
 7016TIP3    H121012   5.709   3.005   4.137
 7016TIP3    H221013   5.661   3.129   4.209
 7017TIP3   OH221014   3.242   3.163   0.906
 7017TIP3    H121015   3.325   3.158   0.954
 7017TIP3    H221016   3.234   3.256   0.883
 7018TIP3   OH221017   6.788   6.529   1.461
 7018TIP3    H121018   6.819   6.618   1.446
 7018TIP3    H221019   6.693   6.538   1.472
 7019TIP3   OH221020   0.376   3.978   0.168
 7019TIP3    H121021   0.298   3.932   0.137
 7019TIP3    H221022   0.393   3.942   0.255
 7020TIP3   OH221023   1.590   0.491   3.525
 7020TIP3    H121024   1.504   0.476   3.563
 7020TIP3    H221025   1.580   0.472   3.432
 7021TIP3   OH221026   4.346   2.475   4.083
 7021TIP3    H121027   4.405   2.517   4.021
 7021TIP3    H221028   4.402   2.414   4.132
 7022TIP3   OH221029   0.828   1.234   4.802
 7022TIP3    H121030   0.861   1.152   4.767
 7022TIP3    H221031   0.739   1.242   4.766
 7023TIP3   OH221032   3.763   1.067   1.502
 7023TIP3    H121033   3.691   1.038   1.558
 7023TIP3    H221034   3.732   1.149   1.464
 7024TIP3   OH221035   6.650   6.175   1.886
 7024TIP3    H121036   6.712   6.242   1.855
 7024TIP3    H221037   6.694   6.092   1.869
 7025TIP3   OH221038   5.626   0.545   2.854
 7025TIP3    H121039   5.709   0.500   2.836
 7025TIP3    H221040   5.645   0.600   2.930
 7026TIP3   OH221041   4.562  -0.001   3.077
 7026TIP3    H121042   4.645  -0.015   3.122
 7026TIP3    H221043   4.580  -0.021   2.985
 7027TIP3   OH221044   5.099   0.834   5.166
 7027TIP3    H121045   5.072   0.899   5.101
 7027TIP3    H221046   5.061   0.865   5.248
 7028TIP3   OH221047   1.214   2.693   2.999
 7028TIP3    H121048   1.264   2.658   3.073
 7028TIP3    H221049   1.263   2.769   2.970
 7029TIP3   OH221050   4.575   3.709   0.863
 7029TIP3    H121051   4.669   3.688   0.863
 7029TIP3    H221052   4.534   3.631   0.827
 7030TIP3   OH221053   0.808   4.404   1.597
 7030TIP3    H121054   0.837   4.449   1.677
 7030TIP3    H221055   0.818   4.311   1.617
 7031TIP3   OH221056   0.156   2.873   5.555
 7031TIP3    H121057   0.179   2.800   5.497
 7031TIP3    H221058   0.222   2.940   5.537
 7032TIP3   OH221059   4.874   5.638   0.776
 7032TIP3    H121060   4.806   5.638   0.708
 7032TIP3    H221061   4.908   5.548   0.777
 7033TIP3   OH221062   4.639   4.904   3.953
 7033TIP3    H121063   4.585   4.872   4.026
 7033TIP3    H221064   4.646   4.829   3.894
 7034TIP3   OH221065   6.314   1.401   4.933
 7034TIP3    H121066   6.286   1.493   4.936
 7034TIP3    H221067   6.279   1.363   5.013
 7035TIP3   OH221068   1.378   2.615   5.057
 7035TIP3    H121069   1.460   2.640   5.100
 7035TIP3    H221070   1.375   2.519   5.065
 7036TIP3   OH221071   5.177   5.028   4.397
 7036TIP3    H121072   5.210   5.110   4.361
 7036TIP3    H221073   5.222   5.018   4.481
 7037TIP3   OH221074   2.929   0.700   2.848
 7037TIP3    H121075   2.836   0.685   2.865
 7037TIP3    H221076   2.949   0.645   2.773
 7038TIP3   OH221077   2.628   1.714   4.546
 7038TIP3    H121078   2.556   1.743   4.490
 7038TIP3    H221079   2.604   1.745   4.634
 7039TIP3   OH221080   4.579   1.455   5.572
 7039TIP3    H121081   4.634   1.377   5.578
 7039TIP3    H221082   4.532   1.445   5.489
 7040TIP3   OH221083   5.890   5.942   4.146
 7040TIP3    H121084   5.862   6.019   4.195
 7040TIP3    H221085   5.843   5.949   4.063
 7041TIP3   OH221086   5.965   1.270   1.387
 7041TIP3    H121087   5.936   1.346   1.337
 7041TIP3    H221088   5.894   1.252   1.448
 7042TIP3   OH221089   5.457   5.842   1.379
 7042TIP3    H121090   5.381   5.806   1.332
 7042TIP3    H221091   5.517   5.868   1.309
 7043TIP3   OH221092   4.329   2.083   2.674
 7043TIP3    H121093   4.342   2.154   2.612
 7043TIP3    H221094   4.247   2.042   2.647
 7044TIP3   OH221095   6.635   5.201   2.227
 7044TIP3    H121096   6.672   5.119   2.261
 7044TIP3    H221097   6.548   5.178   2.197
 7045TIP3   OH221098   1.531   4.345   1.695
 7045TIP3    H121099   1.458   4.401   1.669
 7045TIP3    H221100   1.492   4.279   1.752
 7046TIP3   OH221101   4.633   1.054   3.189
 7046TIP3    H121102   4.567   1.112   3.151
 7046TIP3    H221103   4.706   1.056   3.127
 7047TIP3   OH221104   6.839   2.289   1.869
 7047TIP3    H121105   6.918   2.333   1.839
 7047TIP3    H221106   6.802   2.250   1.790
 7048TIP3   OH221107   7.020   0.721   4.927
 7048TIP3    H121108   6.942   0.665   4.928
 7048TIP3    H221109   7.084   0.671   4.877
 7049TIP3   OH221110   3.870   4.950   3.358
 7049TIP3    H121111   3.949   4.971   3.407
 7049TIP3    H221112   3.798   4.976   3.415
 7050TIP3   OH221113   0.305   1.899   1.373
 7050TIP3    H121114   0.347   1.927   1.292
 7050TIP3    H221115   0.344   1.955   1.440
 7051TIP3   OH221116   3.867   5.926   5.048
 7051TIP3    H121117   3.952   5.922   5.091
 7051TIP3    H221118   3.804   5.917   5.120
 7052TIP3   OH221119   6.170   3.648   0.770
 7052TIP3    H121120   6.184   3.715   0.704
 7052TIP3    H221121   6.254   3.642   0.816
 7053TIP3   OH221122   2.832   3.203   3.770
 7053TIP3    H121123   2.887   3.224   3.694
 7053TIP3    H221124   2.883   3.138   3.819
 7054TIP3   OH221125   6.017   6.365   5.110
 7054TIP3    H121126   6.074   6.401   5.178
 7054TIP3    H221127   6.060   6.388   5.027
 7055TIP3   OH221128   0.089   3.629   1.030
 7055TIP3    H121129   0.043   3.550   1.000
 7055TIP3    H221130   0.019   3.690   1.052
 7056TIP3   OH221131   2.265   0.370   0.708
 7056TIP3    H121132   2.254   0.443   0.768
 7056TIP3    H221133   2.360   0.359   0.700
 7057TIP3   OH221134   3.447   4.245   2.429
 7057TIP3    H121135   3.402   4.223   2.510
 7057TIP3    H221136   3.513   4.309   2.454
 7058TIP3   OH221137   1.988   5.018   1.498
 7058TIP3    H121138   1.914   5.003   1.438
 7058TIP3    H221139   2.028   5.099   1.467
 7059TIP3   OH221140   3.661   4.402   4.934
 7059TIP3    H121141   3.570   4.380   4.915
 7059TIP3    H221142   3.699   4.423   4.848
 7060TIP3   OH221143   2.003   0.048   0.486
 7060TIP3    H121144   2.043  -0.005   0.555
 7060TIP3    H221145   2.075   0.101   0.452
 7061TIP3   OH221146   6.038   3.613   5.357
 7061TIP3    H121147   6.074   3.558   5.287
 7061TIP3    H221148   6.082   3.697   5.346
 7062TIP3   OH221149   2.118   3.362   0.420
 7062TIP3    H121150   2.109   3.452   0.452
 7062TIP3    H221151   2.186   3.324   0.475
 7063TIP3   OH221152   4.100   1.561   5.039
 7063TIP3    H121153   4.116   1.471   5.070
 7063TIP3    H221154   4.073   1.608   5.118
 7064TIP3   OH221155   6.525   1.151   0.416
 7064TIP3    H121156   6.488   1.069   0.447
 7064TIP3    H221157   6.499   1.157   0.325
 7065TIP3   OH221158   5.999   2.416   0.978
 7065TIP3    H121159   6.032   2.342   0.927
 7065TIP3    H221160   5.936   2.459   0.920
 7066TIP3   OH221161   5.655   4.895   3.203
 7066TIP3    H121162   5.697   4.896   3.116
 7066TIP3    H221163   5.609   4.811   3.206
 7067TIP3   OH221164   2.030   0.446   0.540
 7067TIP3    H121165   2.099   0.450   0.607
 7067TIP3    H221166   2.072   0.480   0.461
 7068TIP3   OH221167   6.957   2.620   0.448
 7068TIP3    H121168   6.877   2.567   0.454
 7068TIP3    H221169   6.943   2.674   0.370
 7069TIP3   OH221170   4.632   4.633   5.445
 7069TIP3    H121171   4.611   4.726   5.445
 7069TIP3    H221172   4.561   4.592   5.395
 7070TIP3   OH221173   3.837   6.534   1.911
 7070TIP3    H121174   3.780   6.496   1.978
 7070TIP3    H221175   3.798   6.619   1.893
 7071TIP3   OH221176   7.088   3.383   2.972
 7071TIP3    H121177   7.013   3.389   2.913
 7071TIP3    H221178   7.139   3.462   2.954
 7072TIP3   OH221179   5.390   1.327   2.689
 7072TIP3    H121180   5.484   1.319   2.670
 7072TIP3    H221181   5.378   1.419   2.712
 7073TIP3   OH221182   6.594   1.625   3.417
 7073TIP3    H121183   6.673   1.621   3.470
 7073TIP3    H221184   6.616   1.682   3.344
 7074TIP3   OH221185   1.320   1.284   5.456
 7074TIP3    H121186   1.398   1.234   5.478
 7074TIP3    H221187   1.251   1.247   5.511
 7075TIP3   OH221188   1.638   3.823   2.432
 7075TIP3    H121189   1.647   3.799   2.340
 7075TIP3    H221190   1.548   3.800   2.454
 7076TIP3   OH221191   2.036   0.513   5.448
 7076TIP3    H121192   1.992   0.438   5.488
 7076TIP3    H221193   2.057   0.571   5.521
 7077TIP3   OH221194   2.291   0.465   3.025
 7077TIP3    H121195   2.209   0.418   3.015
 7077TIP3    H221196   2.326   0.435   3.109
 7078TIP3   OH221197   0.106   5.973   1.645
 7078TIP3    H121198   0.145   6.049   1.601
 7078TIP3    H221199   0.044   5.937   1.582
 7079TIP3   OH221200   3.678   0.387   0.407
 7079TIP3    H121201   3.677   0.340   0.490
 7079TIP3    H221202   3.749   0.347   0.357
 7080TIP3   OH221203   0.702   3.199   1.571
 7080TIP3    H121204   0.629   3.142   1.548
 7080TIP3    H221205   0.761   3.194   1.496
 7081TIP3   OH221206   1.469   4.427   1.121
 7081TIP3    H121207   1.519   4.431   1.203
 7081TIP3    H221208   1.504   4.351   1.076
 7082TIP3   OH221209   5.207   1.089   0.073
 7082TIP3    H121210   5.268   1.045   0.014
 7082TIP3    H221211   5.180   1.022   0.135
 7083TIP3   OH221212   0.865   3.060   4.470
 7083TIP3    H121213   0.927   3.127   4.441
 7083TIP3    H221214   0.906   2.977   4.447
 7084TIP3   OH221215   6.140   2.872   1.635
 7084TIP3    H121216   6.100   2.956   1.610
 7084TIP3    H221217   6.209   2.859   1.570
 7085TIP3   OH221218   5.753   1.713   5.432
 7085TIP3    H121219   5.841   1.747   5.445
 7085TIP3    H221220   5.696   1.780   5.471
 7086TIP3   OH221221   6.106   5.016   4.448
 7086TIP3    H121222   6.164   5.046   4.378
 7086TIP3    H221223   6.145   5.051   4.528
 7087TIP3   OH221224   4.667   3.506   2.876
 7087TIP3    H121225   4.588   3.554   2.852
 7087TIP3    H221226   4.728   3.573   2.906
 7088TIP3   OH221227   6.781   0.833   2.100
 7088TIP3    H121228   6.846   0.847   2.031
 7088TIP3    H221229   6.796   0.905   2.162
 7089TIP3   OH221230   0.686   4.102   3.175
 7089TIP3    H121231   0.737   4.112   3.095
 7089TIP3    H221232   0.673   4.192   3.207
 7090TIP3   OH221233   1.294   5.531   5.237
 7090TIP3    H121234   1.209   5.558   5.201
 7090TIP3    H221235   1.281   5.529   5.332
 7091TIP3   OH221236   1.685   3.568   0.865
 7091TIP3    H121237   1.666   3.630   0.936
 7091TIP3    H221238   1.700   3.484   0.909
 7092TIP3   OH221239   6.477   6.131   3.108
 7092TIP3    H121240   6.496   6.045   3.144
 7092TIP3    H221241   6.477   6.190   3.184
 7093TIP3   OH221242   2.005   3.074   0.511
 7093TIP3    H121243   2.050   3.097   0.430
 7093TIP3    H221244   2.066   3.017   0.557
 7094TIP3   OH221245   1.593   5.108   5.131
 7094TIP3    H121246   1.604   5.051   5.207
 7094TIP3    H221247   1.502   5.096   5.105
 7095TIP3   OH221248   5.773   0.505   2.143
 7095TIP3    H121249   5.841   0.510   2.076
 7095TIP3    H221250   5.760   0.595   2.172
 7096TIP3   OH221251   2.554   3.579   1.311
 7096TIP3    H121252   2.619   3.649   1.318
 7096TIP3    H221253   2.599   3.510   1.262
 7097TIP3   OH221254   2.871   6.291   5.175
 7097TIP3    H121255   2.964   6.269   5.180
 7097TIP3    H221256   2.861   6.334   5.089
 7098TIP3   OH221257   6.955   0.098   5.823
 7098TIP3    H121258   6.983   0.153   5.896
 7098TIP3    H221259   7.011   0.021   5.828
 7099TIP3   OH221260   2.971   1.968   3.652
 7099TIP3    H121261   2.905   1.900   3.642
 7099TIP3    H221262   2.941   2.039   3.596
 7100TIP3   OH221263   2.787   3.788   2.378
 7100TIP3    H121264   2.745   3.849   2.318
 7100TIP3    H221265   2.730   3.785   2.454
 7101TIP3   OH221266   6.359   6.796   0.430
 7101TIP3    H121267   6.442   6.787   0.384
 7101TIP3    H221268   6.373   6.868   0.491
 7102TIP3   OH221269   3.787   1.665   1.379
 7102TIP3    H121270   3.752   1.643   1.293
 7102TIP3    H221271   3.804   1.759   1.375
 7103TIP3   OH221272   0.959   5.372   2.787
 7103TIP3    H121273   0.886   5.430   2.767
 7103TIP3    H221274   0.989   5.342   2.701
 7104TIP3   OH221275   0.974   5.183   2.187
 7104TIP3    H121276   1.015   5.098   2.171
 7104TIP3    H221277   0.927   5.203   2.106
 7105TIP3   OH221278   5.125   4.542   1.724
 7105TIP3    H121279   5.134   4.491   1.805
 7105TIP3    H221280   5.035   4.523   1.696
 7106TIP3   OH221281   1.502   0.632   0.833
 7106TIP3    H121282   1.577   0.598   0.881
 7106TIP3    H221283   1.433   0.567   0.847
 7107TIP3   OH221284   1.366   1.972   0.272
 7107TIP3    H121285   1.379   1.912   0.345
 7107TIP3    H221286   1.367   2.059   0.312
 7108TIP3   OH221287   1.610   0.926   2.253
 7108TIP3    H121288   1.696   0.886   2.240
 7108TIP3    H221289   1.556   0.890   2.182
 7109TIP3   OH221290   3.722   3.627   1.372
 7109TIP3    H121291   3.711   3.682   1.294
 7109TIP3    H221292   3.810   3.591   1.363
 7110TIP3   OH221293   4.243   4.137   0.155
 7110TIP3    H121294   4.230   4.232   0.161
 7110TIP3    H221295   4.318   4.127   0.097
 7111TIP3   OH221296   3.109   0.535   0.166
 7111TIP3    H121297   3.200   0.536   0.196
 7111TIP3    H221298   3.102   0.454   0.115
 7112TIP3   OH221299   0.574   4.985   2.558
 7112TIP3    H121300   0.657   5.009   2.516
 7112TIP3    H221301   0.597   4.916   2.621
 7113TIP3   OH221302   0.623   6.710   3.650
 7113TIP3    H121303   0.604   6.618   3.630
 7113TIP3    H221304   0.681   6.738   3.580
 7114TIP3   OH221305   6.552   1.958   5.802
 7114TIP3    H121306   6.631   1.995   5.841
 7114TIP3    H221307   6.480   1.997   5.852
 7115TIP3   OH221308   4.398   5.733   1.366
 7115TIP3    H121309   4.354   5.803   1.415
 7115TIP3    H221310   4.466   5.701   1.425
 7116TIP3   OH221311   6.466   3.120   2.291
 7116TIP3    H121312   6.490   3.107   2.382
 7116TIP3    H221313   6.411   3.198   2.290
 7117TIP3   OH221314   2.025   2.947   2.160
 7117TIP3    H121315   1.953   2.896   2.198
 7117TIP3    H221316   1.988   2.985   2.080
 7118TIP3   OH221317   3.410   2.438   4.319
 7118TIP3    H121318   3.393   2.396   4.235
 7118TIP3    H221319   3.418   2.366   4.381
 7119TIP3   OH221320   3.826   4.657   3.049
 7119TIP3    H121321   3.906   4.697   3.084
 7119TIP3    H221322   3.755   4.699   3.097
 7120TIP3   OH221323   2.682   2.455   1.071
 7120TIP3    H121324   2.738   2.473   0.996
 7120TIP3    H221325   2.738   2.409   1.133
 7121TIP3   OH221326   4.551   4.408   5.110
 7121TIP3    H121327   4.560   4.420   5.015
 7121TIP3    H221328   4.606   4.332   5.129
 7122TIP3   OH221329   1.560   4.650   4.548
 7122TIP3    H121330   1.594   4.592   4.479
 7122TIP3    H221331   1.615   4.632   4.624
 7123TIP3   OH221332   4.962   4.947   2.536
 7123TIP3    H121333   4.891   4.914   2.591
 7123TIP3    H221334   5.042   4.927   2.584
 7124TIP3   OH221335   0.823   3.734   5.632
 7124TIP3    H121336   0.914   3.762   5.630
 7124TIP3    H221337   0.818   3.673   5.705
 7125TIP3   OH221338   6.018   3.261   5.238
 7125TIP3    H121339   6.030   3.212   5.319
 7125TIP3    H221340   5.935   3.307   5.250
 7126TIP3   OH221341   4.851   0.780   0.800
 7126TIP3    H121342   4.831   0.860   0.849
 7126TIP3    H221343   4.942   0.761   0.821
 7127TIP3   OH221344   4.794   1.561   2.503
 7127TIP3    H121345   4.829   1.621   2.569
 7127TIP3    H221346   4.706   1.594   2.486
 7128TIP3   OH221347   0.520   3.213   0.938
 7128TIP3    H121348   0.445   3.156   0.953
 7128TIP3    H221349   0.567   3.174   0.865
 7129TIP3   OH221350   4.324   2.188   1.362
 7129TIP3    H121351   4.250   2.243   1.387
 7129TIP3    H221352   4.327   2.193   1.267
 7130TIP3   OH221353   6.815  -0.002   4.816
 7130TIP3    H121354   6.787   0.077   4.862
 7130TIP3    H221355   6.909  -0.007   4.833
 7131TIP3   OH221356   6.636   1.230   2.116
 7131TIP3    H121357   6.616   1.263   2.204
 7131TIP3    H221358   6.561   1.174   2.094
 7132TIP3   OH221359   2.598   5.174   3.546
 7132TIP3    H121360   2.606   5.091   3.498
 7132TIP3    H221361   2.675   5.224   3.520
 7133TIP3   OH221362   3.123   2.551   4.663
 7133TIP3    H121363   3.133   2.646   4.655
 7133TIP3    H221364   3.111   2.520   4.573
 7134TIP3   OH221365   1.835   0.853   5.544
 7134TIP3    H121366   1.854   0.783   5.605
 7134TIP3    H221367   1.826   0.931   5.599
 7135TIP3   OH221368   1.030   1.107   5.010
 7135TIP3    H121369   1.117   1.074   4.987
 7135TIP3    H221370   1.032   1.199   4.982
 7136TIP3   OH221371   6.493   1.820   1.801
 7136TIP3    H121372   6.567   1.881   1.809
 7136TIP3    H221373   6.447   1.849   1.722
 7137TIP3   OH221374   5.644   0.328   3.683
 7137TIP3    H121375   5.722   0.383   3.696
 7137TIP3    H221376   5.580   0.364   3.744
 7138TIP3   OH221377   5.423   5.746   1.632
 7138TIP3    H121378   5.357   5.695   1.587
 7138TIP3    H221379   5.464   5.799   1.563
 7139TIP3   OH221380   5.278   1.832   0.775
 7139TIP3    H121381   5.305   1.837   0.867
 7139TIP3    H221382   5.321   1.907   0.733
 7140TIP3   OH221383   4.716   0.765   0.285
 7140TIP3    H121384   4.750   0.855   0.287
 7140TIP3    H221385   4.780   0.716   0.233
 7141TIP3   OH221386   4.227   5.467   3.003
 7141TIP3    H121387   4.169   5.520   3.058
 7141TIP3    H221388   4.167   5.415   2.949
 7142TIP3   OH221389   0.924   1.299   5.842
 7142TIP3    H121390   0.883   1.366   5.786
 7142TIP3    H221391   0.914   1.333   5.931
 7143TIP3   OH221392   3.116   5.989   1.304
 7143TIP3    H121393   3.079   6.007   1.218
 7143TIP3    H221394   3.040   5.975   1.361
 7144TIP3   OH221395   2.296   4.444   2.595
 7144TIP3    H121396   2.218   4.426   2.646
 7144TIP3    H221397   2.267   4.507   2.528
 7145TIP3   OH221398   1.294   4.602   2.618
 7145TIP3    H121399   1.336   4.540   2.678
 7145TIP3    H221400   1.356   4.674   2.611
 7146TIP3   OH221401   6.685   5.262   1.265
 7146TIP3    H121402   6.721   5.338   1.312
 7146TIP3    H221403   6.611   5.234   1.319
 7147TIP3   OH221404   4.023   3.448   2.524
 7147TIP3    H121405   4.071   3.370   2.552
 7147TIP3    H221406   4.035   3.510   2.596
 7148TIP3   OH221407   6.370   0.083   3.291
 7148TIP3    H121408   6.453   0.060   3.333
 7148TIP3    H221409   6.346   0.167   3.330
 7149TIP3   OH221410   6.378   4.454   5.711
 7149TIP3    H121411   6.451   4.500   5.751
 7149TIP3    H221412   6.360   4.380   5.769
 7150TIP3   OH221413   2.798   6.601   2.811
 7150TIP3    H121414   2.865   6.570   2.872
 7150TIP3    H221415   2.782   6.527   2.752
 7151TIP3   OH221416   6.986   0.083   1.204
 7151TIP3    H121417   7.027   0.038   1.130
 7151TIP3    H221418   7.045   0.155   1.224
 7152TIP3   OH221419   1.713   1.621   5.806
 7152TIP3    H121420   1.671   1.612   5.891
 7152TIP3    H221421   1.740   1.713   5.802
 7153TIP3   OH221422   3.571   4.634   2.358
 7153TIP3    H121423   3.580   4.608   2.450
 7153TIP3    H221424   3.483   4.672   2.352
 7154TIP3   OH221425   6.325   2.072   3.635
 7154TIP3    H121426   6.327   2.026   3.718
 7154TIP3    H221427   6.319   2.003   3.569
 7155TIP3   OH221428   4.385   3.555   5.357
 7155TIP3    H121429   4.304   3.586   5.317
 7155TIP3    H221430   4.395   3.610   5.435
 7156TIP3   OH221431   3.000   2.186   4.853
 7156TIP3    H121432   3.086   2.174   4.893
 7156TIP3    H221433   2.945   2.120   4.894
 7157TIP3   OH221434   4.575   6.648   2.910
 7157TIP3    H121435   4.668   6.629   2.896
 7157TIP3    H221436   4.573   6.704   2.988
 7158TIP3   OH221437   0.521   2.708   4.513
 7158TIP3    H121438   0.519   2.614   4.530
 7158TIP3    H221439   0.518   2.748   4.600
 7159TIP3   OH221440   6.781   5.799   1.377
 7159TIP3    H121441   6.730   5.737   1.324
 7159TIP3    H221442   6.832   5.848   1.312
 7160TIP3   OH221443   2.200   6.143   2.192
 7160TIP3    H121444   2.116   6.120   2.233
 7160TIP3    H221445   2.223   6.066   2.140
 7161TIP3   OH221446   4.373   5.921   4.569
 7161TIP3    H121447   4.348   5.852   4.631
 7161TIP3    H221448   4.330   5.898   4.487
 7162TIP3   OH221449   5.693   6.515   3.641
 7162TIP3    H121450   5.667   6.470   3.561
 7162TIP3    H221451   5.788   6.524   3.634
 7163TIP3   OH221452   3.136   2.052   2.753
 7163TIP3    H121453   3.216   2.007   2.780
 7163TIP3    H221454   3.164   2.110   2.683
 7164TIP3   OH221455   6.040   2.411   1.858
 7164TIP3    H121456   5.956   2.378   1.890
 7164TIP3    H221457   6.017   2.484   1.801
 7165TIP3   OH221458   2.505   3.046   1.825
 7165TIP3    H121459   2.429   2.987   1.816
 7165TIP3    H221460   2.519   3.051   1.920
 7166TIP3   OH221461   0.727   2.484   4.459
 7166TIP3    H121462   0.716   2.518   4.370
 7166TIP3    H221463   0.751   2.392   4.446
 7167TIP3   OH221464   1.590   6.390   5.689
 7167TIP3    H121465   1.661   6.360   5.747
 7167TIP3    H221466   1.565   6.475   5.724
 7168TIP3   OH221467   2.300   1.122   0.929
 7168TIP3    H121468   2.322   1.129   0.836
 7168TIP3    H221469   2.230   1.186   0.942
 7169TIP3   OH221470   6.963   1.711   0.928
 7169TIP3    H121471   6.893   1.728   0.865
 7169TIP3    H221472   6.989   1.620   0.912
 7170TIP3   OH221473   1.221   5.625   4.885
 7170TIP3    H121474   1.190   5.583   4.966
 7170TIP3    H221475   1.184   5.572   4.815
 7171TIP3   OH221476   0.204   4.713   4.345
 7171TIP3    H121477   0.263   4.637   4.344
 7171TIP3    H221478   0.122   4.679   4.379
 7172TIP3   OH221479   5.328   2.224   3.718
 7172TIP3    H121480   5.349   2.201   3.628
 7172TIP3    H221481   5.237   2.196   3.729
 7173TIP3   OH221482   4.209   6.403   4.592
 7173TIP3    H121483   4.218   6.470   4.660
 7173TIP3    H221484   4.115   6.401   4.574
 7174TIP3   OH221485   6.010   0.421   5.241
 7174TIP3    H121486   6.079   0.487   5.248
 7174TIP3    H221487   5.930   0.469   5.263
 7175TIP3   OH221488   2.379   5.675   4.396
 7175TIP3    H121489   2.436   5.675   4.319
 7175TIP3    H221490   2.392   5.588   4.435
 7176TIP3   OH221491   0.912   6.051   2.588
 7176TIP3    H121492   0.891   6.077   2.498
 7176TIP3    H221493   0.996   6.005   2.580
 7177TIP3   OH221494   6.871   3.846   3.476
 7177TIP3    H121495   6.938   3.906   3.444
 7177TIP3    H221496   6.858   3.785   3.404
 7178TIP3   OH221497   2.423   6.642   2.347
 7178TIP3    H121498   2.395   6.551   2.346
 7178TIP3    H221499   2.477   6.651   2.269
 7179TIP3   OH221500   3.693   6.129   5.053
 7179TIP3    H121501   3.652   6.084   5.126
 7179TIP3    H221502   3.768   6.075   5.030
 7180TIP3   OH221503   0.371   1.569   0.502
 7180TIP3    H121504   0.379   1.556   0.597
 7180TIP3    H221505   0.334   1.657   0.493
 7181TIP3   OH221506   2.093   0.204   2.477
 7181TIP3    H121507   2.018   0.151   2.450
 7181TIP3    H221508   2.056   0.292   2.492
 7182TIP3   OH221509   2.808   4.907   4.730
 7182TIP3    H121510   2.877   4.842   4.740
 7182TIP3    H221511   2.739   4.879   4.790
 7183TIP3   OH221512   1.099   2.338   5.649
 7183TIP3    H121513   1.182   2.374   5.616
 7183TIP3    H221514   1.121   2.249   5.675
 7184TIP3   OH221515   4.952   3.270   1.213
 7184TIP3    H121516   4.913   3.219   1.284
 7184TIP3    H221517   5.021   3.321   1.255
 7185TIP3   OH221518   4.036   3.193   2.221
 7185TIP3    H121519   4.012   3.265   2.162
 7185TIP3    H221520   3.970   3.196   2.291
 7186TIP3   OH221521   2.292   3.586   1.775
 7186TIP3    H121522   2.320   3.602   1.865
 7186TIP3    H221523   2.354   3.635   1.722
 7187TIP3   OH221524   4.983   0.635   1.167
 7187TIP3    H121525   5.078   0.643   1.154
 7187TIP3    H221526   4.969   0.661   1.258
 7188TIP3   OH221527   5.430   4.174   0.416
 7188TIP3    H121528   5.376   4.198   0.491
 7188TIP3    H221529   5.503   4.124   0.453
 7189TIP3   OH221530   4.201   6.516   3.893
 7189TIP3    H121531   4.132   6.554   3.948
 7189TIP3    H221532   4.280   6.564   3.919
 7190TIP3   OH221533   1.112   2.300   3.164
 7190TIP3    H121534   1.074   2.271   3.247
 7190TIP3    H221535   1.099   2.226   3.105
 7191TIP3   OH221536   4.294   3.391   4.762
 7191TIP3    H121537   4.293   3.478   4.803
 7191TIP3    H221538   4.380   3.356   4.783
 7192TIP3   OH221539   3.878   4.508   3.727
 7192TIP3    H121540   3.823   4.583   3.752
 7192TIP3    H221541   3.949   4.508   3.791
 7193TIP3   OH221542   2.121   6.364   2.057
 7193TIP3    H121543   2.166   6.304   2.115
 7193TIP3    H221544   2.032   6.369   2.091
 7194TIP3   OH221545   5.771   4.166   5.858
 7194TIP3    H121546   5.816   4.119   5.789
 7194TIP3    H221547   5.830   4.160   5.933
 7195TIP3   OH221548   5.857   1.723   2.299
 7195TIP3    H121549   5.811   1.769   2.369
 7195TIP3    H221550   5.788   1.690   2.242
 7196TIP3   OH221551   5.867   5.350   1.883
 7196TIP3    H121552   5.952   5.349   1.841
 7196TIP3    H221553   5.839   5.259   1.886
 7197TIP3   OH221554   2.795   0.179   3.314
 7197TIP3    H121555   2.728   0.115   3.291
 7197TIP3    H221556   2.807   0.170   3.408
 7198TIP3   OH221557   6.361   1.505   5.318
 7198TIP3    H121558   6.391   1.448   5.247
 7198TIP3    H221559   6.410   1.475   5.395
 7199TIP3   OH221560   0.286   1.221   4.016
 7199TIP3    H121561   0.218   1.238   3.951
 7199TIP3    H221562   0.290   1.302   4.068
 7200TIP3   OH221563   4.120   6.595   3.654
 7200TIP3    H121564   4.157   6.567   3.738
 7200TIP3    H221565   4.031   6.559   3.655
 7201TIP3   OH221566   6.470   4.809   5.386
 7201TIP3    H121567   6.565   4.803   5.385
 7201TIP3    H221568   6.442   4.739   5.446
 7202TIP3   OH221569   6.429   6.023   0.966
 7202TIP3    H121570   6.340   5.997   0.989
 7202TIP3    H221571   6.419   6.082   0.892
 7203TIP3   OH221572   2.178   5.925   3.080
 7203TIP3    H121573   2.090   5.900   3.110
 7203TIP3    H221574   2.170   5.931   2.985
 7204TIP3   OH221575   6.895   0.293   5.563
 7204TIP3    H121576   6.807   0.292   5.602
 7204TIP3    H221577   6.954   0.291   5.638
 7205TIP3   OH221578   0.319   5.585   0.905
 7205TIP3    H121579   0.301   5.645   0.978
 7205TIP3    H221580   0.410   5.559   0.918
 7206TIP3   OH221581   4.833   5.978   3.626
 7206TIP3    H121582   4.811   5.916   3.557
 7206TIP3    H221583   4.749   6.007   3.661
 7207TIP3   OH221584   5.114   2.888   2.534
 7207TIP3    H121585   5.193   2.904   2.585
 7207TIP3    H221586   5.119   2.950   2.461
 7208TIP3   OH221587   5.743   1.934   3.883
 7208TIP3    H121588   5.811   2.000   3.866
 7208TIP3    H221589   5.689   1.974   3.951
 7209TIP3   OH221590   2.892   4.949   5.421
 7209TIP3    H121591   2.985   4.934   5.440
 7209TIP3    H221592   2.853   4.970   5.506
 7210TIP3   OH221593   5.542   2.560   2.691
 7210TIP3    H121594   5.527   2.564   2.785
 7210TIP3    H221595   5.526   2.468   2.668
 7211TIP3   OH221596   6.292   2.265   3.331
 7211TIP3    H121597   6.240   2.280   3.410
 7211TIP3    H221598   6.232   2.284   3.259
 7212TIP3   OH221599   2.920   0.943   3.980
 7212TIP3    H121600   2.923   0.909   3.890
 7212TIP3    H221601   2.964   1.027   3.976
 7213TIP3   OH221602   2.014   3.360   2.510
 7213TIP3    H121603   2.026   3.289   2.447
 7213TIP3    H221604   2.065   3.332   2.587
 7214TIP3   OH221605   2.516   0.272   1.920
 7214TIP3    H121606   2.553   0.203   1.866
 7214TIP3    H221607   2.500   0.230   2.005
 7215TIP3   OH221608   2.178   4.566   2.838
 7215TIP3    H121609   2.217   4.505   2.901
 7215TIP3    H221610   2.217   4.651   2.860
 7216TIP3   OH221611   0.826   0.933   0.351
 7216TIP3    H121612   0.896   0.881   0.392
 7216TIP3    H221613   0.871   0.992   0.291
 7217TIP3   OH221614   4.406   1.829   2.810
 7217TIP3    H121615   4.326   1.881   2.799
 7217TIP3    H221616   4.395   1.787   2.896
 7218TIP3   OH221617   3.151   4.204   4.741
 7218TIP3    H121618   3.200   4.237   4.666
 7218TIP3    H221619   3.182   4.115   4.752
 7219TIP3   OH221620   5.657   5.689   2.458
 7219TIP3    H121621   5.667   5.772   2.411
 7219TIP3    H221622   5.746   5.665   2.484
 7220TIP3   OH221623   1.346   1.704   3.359
 7220TIP3    H121624   1.357   1.656   3.277
 7220TIP3    H221625   1.300   1.642   3.417
 7221TIP3   OH221626   6.802   0.793   4.707
 7221TIP3    H121627   6.807   0.876   4.754
 7221TIP3    H221628   6.869   0.738   4.748
 7222TIP3   OH221629   6.026   3.012   2.628
 7222TIP3    H121630   5.985   2.971   2.553
 7222TIP3    H221631   6.112   2.971   2.634
 7223TIP3   OH221632   6.450   0.072   4.424
 7223TIP3    H121633   6.524   0.063   4.484
 7223TIP3    H221634   6.480   0.136   4.360
 7224TIP3   OH221635   6.438   0.903   0.538
 7224TIP3    H121636   6.460   0.824   0.488
 7224TIP3    H221637   6.353   0.930   0.504
 7225TIP3   OH221638   1.760   2.111   3.407
 7225TIP3    H121639   1.735   2.024   3.439
 7225TIP3    H221640   1.677   2.153   3.386
 7226TIP3   OH221641   0.464   6.549   0.827
 7226TIP3    H121642   0.373   6.575   0.813
 7226TIP3    H221643   0.501   6.618   0.881
 7227TIP3   OH221644   3.771   4.318   0.106
 7227TIP3    H121645   3.810   4.391   0.059
 7227TIP3    H221646   3.826   4.243   0.084
 7228TIP3   OH221647   0.019   3.954   2.534
 7228TIP3    H121648  -0.058   3.906   2.564
 7228TIP3    H221649   0.071   3.890   2.488
 7229TIP3   OH221650   2.611   1.809   0.831
 7229TIP3    H121651   2.561   1.830   0.910
 7229TIP3    H221652   2.640   1.718   0.844
 7230TIP3   OH221653   4.680   2.708   4.220
 7230TIP3    H121654   4.655   2.665   4.302
 7230TIP3    H221655   4.684   2.801   4.242
 7231TIP3   OH221656   6.453   1.577   4.251
 7231TIP3    H121657   6.476   1.561   4.160
 7231TIP3    H221658   6.357   1.581   4.251
 7232TIP3   OH221659   3.196   3.639   3.966
 7232TIP3    H121660   3.153   3.590   3.896
 7232TIP3    H221661   3.227   3.571   4.027
 7233TIP3   OH221662   4.236   1.014   4.874
 7233TIP3    H121663   4.141   1.028   4.873
 7233TIP3    H221664   4.246   0.922   4.899
 7234TIP3   OH221665   0.096   4.022   5.154
 7234TIP3    H121666   0.191   4.012   5.156
 7234TIP3    H221667   0.070   3.985   5.070
 7235TIP3   OH221668   4.841   3.300   2.987
 7235TIP3    H121669   4.820   3.290   3.080
 7235TIP3    H221670   4.780   3.366   2.956
 7236TIP3   OH221671   1.793   6.161   5.416
 7236TIP3    H121672   1.773   6.072   5.387
 7236TIP3    H221673   1.709   6.196   5.445
 7237TIP3   OH221674   0.587   6.297   1.005
 7237TIP3    H121675   0.513   6.352   0.980
 7237TIP3    H221676   0.660   6.329   0.953
 7238TIP3   OH221677   5.548   0.243   1.326
 7238TIP3    H121678   5.622   0.236   1.266
 7238TIP3    H221679   5.582   0.292   1.400
 7239TIP3   OH221680   6.566   5.879   1.552
 7239TIP3    H121681   6.514   5.958   1.568
 7239TIP3    H221682   6.646   5.912   1.512
 7240TIP3   OH221683   5.417   4.484   5.620
 7240TIP3    H121684   5.347   4.461   5.559
 7240TIP3    H221685   5.383   4.459   5.706
 7241TIP3   OH221686   7.012   5.688   4.543
 7241TIP3    H121687   7.093   5.700   4.593
 7241TIP3    H221688   6.958   5.764   4.566
 7242TIP3   OH221689   0.134   5.354   1.081
 7242TIP3    H121690   0.075   5.420   1.045
 7242TIP3    H221691   0.204   5.404   1.122
 7243TIP3   OH221692   6.951   3.794   5.906
 7243TIP3    H121693   7.019   3.736   5.872
 7243TIP3    H221694   6.871   3.766   5.863
 7244TIP3   OH221695   4.279   5.261   1.041
 7244TIP3    H121696   4.370   5.284   1.057
 7244TIP3    H221697   4.281   5.195   0.972
 7245TIP3   OH221698   5.373   3.925   3.182
 7245TIP3    H121699   5.288   3.886   3.166
 7245TIP3    H221700   5.420   3.917   3.099
 7246TIP3   OH221701   5.560   6.446   0.274
 7246TIP3    H121702   5.615   6.523   0.258
 7246TIP3    H221703   5.471   6.480   0.273
 7247TIP3   OH221704   6.040   6.323   2.304
 7247TIP3    H121705   5.959   6.335   2.256
 7247TIP3    H221706   6.078   6.410   2.311
 7248TIP3   OH221707   5.848   2.568   0.790
 7248TIP3    H121708   5.878   2.659   0.787
 7248TIP3    H221709   5.822   2.549   0.700
 7249TIP3   OH221710   5.932   4.411   5.018
 7249TIP3    H121711   5.884   4.438   4.940
 7249TIP3    H221712   6.022   4.398   4.987
 7250TIP3   OH221713   3.140   6.064   0.542
 7250TIP3    H121714   3.138   5.979   0.587
 7250TIP3    H221715   3.077   6.054   0.471
 7251TIP3   OH221716   2.097   4.455   0.386
 7251TIP3    H121717   2.130   4.366   0.393
 7251TIP3    H221718   2.067   4.462   0.295
 7252TIP3   OH221719   0.436   1.072   5.131
 7252TIP3    H121720   0.471   1.032   5.211
 7252TIP3    H221721   0.512   1.115   5.091
 7253TIP3   OH221722   2.641   2.396   3.660
 7253TIP3    H121723   2.730   2.426   3.645
 7253TIP3    H221724   2.604   2.462   3.719
 7254TIP3   OH221725   3.247   4.211   2.103
 7254TIP3    H121726   3.175   4.254   2.148
 7254TIP3    H221727   3.204   4.159   2.034
 7255TIP3   OH221728   4.214   0.940   5.587
 7255TIP3    H121729   4.230   0.931   5.681
 7255TIP3    H221730   4.284   0.997   5.555
 7256TIP3   OH221731   2.428  -0.003   0.622
 7256TIP3    H121732   2.365   0.064   0.650
 7256TIP3    H221733   2.452   0.024   0.533
 7257TIP3   OH221734   3.924   3.458   0.586
 7257TIP3    H121735   3.856   3.502   0.635
 7257TIP3    H221736   3.905   3.479   0.494
 7258TIP3   OH221737   3.182   0.853   0.979
 7258TIP3    H121738   3.099   0.808   0.991
 7258TIP3    H221739   3.181   0.924   1.043
 7259TIP3   OH221740   5.594   1.555   5.624
 7259TIP3    H121741   5.658   1.561   5.552
 7259TIP3    H221742   5.602   1.638   5.670
 7260TIP3   OH221743   2.099   3.505   2.749
 7260TIP3    H121744   2.013   3.476   2.779
 7260TIP3    H221745   2.089   3.514   2.654
 7261TIP3   OH221746   2.318   3.921   2.013
 7261TIP3    H121747   2.242   3.979   2.005
 7261TIP3    H221748   2.366   3.955   2.089
 7262TIP3   OH221749   1.673   4.696   4.048
 7262TIP3    H121750   1.600   4.757   4.057
 7262TIP3    H221751   1.632   4.615   4.017
 7263TIP3   OH221752   3.111   4.663   4.054
 7263TIP3    H121753   3.052   4.593   4.080
 7263TIP3    H221754   3.193   4.619   4.033
 7264TIP3   OH221755   0.911   3.119   1.732
 7264TIP3    H121756   0.831   3.134   1.681
 7264TIP3    H221757   0.891   3.045   1.789
 7265TIP3   OH221758   6.124   2.235   2.326
 7265TIP3    H121759   6.069   2.218   2.249
 7265TIP3    H221760   6.209   2.196   2.303
 7266TIP3   OH221761   5.151   2.933   5.841
 7266TIP3    H121762   5.109   2.988   5.775
 7266TIP3    H221763   5.079   2.894   5.890
 7267TIP3   OH221764   6.353   0.550   5.737
 7267TIP3    H121765   6.389   0.524   5.652
 7267TIP3    H221766   6.268   0.507   5.742
 7268TIP3   OH221767   3.077   0.605   4.023
 7268TIP3    H121768   2.990   0.622   4.058
 7268TIP3    H221769   3.062   0.554   3.944
 7269TIP3   OH221770   5.234   1.855   3.861
 7269TIP3    H121771   5.165   1.914   3.893
 7269TIP3    H221772   5.220   1.773   3.909
 7270TIP3   OH221773   3.259   3.426   1.342
 7270TIP3    H121774   3.353   3.420   1.361
 7270TIP3    H221775   3.227   3.337   1.352
 7271TIP3   OH221776   7.058   6.509   0.294
 7271TIP3    H121777   7.013   6.520   0.210
 7271TIP3    H221778   6.997   6.544   0.359
 7272TIP3   OH221779   3.401   4.302   4.896
 7272TIP3    H121780   3.325   4.358   4.909
 7272TIP3    H221781   3.368   4.228   4.846
 7273TIP3   OH221782   3.492   3.181   3.600
 7273TIP3    H121783   3.475   3.101   3.650
 7273TIP3    H221784   3.583   3.202   3.617
 7274TIP3   OH221785   5.584   3.313   1.218
 7274TIP3    H121786   5.627   3.266   1.146
 7274TIP3    H221787   5.631   3.285   1.297
 7275TIP3   OH221788   1.041   6.252   1.237
 7275TIP3    H121789   1.036   6.180   1.300
 7275TIP3    H221790   1.063   6.328   1.290
 7276TIP3   OH221791   1.713   4.955   4.619
 7276TIP3    H121792   1.700   4.907   4.701
 7276TIP3    H221793   1.713   5.047   4.645
 7277TIP3   OH221794   0.747   6.670   3.386
 7277TIP3    H121795   0.760   6.580   3.415
 7277TIP3    H221796   0.831   6.713   3.402
 7278TIP3   OH221797   0.524   4.688   5.648
 7278TIP3    H121798   0.457   4.703   5.715
 7278TIP3    H221799   0.496   4.608   5.604
 7279TIP3   OH221800   4.409   0.570   1.978
 7279TIP3    H121801   4.495   0.529   1.986
 7279TIP3    H221802   4.350   0.497   1.960
 7280TIP3   OH221803   0.601   2.596   1.227
 7280TIP3    H121804   0.610   2.685   1.261
 7280TIP3    H221805   0.510   2.591   1.198
 7281TIP3   OH221806   0.177   1.517   2.170
 7281TIP3    H121807   0.140   1.454   2.231
 7281TIP3    H221808   0.177   1.472   2.086
 7282TIP3   OH221809   4.691   3.990   4.469
 7282TIP3    H121810   4.779   3.990   4.507
 7282TIP3    H221811   4.704   3.958   4.380
 7283TIP3   OH221812   7.120   1.497   5.812
 7283TIP3    H121813   7.027   1.521   5.820
 7283TIP3    H221814   7.148   1.537   5.730
 7284TIP3   OH221815   4.414   3.956   4.827
 7284TIP3    H121816   4.354   3.978   4.756
 7284TIP3    H221817   4.497   3.937   4.783
 7285TIP3   OH221818   1.376   4.333   4.980
 7285TIP3    H121819   1.395   4.357   4.889
 7285TIP3    H221820   1.340   4.244   4.974
 7286TIP3   OH221821   2.827   3.431   3.902
 7286TIP3    H121822   2.747   3.484   3.910
 7286TIP3    H221823   2.797   3.350   3.860
 7287TIP3   OH221824   2.376   2.809   0.480
 7287TIP3    H121825   2.394   2.734   0.538
 7287TIP3    H221826   2.286   2.795   0.451
 7288TIP3   OH221827   3.882   5.941   2.627
 7288TIP3    H121828   3.851   5.991   2.702
 7288TIP3    H221829   3.853   5.851   2.644
 7289TIP3   OH221830   4.418   3.143   4.622
 7289TIP3    H121831   4.406   3.235   4.597
 7289TIP3    H221832   4.510   3.139   4.651
 7290TIP3   OH221833   6.932   4.689   0.803
 7290TIP3    H121834   6.916   4.648   0.888
 7290TIP3    H221835   7.008   4.643   0.768
 7291TIP3   OH221836   0.838   4.326   1.214
 7291TIP3    H121837   0.810   4.397   1.272
 7291TIP3    H221838   0.786   4.337   1.134
 7292TIP3   OH221839   1.971   5.645   1.979
 7292TIP3    H121840   1.895   5.614   1.930
 7292TIP3    H221841   2.001   5.722   1.931
 7293TIP3   OH221842   3.703   2.086   2.346
 7293TIP3    H121843   3.611   2.102   2.325
 7293TIP3    H221844   3.750   2.108   2.266
 7294TIP3   OH221845   1.683   5.632   3.239
 7294TIP3    H121846   1.663   5.694   3.170
 7294TIP3    H221847   1.656   5.676   3.320
 7295TIP3   OH221848   3.615   6.037   1.988
 7295TIP3    H121849   3.646   5.961   2.037
 7295TIP3    H221850   3.634   6.016   1.896
 7296TIP3   OH221851   0.816   2.518   1.086
 7296TIP3    H121852   0.887   2.532   1.149
 7296TIP3    H221853   0.736   2.521   1.139
 7297TIP3   OH221854   6.704   1.452   1.940
 7297TIP3    H121855   6.692   1.359   1.957
 7297TIP3    H221856   6.628   1.494   1.980
 7298TIP3   OH221857   3.947   2.745   3.523
 7298TIP3    H121858   3.997   2.746   3.605
 7298TIP3    H221859   4.013   2.741   3.454
 7299TIP3   OH221860   0.572   4.966   5.525
 7299TIP3    H121861   0.554   4.877   5.555
 7299TIP3    H221862   0.614   4.954   5.440
 7300TIP3   OH221863   0.575   1.698   4.352
 7300TIP3    H121864   0.546   1.780   4.313
 7300TIP3    H221865   0.641   1.665   4.290
 7301TIP3   OH221866   1.592   2.856   0.563
 7301TIP3    H121867   1.646   2.778   0.548
 7301TIP3    H221868   1.650   2.929   0.539
 7302TIP3   OH221869   7.127   3.574   3.326
 7302TIP3    H121870   7.051   3.516   3.321
 7302TIP3    H221871   7.123   3.626   3.247
 7303TIP3   OH221872   3.288   0.339   0.670
 7303TIP3    H121873   3.321   0.304   0.588
 7303TIP3    H221874   3.272   0.432   0.652
 7304TIP3   OH221875   4.986   0.171   5.450
 7304TIP3    H121876   4.996   0.085   5.410
 7304TIP3    H221877   4.902   0.165   5.497
 7305TIP3   OH221878   1.372   5.983   3.303
 7305TIP3    H121879   1.283   6.009   3.325
 7305TIP3    H221880   1.400   6.045   3.236
 7306TIP3   OH221881   2.203   1.897   1.187
 7306TIP3    H121882   2.253   1.823   1.221
 7306TIP3    H221883   2.114   1.882   1.218
 7307TIP3   OH221884   3.875   0.561   4.522
 7307TIP3    H121885   3.958   0.555   4.474
 7307TIP3    H221886   3.815   0.503   4.475
 7308TIP3   OH221887   1.400   1.386   3.695
 7308TIP3    H121888   1.345   1.384   3.773
 7308TIP3    H221889   1.442   1.300   3.693
 7309TIP3   OH221890   3.492   4.618   5.646
 7309TIP3    H121891   3.453   4.582   5.725
 7309TIP3    H221892   3.452   4.704   5.636
 7310TIP3   OH221893   3.314   6.575   2.056
 7310TIP3    H121894   3.408   6.562   2.068
 7310TIP3    H221895   3.285   6.495   2.011
 7311TIP3   OH221896   0.836   2.983   1.407
 7311TIP3    H121897   0.913   2.930   1.431
 7311TIP3    H221898   0.873   3.059   1.362
 7312TIP3   OH221899   2.616   3.200   2.773
 7312TIP3    H121900   2.705   3.180   2.744
 7312TIP3    H221901   2.621   3.195   2.868
 7313TIP3   OH221902   2.475   0.072   4.773
 7313TIP3    H121903   2.531   0.010   4.727
 7313TIP3    H221904   2.528   0.152   4.779
 7314TIP3   OH221905   4.202   5.335   5.695
 7314TIP3    H121906   4.145   5.306   5.767
 7314TIP3    H221907   4.212   5.258   5.639
 7315TIP3   OH221908   2.328   2.576   4.151
 7315TIP3    H121909   2.356   2.668   4.151
 7315TIP3    H221910   2.238   2.579   4.186
 7316TIP3   OH221911   2.561   0.862   4.295
 7316TIP3    H121912   2.484   0.918   4.299
 7316TIP3    H221913   2.630   0.918   4.259
 7317TIP3   OH221914   4.679   0.571   5.728
 7317TIP3    H121915   4.600   0.526   5.758
 7317TIP3    H221916   4.647   0.648   5.680
 7318TIP3   OH221917   0.923   5.692   5.841
 7318TIP3    H121918   1.010   5.726   5.821
 7318TIP3    H221919   0.936   5.598   5.853
 7319TIP3   OH221920   0.442   4.448   5.537
 7319TIP3    H121921   0.472   4.420   5.450
 7319TIP3    H221922   0.360   4.399   5.550
 7320TIP3   OH221923   6.103   4.228   2.587
 7320TIP3    H121924   6.106   4.154   2.526
 7320TIP3    H221925   6.160   4.202   2.660
 7321TIP3   OH221926   3.860   3.455   2.812
 7321TIP3    H121927   3.808   3.526   2.851
 7321TIP3    H221928   3.937   3.500   2.776
 7322TIP3   OH221929   1.194   3.835   5.819
 7322TIP3    H121930   1.205   3.758   5.875
 7322TIP3    H221931   1.154   3.901   5.877
 7323TIP3   OH221932   4.046   5.704   3.623
 7323TIP3    H121933   4.136   5.735   3.618
 7323TIP3    H221934   3.999   5.754   3.557
 7324TIP3   OH221935   4.801   6.518   2.892
 7324TIP3    H121936   4.874   6.474   2.936
 7324TIP3    H221937   4.834   6.534   2.803
 7325TIP3   OH221938   5.259   5.376   4.175
 7325TIP3    H121939   5.180   5.413   4.215
 7325TIP3    H221940   5.229   5.336   4.094
 7326TIP3   OH221941   1.682   2.008   0.051
 7326TIP3    H121942   1.590   2.030   0.066
 7326TIP3    H221943   1.728   2.092   0.062
 7327TIP3   OH221944   4.133   0.252   0.949
 7327TIP3    H121945   4.222   0.223   0.929
 7327TIP3    H221946   4.085   0.171   0.969
 7328TIP3   OH221947   4.317   2.324   0.610
 7328TIP3    H121948   4.256   2.389   0.646
 7328TIP3    H221949   4.394   2.331   0.666
 7329TIP3   OH221950   1.792   2.451   2.356
 7329TIP3    H121951   1.802   2.356   2.355
 7329TIP3    H221952   1.699   2.465   2.372
 7330TIP3   OH221953   0.812   1.365   3.133
 7330TIP3    H121954   0.806   1.352   3.038
 7330TIP3    H221955   0.806   1.277   3.170
 7331TIP3   OH221956   1.375   5.627   0.924
 7331TIP3    H121957   1.306   5.573   0.886
 7331TIP3    H221958   1.377   5.604   1.017
 7332TIP3   OH221959   1.807   0.300   0.204
 7332TIP3    H121960   1.777   0.385   0.171
 7332TIP3    H221961   1.894   0.289   0.166
 7333TIP3   OH221962   1.603   3.158   0.550
 7333TIP3    H121963   1.633   3.165   0.641
 7333TIP3    H221964   1.642   3.233   0.506
 7334TIP3   OH221965   4.639   1.743   2.270
 7334TIP3    H121966   4.716   1.799   2.255
 7334TIP3    H221967   4.568   1.788   2.223
 7335TIP3   OH221968   3.463   6.654   0.186
 7335TIP3    H121969   3.430   6.570   0.218
 7335TIP3    H221970   3.433   6.659   0.095
 7336TIP3   OH221971   2.837   5.608   1.113
 7336TIP3    H121972   2.850   5.624   1.020
 7336TIP3    H221973   2.769   5.669   1.140
 7337TIP3   OH221974   0.328   0.376   3.139
 7337TIP3    H121975   0.347   0.464   3.172
 7337TIP3    H221976   0.288   0.390   3.053
 7338TIP3   OH221977   6.122   6.577   2.314
 7338TIP3    H121978   6.199   6.604   2.265
 7338TIP3    H221979   6.048   6.619   2.270
 7339TIP3   OH221980   4.614   3.992   5.658
 7339TIP3    H121981   4.631   4.085   5.673
 7339TIP3    H221982   4.670   3.969   5.583
 7340TIP3   OH221983   6.425   1.126   0.173
 7340TIP3    H121984   6.335   1.153   0.159
 7340TIP3    H221985   6.436   1.048   0.120
 7341TIP3   OH221986   5.673   3.523   3.769
 7341TIP3    H121987   5.605   3.530   3.702
 7341TIP3    H221988   5.663   3.603   3.821
 7342TIP3   OH221989   6.160   6.170   1.810
 7342TIP3    H121990   6.217   6.108   1.855
 7342TIP3    H221991   6.074   6.128   1.810
 7343TIP3   OH221992   1.131   2.649   0.811
 7343TIP3    H121993   1.131   2.638   0.716
 7343TIP3    H221994   1.075   2.579   0.844
 7344TIP3   OH221995   0.681   0.157   2.068
 7344TIP3    H121996   0.636   0.116   2.142
 7344TIP3    H221997   0.623   0.143   1.993
 7345TIP3   OH221998   1.550   5.460   3.707
 7345TIP3    H121999   1.636   5.497   3.723
 7345TIP3    H222000   1.496   5.534   3.679
 7346TIP3   OH222001   0.963   1.282   1.697
 7346TIP3    H122002   0.959   1.254   1.789
 7346TIP3    H222003   0.872   1.279   1.667
 7347TIP3   OH222004   0.640   2.959   0.506
 7347TIP3    H122005   0.723   2.993   0.472
 7347TIP3    H222006   0.628   3.005   0.589
 7348TIP3   OH222007   3.064   5.466   2.372
 7348TIP3    H122008   3.027   5.484   2.286
 7348TIP3    H222009   2.988   5.454   2.429
 7349TIP3   OH222010   2.139   1.635   3.281
 7349TIP3    H122011   2.173   1.564   3.337
 7349TIP3    H222012   2.044   1.631   3.292
 7350TIP3   OH222013   3.068   3.120   1.621
 7350TIP3    H122014   3.084   3.049   1.683
 7350TIP3    H222015   2.977   3.145   1.636
 7351TIP3   OH222016   1.776   0.690   3.573
 7351TIP3    H122017   1.834   0.671   3.646
 7351TIP3    H222018   1.718   0.614   3.567
 7352TIP3   OH222019   1.710   5.073   1.738
 7352TIP3    H122020   1.647   5.026   1.684
 7352TIP3    H222021   1.762   5.123   1.675
 7353TIP3   OH222022   4.439   4.277   4.431
 7353TIP3    H122023   4.510   4.239   4.483
 7353TIP3    H222024   4.379   4.313   4.496
 7354TIP3   OH222025   5.834   0.565   3.448
 7354TIP3    H122026   5.839   0.543   3.541
 7354TIP3    H222027   5.921   0.544   3.414
 7355TIP3   OH222028   4.518   3.664   0.518
 7355TIP3    H122029   4.424   3.664   0.500
 7355TIP3    H222030   4.524   3.648   0.612
 7356TIP3   OH222031   1.071   4.021   5.424
 7356TIP3    H122032   1.089   3.944   5.479
 7356TIP3    H222033   1.089   3.992   5.335
 7357TIP3   OH222034   5.985   2.330   5.070
 7357TIP3    H122035   5.897   2.312   5.103
 7357TIP3    H222036   6.041   2.269   5.118
 7358TIP3   OH222037   1.472   0.240   1.369
 7358TIP3    H122038   1.405   0.295   1.409
 7358TIP3    H222039   1.535   0.302   1.332
 7359TIP3   OH222040   5.600   1.533   3.081
 7359TIP3    H122041   5.602   1.440   3.104
 7359TIP3    H222042   5.516   1.546   3.037
 7360TIP3   OH222043   6.516   6.330   0.686
 7360TIP3    H122044   6.606   6.328   0.719
 7360TIP3    H222045   6.475   6.403   0.732
 7361TIP3   OH222046   1.771   5.558   4.905
 7361TIP3    H122047   1.682   5.582   4.878
 7361TIP3    H222048   1.758   5.499   4.979
 7362TIP3   OH222049   1.427   1.393   1.079
 7362TIP3    H122050   1.414   1.300   1.092
 7362TIP3    H222051   1.389   1.434   1.156
 7363TIP3   OH222052   2.350   5.811   5.054
 7363TIP3    H122053   2.425   5.847   5.006
 7363TIP3    H222054   2.389   5.746   5.113
 7364TIP3   OH222055   4.432   2.463   2.021
 7364TIP3    H122056   4.338   2.478   2.025
 7364TIP3    H222057   4.470   2.527   2.082
 7365TIP3   OH222058   2.386   3.569   4.653
 7365TIP3    H122059   2.468   3.520   4.657
 7365TIP3    H222060   2.319   3.505   4.678
 7366TIP3   OH222061   4.811   1.742   5.786
 7366TIP3    H122062   4.784   1.704   5.870
 7366TIP3    H222063   4.730   1.771   5.745
 7367TIP3   OH222064   1.214   0.921   2.247
 7367TIP3    H122065   1.273   0.846   2.251
 7367TIP3    H222066   1.229   0.968   2.330
 7368TIP3   OH222067   0.049   1.606   5.582
 7368TIP3    H122068   0.105   1.560   5.518
 7368TIP3    H222069  -0.035   1.616   5.537
 7369TIP3   OH222070   1.177   0.306   1.735
 7369TIP3    H122071   1.198   0.377   1.674
 7369TIP3    H222072   1.190   0.226   1.684
 7370TIP3   OH222073   1.095   3.492   2.259
 7370TIP3    H122074   1.118   3.400   2.242
 7370TIP3    H222075   1.166   3.524   2.315
 7371TIP3   OH222076   4.438   5.537   1.139
 7371TIP3    H122077   4.349   5.550   1.171
 7371TIP3    H222078   4.463   5.622   1.102
 7372TIP3   OH222079   0.424   6.720   4.351
 7372TIP3    H122080   0.425   6.816   4.346
 7372TIP3    H222081   0.343   6.694   4.308
 7373TIP3   OH222082   4.450   4.070   3.541
 7373TIP3    H122083   4.465   4.164   3.543
 7373TIP3    H222084   4.532   4.033   3.506
 7374TIP3   OH222085   6.722   6.780   0.056
 7374TIP3    H122086   6.663   6.830  -0.001
 7374TIP3    H222087   6.694   6.801   0.145
 7375TIP3   OH222088   6.211   2.176   1.707
 7375TIP3    H122089   6.153   2.219   1.771
 7375TIP3    H222090   6.270   2.124   1.761
 7376TIP3   OH222091   5.318   5.348   3.876
 7376TIP3    H122092   5.349   5.309   3.795
 7376TIP3    H222093   5.232   5.309   3.891
 7377TIP3   OH222094   0.970   1.811   0.351
 7377TIP3    H122095   0.997   1.902   0.365
 7377TIP3    H222096   1.015   1.762   0.419
 7378TIP3   OH222097   0.404   6.449   5.215
 7378TIP3    H122098   0.470   6.475   5.151
 7378TIP3    H222099   0.353   6.529   5.231
 7379TIP3   OH222100   1.657   3.479   1.881
 7379TIP3    H122101   1.574   3.520   1.906
 7379TIP3    H222102   1.722   3.548   1.894
 7380TIP3   OH222103   5.563   4.857   0.556
 7380TIP3    H122104   5.643   4.834   0.509
 7380TIP3    H222105   5.494   4.854   0.489
 7381TIP3   OH222106   3.506   5.174   4.018
 7381TIP3    H122107   3.435   5.158   3.956
 7381TIP3    H222108   3.467   5.228   4.086
 7382TIP3   OH222109   4.278   0.300   1.282
 7382TIP3    H122110   4.224   0.370   1.247
 7382TIP3    H222111   4.249   0.221   1.236
 7383TIP3   OH222112   5.961   2.838   0.987
 7383TIP3    H122113   5.975   2.792   1.070
 7383TIP3    H222114   6.047   2.875   0.966
 7384TIP3   OH222115   6.882   3.992   2.331
 7384TIP3    H122116   6.801   3.943   2.314
 7384TIP3    H222117   6.859   4.053   2.400
 7385TIP3   OH222118   3.577   4.008   0.280
 7385TIP3    H122119   3.538   4.093   0.263
 7385TIP3    H222120   3.645   4.025   0.345
 7386TIP3   OH222121   5.714   6.289   0.063
 7386TIP3    H122122   5.733   6.203   0.101
 7386TIP3    H222123   5.681   6.341   0.136
 7387TIP3   OH222124   3.418   5.189   0.355
 7387TIP3    H122125   3.448   5.277   0.331
 7387TIP3    H222126   3.468   5.167   0.434
 7388TIP3   OH222127   2.169   5.791   2.274
 7388TIP3    H122128   2.117   5.811   2.196
 7388TIP3    H222129   2.105   5.780   2.344
 7389TIP3   OH222130   2.664   4.826   1.087
 7389TIP3    H122131   2.635   4.766   1.156
 7389TIP3    H222132   2.688   4.768   1.014
 7390TIP3   OH222133   2.459   1.224   2.583
 7390TIP3    H122134   2.546   1.201   2.550
 7390TIP3    H222135   2.415   1.141   2.596
 7391TIP3   OH222136   5.072   5.316   1.914
 7391TIP3    H122137   5.060   5.222   1.925
 7391TIP3    H222138   5.055   5.332   1.821
 7392TIP3   OH222139   2.185   2.801   5.095
 7392TIP3    H122140   2.216   2.829   5.009
 7392TIP3    H222141   2.112   2.742   5.076
 7393TIP3   OH222142   3.608   1.226   5.208
 7393TIP3    H122143   3.600   1.131   5.213
 7393TIP3    H222144   3.536   1.259   5.262
 7394TIP3   OH222145   6.772   6.185   2.446
 7394TIP3    H122146   6.751   6.091   2.447
 7394TIP3    H222147   6.867   6.188   2.441
 7395TIP3   OH222148   2.055   3.121   3.342
 7395TIP3    H122149   2.140   3.163   3.351
 7395TIP3    H222150   1.991   3.192   3.349
 7396TIP3   OH222151   2.320   5.587   4.693
 7396TIP3    H122152   2.266   5.665   4.681
 7396TIP3    H222153   2.260   5.522   4.729
 7397TIP3   OH222154   1.147   3.408   3.113
 7397TIP3    H122155   1.192   3.414   3.029
 7397TIP3    H222156   1.106   3.322   3.112
 7398TIP3   OH222157   1.316   5.580   2.733
 7398TIP3    H122158   1.358   5.505   2.691
 7398TIP3    H222159   1.386   5.644   2.745
 7399TIP3   OH222160   7.026   3.782   2.544
 7399TIP3    H122161   6.992   3.814   2.460
 7399TIP3    H222162   6.949   3.779   2.601
 7400TIP3   OH222163   6.249   3.413   1.491
 7400TIP3    H122164   6.204   3.434   1.573
 7400TIP3    H222165   6.179   3.397   1.428
 7401TIP3   OH222166   3.824   0.383   3.487
 7401TIP3    H122167   3.734   0.360   3.510
 7401TIP3    H222168   3.820   0.476   3.465
 7402TIP3   OH222169   2.434   1.303   5.458
 7402TIP3    H122170   2.479   1.385   5.441
 7402TIP3    H222171   2.503   1.241   5.481
 7403TIP3   OH222172   0.495   5.761   1.488
 7403TIP3    H122173   0.504   5.790   1.398
 7403TIP3    H222174   0.577   5.715   1.506
 7404TIP3   OH222175   6.474   5.708   4.952
 7404TIP3    H122176   6.570   5.707   4.945
 7404TIP3    H222177   6.448   5.794   4.919
 7405TIP3   OH222178   1.010   6.362   1.623
 7405TIP3    H122179   1.056   6.387   1.543
 7405TIP3    H222180   0.955   6.288   1.597
 7406TIP3   OH222181   3.382   3.067   2.500
 7406TIP3    H122182   3.472   3.073   2.532
 7406TIP3    H222183   3.328   3.070   2.579
 7407TIP3   OH222184   5.719   3.458   4.926
 7407TIP3    H122185   5.729   3.510   5.006
 7407TIP3    H222186   5.656   3.390   4.950
 7408TIP3   OH222187   5.690   1.714   5.863
 7408TIP3    H122188   5.676   1.789   5.921
 7408TIP3    H222189   5.721   1.645   5.921
 7409TIP3   OH222190   4.159   6.346   0.077
 7409TIP3    H122191   4.210   6.384   0.148
 7409TIP3    H222192   4.108   6.419   0.042
 7410TIP3   OH222193   4.715   1.008   0.883
 7410TIP3    H122194   4.641   0.967   0.839
 7410TIP3    H222195   4.716   1.098   0.851
 7411TIP3   OH222196   3.805   2.274   5.375
 7411TIP3    H122197   3.737   2.226   5.423
 7411TIP3    H222198   3.863   2.308   5.443
 7412TIP3   OH222199   3.738   1.583   2.038
 7412TIP3    H122200   3.699   1.538   2.113
 7412TIP3    H222201   3.832   1.562   2.044
 7413TIP3   OH222202   5.357   1.347   5.722
 7413TIP3    H122203   5.448   1.372   5.739
 7413TIP3    H222204   5.361   1.256   5.694
 7414TIP3   OH222205   3.942   5.976   1.434
 7414TIP3    H122206   3.874   6.013   1.490
 7414TIP3    H222207   3.964   5.893   1.477
 7415TIP3   OH222208   5.918   4.631   4.168
 7415TIP3    H122209   5.935   4.670   4.083
 7415TIP3    H222210   5.824   4.612   4.168
 7416TIP3   OH222211   7.068   5.666   1.439
 7416TIP3    H122212   7.010   5.657   1.515
 7416TIP3    H222213   7.083   5.577   1.409
 7417TIP3   OH222214   1.198   2.002   2.729
 7417TIP3    H122215   1.233   2.050   2.655
 7417TIP3    H222216   1.245   1.918   2.729
 7418TIP3   OH222217   4.204   5.108   1.328
 7418TIP3    H122218   4.146   5.179   1.355
 7418TIP3    H222219   4.236   5.134   1.241
 7419TIP3   OH222220   3.424   6.389   0.236
 7419TIP3    H122221   3.404   6.319   0.298
 7419TIP3    H222222   3.417   6.348   0.150
 7420TIP3   OH222223   3.796   3.215   1.328
 7420TIP3    H122224   3.744   3.148   1.284
 7420TIP3    H222225   3.875   3.223   1.274
 7421TIP3   OH222226   4.200   3.925   4.396
 7421TIP3    H122227   4.158   3.856   4.447
 7421TIP3    H222228   4.207   3.889   4.307
 7422TIP3   OH222229   7.064   1.192   0.053
 7422TIP3    H122230   7.042   1.274   0.097
 7422TIP3    H222231   6.979   1.155   0.028
 7423TIP3   OH222232   0.610   1.475   1.067
 7423TIP3    H122233   0.562   1.554   1.092
 7423TIP3    H222234   0.618   1.481   0.972
 7424TIP3   OH222235   0.728   0.378   4.663
 7424TIP3    H122236   0.772   0.401   4.745
 7424TIP3    H222237   0.760   0.289   4.644
 7425TIP3   OH222238   1.333   4.478   2.365
 7425TIP3    H122239   1.363   4.541   2.430
 7425TIP3    H222240   1.240   4.497   2.355
 7426TIP3   OH222241   6.522   1.447   3.626
 7426TIP3    H122242   6.522   1.534   3.586
 7426TIP3    H222243   6.595   1.448   3.687
 7427TIP3   OH222244   2.751   2.682   0.342
 7427TIP3    H122245   2.799   2.636   0.412
 7427TIP3    H222246   2.727   2.766   0.382
 7428TIP3   OH222247   2.054   1.239   0.784
 7428TIP3    H122248   2.027   1.307   0.846
 7428TIP3    H222249   1.976   1.222   0.731
 7429TIP3   OH222250   5.403   6.583   1.099
 7429TIP3    H122251   5.445   6.499   1.082
 7429TIP3    H222252   5.370   6.611   1.014
 7430TIP3   OH222253   0.510   2.777   5.483
 7430TIP3    H122254   0.459   2.743   5.556
 7430TIP3    H222255   0.544   2.699   5.439
 7431TIP3   OH222256   1.814   0.387   4.209
 7431TIP3    H122257   1.826   0.377   4.303
 7431TIP3    H222258   1.746   0.454   4.201
 7432TIP3   OH222259   2.379   0.623   1.748
 7432TIP3    H122260   2.454   0.680   1.731
 7432TIP3    H222261   2.307   0.684   1.768
 7433TIP3   OH222262   6.854   5.651   3.337
 7433TIP3    H122263   6.891   5.594   3.269
 7433TIP3    H222264   6.806   5.718   3.289
 7434TIP3   OH222265   0.680   3.987   3.534
 7434TIP3    H122266   0.721   4.019   3.454
 7434TIP3    H222267   0.672   4.064   3.590
 7435TIP3   OH222268   0.736   2.174   1.490
 7435TIP3    H122269   0.767   2.250   1.539
 7435TIP3    H222270   0.763   2.190   1.400
 7436TIP3   OH222271  -0.006   4.148   4.445
 7436TIP3    H122272   0.023   4.209   4.512
 7436TIP3    H222273   0.069   4.139   4.386
 7437TIP3   OH222274   6.305   0.658   2.811
 7437TIP3    H122275   6.361   0.611   2.749
 7437TIP3    H222276   6.360   0.727   2.846
 7438TIP3   OH222277   2.805   3.571   2.899
 7438TIP3    H122278   2.809   3.665   2.913
 7438TIP3    H222279   2.727   3.543   2.948
 7439TIP3   OH222280   4.348   3.942   2.461
 7439TIP3    H122281   4.430   3.978   2.495
 7439TIP3    H222282   4.368   3.915   2.372
 7440TIP3   OH222283   6.128   2.300   3.582
 7440TIP3    H122284   6.098   2.339   3.664
 7440TIP3    H222285   6.195   2.238   3.608
 7441TIP3   OH222286   0.499   6.611   3.275
 7441TIP3    H122287   0.581   6.621   3.324
 7441TIP3    H222288   0.511   6.529   3.227
 7442TIP3   OH222289   2.563   1.357   0.109
 7442TIP3    H122290   2.492   1.338   0.048
 7442TIP3    H222291   2.558   1.452   0.122
 7443TIP3   OH222292   5.206   4.264   1.474
 7443TIP3    H122293   5.227   4.289   1.384
 7443TIP3    H222294   5.205   4.168   1.472
 7444TIP3   OH222295   2.236   3.014   2.489
 7444TIP3    H122296   2.210   2.954   2.419
 7444TIP3    H222297   2.324   3.043   2.464
 7445TIP3   OH222298   0.207   6.331   4.609
 7445TIP3    H122299   0.137   6.360   4.551
 7445TIP3    H222300   0.276   6.397   4.598
 7446TIP3   OH222301   3.907   0.382   3.900
 7446TIP3    H122302   3.938   0.403   3.811
 7446TIP3    H222303   3.978   0.328   3.936
 7447TIP3   OH222304   2.697   1.215   2.479
 7447TIP3    H122305   2.771   1.204   2.539
 7447TIP3    H222306   2.735   1.207   2.392
 7448TIP3   OH222307   5.478   4.994   1.045
 7448TIP3    H122308   5.445   4.908   1.069
 7448TIP3    H222309   5.513   4.982   0.956
 7449TIP3   OH222310   5.342   1.655   4.951
 7449TIP3    H122311   5.406   1.585   4.934
 7449TIP3    H222312   5.257   1.612   4.940
 7450TIP3   OH222313   0.893   0.074   3.888
 7450TIP3    H122314   0.924   0.124   3.813
 7450TIP3    H222315   0.827   0.014   3.852
 7451TIP3   OH222316   0.576   0.825   1.634
 7451TIP3    H122317   0.482   0.816   1.647
 7451TIP3    H222318   0.585   0.845   1.541
 7452TIP3   OH222319   5.595   4.228   2.117
 7452TIP3    H122320   5.540   4.150   2.126
 7452TIP3    H222321   5.664   4.201   2.056
 7453TIP3   OH222322   4.833   5.754   1.201
 7453TIP3    H122323   4.822   5.801   1.284
 7453TIP3    H222324   4.868   5.668   1.227
 7454TIP3   OH222325   3.165   0.835   1.341
 7454TIP3    H122326   3.175   0.765   1.276
 7454TIP3    H222327   3.106   0.898   1.299
 7455TIP3   OH222328   5.546   2.411   3.579
 7455TIP3    H122329   5.550   2.367   3.664
 7455TIP3    H222330   5.533   2.341   3.515
 7456TIP3   OH222331   4.101   0.631   1.485
 7456TIP3    H122332   4.105   0.707   1.543
 7456TIP3    H222333   4.010   0.604   1.486
 7457TIP3   OH222334   6.493   0.030   5.612
 7457TIP3    H122335   6.440   0.064   5.684
 7457TIP3    H222336   6.431   0.022   5.539
 7458TIP3   OH222337   6.368   2.974   2.834
 7458TIP3    H122338   6.429   3.042   2.806
 7458TIP3    H222339   6.396   2.952   2.923
 7459TIP3   OH222340   3.509   4.857   2.906
 7459TIP3    H122341   3.457   4.848   2.826
 7459TIP3    H222342   3.536   4.768   2.927
 7460TIP3   OH222343   2.705   4.724   5.694
 7460TIP3    H122344   2.656   4.726   5.776
 7460TIP3    H222345   2.744   4.811   5.686
 7461TIP3   OH222346   2.640   2.499   5.716
 7461TIP3    H122347   2.732   2.486   5.695
 7461TIP3    H222348   2.638   2.579   5.769
 7462TIP3   OH222349   6.109   5.759   3.094
 7462TIP3    H122350   6.087   5.818   3.166
 7462TIP3    H222351   6.029   5.752   3.042
 7463TIP3   OH222352   4.170   4.436   3.856
 7463TIP3    H122353   4.234   4.402   3.794
 7463TIP3    H222354   4.203   4.410   3.942
 7464TIP3   OH222355   5.758   0.780   2.490
 7464TIP3    H122356   5.768   0.827   2.573
 7464TIP3    H222357   5.679   0.727   2.502
 7465TIP3   OH222358   2.787   3.747   3.218
 7465TIP3    H122359   2.775   3.656   3.242
 7465TIP3    H222360   2.762   3.796   3.296
 7466TIP3   OH222361   0.110   4.642   3.257
 7466TIP3    H122362   0.111   4.546   3.265
 7466TIP3    H222363   0.161   4.660   3.178
 7467TIP3   OH222364   6.988   1.367   1.459
 7467TIP3    H122365   6.925   1.322   1.515
 7467TIP3    H222366   6.935   1.406   1.389
 7468TIP3   OH222367   4.004   0.551   1.808
 7468TIP3    H122368   4.031   0.498   1.733
 7468TIP3    H222369   3.909   0.539   1.813
 7469TIP3   OH222370   0.200   5.038   1.995
 7469TIP3    H122371   0.282   5.086   1.984
 7469TIP3    H222372   0.134   5.094   1.953
 7470TIP3   OH222373   5.014   5.408   2.167
 7470TIP3    H122374   5.017   5.328   2.221
 7470TIP3    H222375   5.039   5.378   2.079
 7471TIP3   OH222376   6.872   5.565   1.167
 7471TIP3    H122377   6.875   5.480   1.213
 7471TIP3    H222378   6.780   5.589   1.167
 7472TIP3   OH222379   6.860   1.080   2.218
 7472TIP3    H122380   6.937   1.112   2.170
 7472TIP3    H222381   6.794   1.148   2.204
 7473TIP3   OH222382   5.889   2.626   5.687
 7473TIP3    H122383   5.828   2.567   5.642
 7473TIP3    H222384   5.833   2.675   5.748
 7474TIP3   OH222385   4.322   4.220   5.126
 7474TIP3    H122386   4.354   4.169   5.201
 7474TIP3    H222387   4.381   4.295   5.121
 7475TIP3   OH222388   2.768   6.035   4.853
 7475TIP3    H122389   2.840   5.987   4.893
 7475TIP3    H222390   2.707   5.967   4.824
 7476TIP3   OH222391   1.801   1.052   1.646
 7476TIP3    H122392   1.830   0.964   1.670
 7476TIP3    H222393   1.762   1.041   1.559
 7477TIP3   OH222394   3.637   4.104   1.864
 7477TIP3    H122395   3.647   4.028   1.920
 7477TIP3    H222396   3.720   4.110   1.816
 7478TIP3   OH222397   6.880   4.090   5.689
 7478TIP3    H122398   6.954   4.030   5.703
 7478TIP3    H222399   6.905   4.140   5.610
 7479TIP3   OH222400   5.729   3.979   4.175
 7479TIP3    H122401   5.672   4.010   4.105
 7479TIP3    H222402   5.813   4.020   4.157
 7480TIP3   OH222403   6.979   0.653   5.238
 7480TIP3    H122404   7.043   0.713   5.200
 7480TIP3    H222405   6.995   0.657   5.332
 7481TIP3   OH222406   6.566   5.462   3.509
 7481TIP3    H122407   6.627   5.532   3.488
 7481TIP3    H222408   6.549   5.418   3.426
 7482TIP3   OH222409   3.740   0.074   3.512
 7482TIP3    H122410   3.695   0.154   3.539
 7482TIP3    H222411   3.669   0.015   3.485
 7483TIP3   OH222412   7.039   6.527   3.444
 7483TIP3    H122413   7.008   6.579   3.369
 7483TIP3    H222414   7.046   6.590   3.515
 7484TIP3   OH222415   4.066   2.172   4.341
 7484TIP3    H122416   4.071   2.207   4.252
 7484TIP3    H222417   3.997   2.223   4.383
 7485TIP3   OH222418   6.353   6.033   1.948
 7485TIP3    H122419   6.388   6.113   1.987
 7485TIP3    H222420   6.408   5.963   1.984
 7486TIP3   OH222421   2.176   2.782   1.134
 7486TIP3    H122422   2.245   2.835   1.174
 7486TIP3    H222423   2.096   2.834   1.147
 7487TIP3   OH222424   4.887   6.682   0.250
 7487TIP3    H122425   4.922   6.599   0.281
 7487TIP3    H222426   4.932   6.748   0.304
 7488TIP3   OH222427   6.476   4.994   1.657
 7488TIP3    H122428   6.504   4.968   1.745
 7488TIP3    H222429   6.404   4.934   1.636
 7489TIP3   OH222430   1.687   2.030   2.237
 7489TIP3    H122431   1.709   2.031   2.144
 7489TIP3    H222432   1.633   1.952   2.248
 7490TIP3   OH222433   2.639   0.726   4.933
 7490TIP3    H122434   2.688   0.743   5.013
 7490TIP3    H222435   2.706   0.697   4.870
 7491TIP3   OH222436   6.696   0.670   2.344
 7491TIP3    H122437   6.784   0.669   2.309
 7491TIP3    H222438   6.677   0.762   2.360
 7492TIP3   OH222439   6.471   2.888   0.950
 7492TIP3    H122440   6.503   2.962   0.898
 7492TIP3    H222441   6.527   2.815   0.924
 7493TIP3   OH222442   3.979   2.693   3.922
 7493TIP3    H122443   3.952   2.602   3.912
 7493TIP3    H222444   4.035   2.693   4.000
 7494TIP3   OH222445   3.253   2.687   3.288
 7494TIP3    H122446   3.233   2.610   3.342
 7494TIP3    H222447   3.222   2.761   3.340
 7495TIP3   OH222448   3.448   2.415   1.910
 7495TIP3    H122449   3.489   2.420   1.997
 7495TIP3    H222450   3.514   2.452   1.851
 7496TIP3   OH222451   2.793   5.035   2.488
 7496TIP3    H122452   2.728   4.969   2.466
 7496TIP3    H222453   2.825   5.010   2.575
 7497TIP3   OH222454   4.809   4.642   4.193
 7497TIP3    H122455   4.786   4.629   4.101
 7497TIP3    H222456   4.854   4.561   4.218
 7498TIP3   OH222457   2.353   2.787   5.489
 7498TIP3    H122458   2.384   2.698   5.474
 7498TIP3    H222459   2.291   2.779   5.561
 7499TIP3   OH222460   1.428   6.221   4.330
 7499TIP3    H122461   1.460   6.259   4.248
 7499TIP3    H222462   1.348   6.269   4.349
 7500TIP3   OH222463   4.916   4.413   4.515
 7500TIP3    H122464   4.983   4.380   4.575
 7500TIP3    H222465   4.921   4.355   4.439
 7501TIP3   OH222466   2.848   1.635   2.140
 7501TIP3    H122467   2.848   1.730   2.133
 7501TIP3    H222468   2.798   1.617   2.219
 7502TIP3   OH222469   0.866   1.072   0.958
 7502TIP3    H122470   0.784   1.089   1.005
 7502TIP3    H222471   0.925   1.140   0.989
 7503TIP3   OH222472   6.006   1.567   0.072
 7503TIP3    H122473   6.031   1.651   0.112
 7503TIP3    H222474   5.996   1.587  -0.021
 7504TIP3   OH222475   4.532   0.140   3.800
 7504TIP3    H122476   4.566   0.222   3.766
 7504TIP3    H222477   4.561   0.138   3.892
 7505TIP3   OH222478   6.435   2.873   3.452
 7505TIP3    H122479   6.431   2.963   3.484
 7505TIP3    H222480   6.350   2.835   3.478
 7506TIP3   OH222481   0.551   2.974   4.720
 7506TIP3    H122482   0.646   2.972   4.729
 7506TIP3    H222483   0.521   2.895   4.766
 7507TIP3   OH222484   3.848   5.209   4.909
 7507TIP3    H122485   3.935   5.244   4.925
 7507TIP3    H222486   3.842   5.201   4.814
 7508TIP3   OH222487   6.947   1.778   1.789
 7508TIP3    H122488   6.935   1.721   1.866
 7508TIP3    H222489   6.944   1.718   1.714
 7509TIP3   OH222490   3.040   2.826   2.531
 7509TIP3    H122491   2.993   2.900   2.569
 7509TIP3    H222492   2.997   2.809   2.448
 7510TIP3   OH222493   1.165   5.976   4.131
 7510TIP3    H122494   1.239   5.978   4.070
 7510TIP3    H222495   1.198   5.927   4.206
 7511TIP3   OH222496   6.448   5.623   1.487
 7511TIP3    H122497   6.497   5.705   1.480
 7511TIP3    H222498   6.430   5.614   1.580
 7512TIP3   OH222499   6.892   0.365   4.059
 7512TIP3    H122500   6.981   0.397   4.050
 7512TIP3    H222501   6.844   0.407   3.988
 7513TIP3   OH222502   6.655   4.553   3.270
 7513TIP3    H122503   6.599   4.593   3.336
 7513TIP3    H222504   6.595   4.507   3.212
 7514TIP3   OH222505   6.513   6.717   3.880
 7514TIP3    H122506   6.575   6.744   3.948
 7514TIP3    H222507   6.434   6.694   3.928
 7515TIP3   OH222508   4.673   4.744   2.134
 7515TIP3    H122509   4.695   4.737   2.227
 7515TIP3    H222510   4.753   4.715   2.089
 7516TIP3   OH222511   5.634   3.518   3.114
 7516TIP3    H122512   5.559   3.545   3.167
 7516TIP3    H222513   5.700   3.584   3.131
 7517TIP3   OH222514   7.188   3.180   4.999
 7517TIP3    H122515   7.141   3.127   4.935
 7517TIP3    H222516   7.129   3.185   5.074
 7518TIP3   OH222517   3.477   2.582   5.794
 7518TIP3    H122518   3.414   2.556   5.862
 7518TIP3    H222519   3.440   2.661   5.756
 7519TIP3   OH222520   2.084   0.690   4.032
 7519TIP3    H122521   2.055   0.780   4.048
 7519TIP3    H222522   2.045   0.639   4.103
 7520TIP3   OH222523   1.826   5.636   3.578
 7520TIP3    H122524   1.801   5.561   3.525
 7520TIP3    H222525   1.881   5.599   3.648
 7521TIP3   OH222526   6.867   5.955   3.461
 7521TIP3    H122527   6.780   5.931   3.432
 7521TIP3    H222528   6.859   6.045   3.491
 7522TIP3   OH222529   1.983   1.503   5.700
 7522TIP3    H122530   1.945   1.588   5.720
 7522TIP3    H222531   1.957   1.446   5.772
 7523TIP3   OH222532   2.417   4.037   2.262
 7523TIP3    H122533   2.328   4.010   2.285
 7523TIP3    H222534   2.426   4.125   2.299
 7524TIP3   OH222535   6.040   0.152   5.722
 7524TIP3    H122536   6.037   0.058   5.740
 7524TIP3    H222537   6.118   0.183   5.768
 7525TIP3   OH222538   3.098   3.572   2.930
 7525TIP3    H122539   3.003   3.575   2.925
 7525TIP3    H222540   3.127   3.638   2.866
 7526TIP3   OH222541   0.040   2.811   3.581
 7526TIP3    H122542   0.002   2.789   3.666
 7526TIP3    H222543   0.098   2.737   3.561
 7527TIP3   OH222544   3.140   1.060   1.143
 7527TIP3    H122545   3.077   1.126   1.114
 7527TIP3    H222546   3.225   1.104   1.138
 7528TIP3   OH222547   5.598   5.224   0.574
 7528TIP3    H122548   5.554   5.214   0.659
 7528TIP3    H222549   5.685   5.258   0.596
 7529TIP3   OH222550   6.419   6.319   2.030
 7529TIP3    H122551   6.430   6.394   1.971
 7529TIP3    H222552   6.498   6.319   2.085
 7530TIP3   OH222553   1.735   3.775   1.659
 7530TIP3    H122554   1.700   3.829   1.730
 7530TIP3    H222555   1.662   3.719   1.633
 7531TIP3   OH222556   6.570   6.147   2.850
 7531TIP3    H122557   6.512   6.151   2.926
 7531TIP3    H222558   6.554   6.061   2.811
 7532TIP3   OH222559   0.296   5.220   2.287
 7532TIP3    H122560   0.363   5.152   2.289
 7532TIP3    H222561   0.246   5.207   2.367
 7533TIP3   OH222562   0.022   2.806   0.499
 7533TIP3    H122563  -0.054   2.767   0.456
 7533TIP3    H222564   0.097   2.768   0.454
 7534TIP3   OH222565   2.575   1.662   1.455
 7534TIP3    H122566   2.624   1.738   1.486
 7534TIP3    H222567   2.580   1.667   1.360
 7535TIP3   OH222568   4.784   6.650   1.663
 7535TIP3    H122569   4.828   6.728   1.628
 7535TIP3    H222570   4.853   6.585   1.672
 7536TIP3   OH222571   3.184   0.698   2.281
 7536TIP3    H122572   3.111   0.725   2.225
 7536TIP3    H222573   3.249   0.767   2.271
 7537TIP3   OH222574   3.866   0.547   5.474
 7537TIP3    H122575   3.939   0.576   5.418
 7537TIP3    H222576   3.899   0.557   5.563
 7538TIP3   OH222577   6.631   1.787   4.885
 7538TIP3    H122578   6.623   1.705   4.837
 7538TIP3    H222579   6.542   1.807   4.913
 7539TIP3   OH222580   4.474   3.752   5.548
 7539TIP3    H122581   4.547   3.717   5.599
 7539TIP3    H222582   4.436   3.820   5.604
 7540TIP3   OH222583   4.776   4.343   0.558
 7540TIP3    H122584   4.807   4.276   0.497
 7540TIP3    H222585   4.686   4.360   0.530
 7541TIP3   OH222586   3.285   0.012   0.985
 7541TIP3    H122587   3.210  -0.005   0.929
 7541TIP3    H222588   3.323   0.093   0.951
 7542TIP3   OH222589   0.945   2.463   2.942
 7542TIP3    H122590   1.017   2.409   2.974
 7542TIP3    H222591   0.876   2.454   3.009
 7543TIP3   OH222592   7.070   4.944   3.131
 7543TIP3    H122593   7.094   4.869   3.186
 7543TIP3    H222594   6.993   4.915   3.082
 7544TIP3   OH222595   6.179   2.794   3.450
 7544TIP3    H122596   6.151   2.704   3.466
 7544TIP3    H222597   6.183   2.801   3.354
 7545TIP3   OH222598   5.324   4.094   4.901
 7545TIP3    H122599   5.244   4.131   4.865
 7545TIP3    H222600   5.305   4.001   4.912
 7546TIP3   OH222601   1.904   6.075   1.396
 7546TIP3    H122602   1.854   6.082   1.315
 7546TIP3    H222603   1.992   6.049   1.368
 7547TIP3   OH222604   2.364   0.744   2.617
 7547TIP3    H122605   2.373   0.733   2.712
 7547TIP3    H222606   2.290   0.804   2.607
 7548TIP3   OH222607   7.195   1.108   2.260
 7548TIP3    H122608   7.252   1.071   2.193
 7548TIP3    H222609   7.218   1.201   2.262
 7549TIP3   OH222610   1.955   2.471   2.121
 7549TIP3    H122611   1.899   2.489   2.045
 7549TIP3    H222612   1.893   2.465   2.194
 7550TIP3   OH222613   6.756   4.649   0.079
 7550TIP3    H122614   6.679   4.655   0.021
 7550TIP3    H222615   6.828   4.628   0.020
 7551TIP3   OH222616   5.655   0.122   2.248
 7551TIP3    H122617   5.566   0.095   2.223
 7551TIP3    H222618   5.641   0.201   2.301
 7552TIP3   OH222619   0.592   0.015   5.105
 7552TIP3    H122620   0.609  -0.002   5.198
 7552TIP3    H222621   0.567   0.107   5.102
 7553TIP3   OH222622   6.875   4.385   0.719
 7553TIP3    H122623   6.814   4.415   0.651
 7553TIP3    H222624   6.962   4.407   0.685
 7554TIP3   OH222625   5.358   4.589   3.856
 7554TIP3    H122626   5.411   4.511   3.843
 7554TIP3    H222627   5.410   4.660   3.817
 7555TIP3   OH222628   0.195   3.132   2.923
 7555TIP3    H122629   0.168   3.194   2.991
 7555TIP3    H222630   0.170   3.175   2.841
 7556TIP3   OH222631   6.083   1.493   3.061
 7556TIP3    H122632   6.150   1.557   3.035
 7556TIP3    H222633   6.031   1.537   3.127
 7557TIP3   OH222634   6.737   4.564   5.065
 7557TIP3    H122635   6.677   4.638   5.049
 7557TIP3    H222636   6.749   4.524   4.979
 7558TIP3   OH222637   6.115   4.176   4.563
 7558TIP3    H122638   6.196   4.211   4.601
 7558TIP3    H222639   6.048   4.196   4.629
 7559TIP3   OH222640   0.492   0.285   5.621
 7559TIP3    H122641   0.397   0.291   5.613
 7559TIP3    H222642   0.524   0.373   5.602
 7560TIP3   OH222643   6.104   0.519   2.940
 7560TIP3    H122644   6.159   0.580   2.890
 7560TIP3    H222645   6.166   0.469   2.993
 7561TIP3   OH222646   0.639   5.761   2.945
 7561TIP3    H122647   0.654   5.844   2.899
 7561TIP3    H222648   0.682   5.773   3.030
 7562TIP3   OH222649   2.505   4.472   0.513
 7562TIP3    H122650   2.460   4.427   0.442
 7562TIP3    H222651   2.532   4.402   0.573
 7563TIP3   OH222652   3.142   2.913   3.444
 7563TIP3    H122653   3.048   2.900   3.453
 7563TIP3    H222654   3.150   2.984   3.381
 7564TIP3   OH222655   4.635   0.830   1.820
 7564TIP3    H122656   4.576   0.798   1.752
 7564TIP3    H222657   4.599   0.914   1.847
 7565TIP3   OH222658   1.794   0.160   3.763
 7565TIP3    H122659   1.748   0.176   3.681
 7565TIP3    H222660   1.751   0.082   3.799
 7566TIP3   OH222661   1.323   0.981   0.440
 7566TIP3    H122662   1.369   0.987   0.357
 7566TIP3    H222663   1.384   0.938   0.499
 7567TIP3   OH222664   2.856   0.311   0.487
 7567TIP3    H122665   2.830   0.400   0.511
 7567TIP3    H222666   2.798   0.287   0.415
 7568TIP3   OH222667   1.463   2.260   4.520
 7568TIP3    H122668   1.382   2.249   4.470
 7568TIP3    H222669   1.461   2.351   4.550
 7569TIP3   OH222670   2.673   4.062   2.505
 7569TIP3    H122671   2.664   4.129   2.572
 7569TIP3    H222672   2.623   3.987   2.538
 7570TIP3   OH222673   3.226   3.046   2.764
 7570TIP3    H122674   3.208   2.975   2.826
 7570TIP3    H222675   3.274   3.111   2.816
 7571TIP3   OH222676   6.412   0.104   1.059
 7571TIP3    H122677   6.471   0.080   1.129
 7571TIP3    H222678   6.362   0.025   1.040
 7572TIP3   OH222679   3.179   4.037   5.179
 7572TIP3    H122680   3.235   3.993   5.115
 7572TIP3    H222681   3.173   4.127   5.149
 7573TIP3   OH222682   2.210   6.384   3.568
 7573TIP3    H122683   2.124   6.424   3.584
 7573TIP3    H222684   2.208   6.362   3.475
 7574TIP3   OH222685   1.171   4.346   2.045
 7574TIP3    H122686   1.088   4.351   2.093
 7574TIP3    H222687   1.178   4.431   2.000
 7575TIP3   OH222688   5.909   6.205   2.818
 7575TIP3    H122689   5.913   6.298   2.839
 7575TIP3    H222690   5.832   6.197   2.761
 7576TIP3   OH222691   4.137   3.754   5.689
 7576TIP3    H122692   4.204   3.819   5.709
 7576TIP3    H222693   4.153   3.730   5.597
 7577TIP3   OH222694   3.128   3.811   1.387
 7577TIP3    H122695   3.072   3.874   1.432
 7577TIP3    H222696   3.142   3.742   1.452
 7578TIP3   OH222697   4.940   5.336   2.563
 7578TIP3    H122698   5.022   5.290   2.583
 7578TIP3    H222699   4.955   5.425   2.597
 7579TIP3   OH222700   6.863   4.734   2.459
 7579TIP3    H122701   6.886   4.699   2.545
 7579TIP3    H222702   6.948   4.755   2.419
 7580TIP3   OH222703   3.699   0.151   1.269
 7580TIP3    H122704   3.709   0.145   1.364
 7580TIP3    H222705   3.778   0.111   1.234
 7581TIP3   OH222706   7.069   4.345   5.004
 7581TIP3    H122707   7.099   4.405   4.935
 7581TIP3    H222708   6.976   4.333   4.986
 7582TIP3   OH222709   2.384   4.290   1.342
 7582TIP3    H122710   2.305   4.269   1.393
 7582TIP3    H222711   2.351   4.301   1.253
 7583TIP3   OH222712   0.949   3.692   1.504
 7583TIP3    H122713   0.856   3.670   1.499
 7583TIP3    H222714   0.957   3.774   1.455
 7584TIP3   OH222715   4.682   6.287   3.960
 7584TIP3    H122716   4.610   6.342   3.930
 7584TIP3    H222717   4.682   6.212   3.900
 7585TIP3   OH222718   6.961   5.923   0.801
 7585TIP3    H122719   6.865   5.933   0.797
 7585TIP3    H222720   6.994   6.012   0.794
 7586TIP3   OH222721   1.049   4.357   4.278
 7586TIP3    H122722   1.040   4.439   4.228
 7586TIP3    H222723   0.962   4.344   4.317
 7587TIP3   OH222724   1.788   3.731   1.354
 7587TIP3    H122725   1.788   3.700   1.445
 7587TIP3    H222726   1.747   3.660   1.305
 7588TIP3   OH222727   2.320   1.424   5.664
 7588TIP3    H122728   2.329   1.383   5.578
 7588TIP3    H222729   2.271   1.504   5.647
 7589TIP3   OH222730   5.930   2.983   3.794
 7589TIP3    H122731   6.005   3.037   3.770
 7589TIP3    H222732   5.908   2.936   3.714
 7590TIP3   OH222733   0.826   1.393   5.015
 7590TIP3    H122734   0.813   1.332   4.942
 7590TIP3    H222735   0.921   1.403   5.020
 7591TIP3   OH222736   0.620   6.427   3.081
 7591TIP3    H122737   0.616   6.391   2.992
 7591TIP3    H222738   0.647   6.353   3.135
 7592TIP3   OH222739   3.437   3.637   4.416
 7592TIP3    H122740   3.351   3.596   4.406
 7592TIP3    H222741   3.497   3.564   4.432
 7593TIP3   OH222742   6.693   6.071   5.599
 7593TIP3    H122743   6.648   6.093   5.517
 7593TIP3    H222744   6.651   6.127   5.665
 7594TIP3   OH222745   3.101   1.624   1.126
 7594TIP3    H122746   3.045   1.684   1.176
 7594TIP3    H222747   3.185   1.628   1.171
 7595TIP3   OH222748   4.826   4.163   0.184
 7595TIP3    H122749   4.874   4.148   0.103
 7595TIP3    H222750   4.888   4.206   0.242
 7596TIP3   OH222751   5.166   4.259   0.583
 7596TIP3    H122752   5.101   4.274   0.652
 7596TIP3    H222753   5.192   4.346   0.555
 7597TIP3   OH222754   4.087   3.250   0.904
 7597TIP3    H122755   4.147   3.179   0.880
 7597TIP3    H222756   4.014   3.240   0.843
 7598TIP3   OH222757   1.218   0.485   2.311
 7598TIP3    H122758   1.124   0.471   2.324
 7598TIP3    H222759   1.240   0.430   2.235
 7599TIP3   OH222760   1.676   6.228   1.221
 7599TIP3    H122761   1.622   6.306   1.232
 7599TIP3    H222762   1.718   6.239   1.135
 7600TIP3   OH222763   2.472   6.299   0.401
 7600TIP3    H122764   2.549   6.253   0.434
 7600TIP3    H222765   2.505   6.355   0.331
 7601TIP3   OH222766   2.649   0.691   2.851
 7601TIP3    H122767   2.556   0.695   2.869
 7601TIP3    H222768   2.663   0.604   2.813
 7602TIP3   OH222769   5.226   6.299   2.888
 7602TIP3    H122770   5.308   6.347   2.875
 7602TIP3    H222771   5.166   6.363   2.925
 7603TIP3   OH222772   3.668   4.314   3.674
 7603TIP3    H122773   3.599   4.298   3.610
 7603TIP3    H222774   3.709   4.396   3.646
 7604TIP3   OH222775   0.500   1.081   1.332
 7604TIP3    H122776   0.452   1.130   1.265
 7604TIP3    H222777   0.585   1.063   1.292
 7605TIP3   OH222778   3.406   3.002   5.477
 7605TIP3    H122779   3.424   3.062   5.405
 7605TIP3    H222780   3.329   2.952   5.449
 7606TIP3   OH222781   4.439   6.086   1.031
 7606TIP3    H122782   4.445   6.107   0.938
 7606TIP3    H222783   4.438   5.990   1.034
 7607TIP3   OH222784   4.100   4.723   4.569
 7607TIP3    H122785   4.129   4.734   4.659
 7607TIP3    H222786   4.180   4.731   4.517
 7608TIP3   OH222787   3.391   5.596   3.262
 7608TIP3    H122788   3.317   5.554   3.220
 7608TIP3    H222789   3.352   5.647   3.333
 7609TIP3   OH222790   1.220   1.163   1.656
 7609TIP3    H122791   1.135   1.203   1.673
 7609TIP3    H222792   1.270   1.181   1.736
 7610TIP3   OH222793   2.049   3.571   1.316
 7610TIP3    H122794   2.056   3.601   1.407
 7610TIP3    H222795   1.967   3.523   1.313
 7611TIP3   OH222796   5.943   5.192   3.159
 7611TIP3    H122797   5.907   5.180   3.071
 7611TIP3    H222798   5.867   5.182   3.217
 7612TIP3   OH222799   5.747   5.830   3.724
 7612TIP3    H122800   5.699   5.747   3.733
 7612TIP3    H222801   5.705   5.889   3.787
 7613TIP3   OH222802   2.313   1.222   0.674
 7613TIP3    H122803   2.228   1.246   0.712
 7613TIP3    H222804   2.341   1.301   0.627
 7614TIP3   OH222805   2.662   6.563   0.676
 7614TIP3    H122806   2.732   6.545   0.739
 7614TIP3    H222807   2.585   6.522   0.714
 7615TIP3   OH222808   5.847   2.313   2.024
 7615TIP3    H122809   5.771   2.344   2.073
 7615TIP3    H222810   5.856   2.221   2.049
 7616TIP3   OH222811   5.051   3.574   4.282
 7616TIP3    H122812   5.105   3.653   4.277
 7616TIP3    H222813   5.095   3.520   4.349
 7617TIP3   OH222814   5.413   2.146   1.927
 7617TIP3    H122815   5.457   2.226   1.897
 7617TIP3    H222816   5.426   2.145   2.022
 7618TIP3   OH222817   5.744   0.942   1.983
 7618TIP3    H122818   5.795   1.013   1.946
 7618TIP3    H222819   5.702   0.901   1.908
 7619TIP3   OH222820   0.145   3.266   5.736
 7619TIP3    H122821   0.125   3.226   5.652
 7619TIP3    H222822   0.230   3.309   5.723
 7620TIP3   OH222823   5.889   3.140   0.038
 7620TIP3    H122824   5.839   3.114   0.116
 7620TIP3    H222825   5.879   3.236   0.035
 7621TIP3   OH222826   4.572   2.205   1.653
 7621TIP3    H122827   4.505   2.257   1.698
 7621TIP3    H222828   4.653   2.255   1.663
 7622TIP3   OH222829   2.764   3.789   1.322
 7622TIP3    H122830   2.744   3.881   1.340
 7622TIP3    H222831   2.779   3.750   1.408
 7623TIP3   OH222832   1.586   2.194   4.109
 7623TIP3    H122833   1.504   2.178   4.063
 7623TIP3    H222834   1.572   2.275   4.158
 7624TIP3   OH222835   3.239   2.387   0.360
 7624TIP3    H122836   3.222   2.480   0.375
 7624TIP3    H222837   3.159   2.343   0.390
 7625TIP3   OH222838   2.162   0.840   0.076
 7625TIP3    H122839   2.226   0.770   0.059
 7625TIP3    H222840   2.215   0.918   0.091
 7626TIP3   OH222841   2.653   6.445   5.841
 7626TIP3    H122842   2.584   6.507   5.819
 7626TIP3    H222843   2.697   6.483   5.917
 7627TIP3   OH222844   6.205   5.349   2.374
 7627TIP3    H122845   6.274   5.289   2.401
 7627TIP3    H222846   6.173   5.386   2.456
 7628TIP3   OH222847   3.506   1.846   0.629
 7628TIP3    H122848   3.516   1.942   0.626
 7628TIP3    H222849   3.586   1.815   0.671
 7629TIP3   OH222850   3.271   6.007   5.420
 7629TIP3    H122851   3.204   5.991   5.354
 7629TIP3    H222852   3.254   6.096   5.450
 7630TIP3   OH222853   2.138   3.336   4.672
 7630TIP3    H122854   2.093   3.251   4.674
 7630TIP3    H222855   2.136   3.366   4.762
 7631TIP3   OH222856   6.047   3.153   1.568
 7631TIP3    H122857   5.975   3.197   1.614
 7631TIP3    H222858   6.022   3.158   1.475
 7632TIP3   OH222859   6.318   6.422   1.412
 7632TIP3    H122860   6.244   6.398   1.467
 7632TIP3    H222861   6.307   6.516   1.397
 7633TIP3   OH222862   5.863   6.721   2.227
 7633TIP3    H122863   5.823   6.673   2.300
 7633TIP3    H222864   5.874   6.810   2.261
 7634TIP3   OH222865   4.566   6.370   0.289
 7634TIP3    H122866   4.598   6.369   0.199
 7634TIP3    H222867   4.645   6.381   0.342
 7635TIP3   OH222868   2.560   5.516   1.396
 7635TIP3    H122869   2.642   5.510   1.445
 7635TIP3    H222870   2.498   5.462   1.446
 7636TIP3   OH222871   5.470   2.495   2.337
 7636TIP3    H122872   5.472   2.494   2.241
 7636TIP3    H222873   5.379   2.475   2.359
 7637TIP3   OH222874   5.108   0.850   0.221
 7637TIP3    H122875   5.054   0.842   0.300
 7637TIP3    H222876   5.045   0.864   0.151
 7638TIP3   OH222877   0.312   5.717   1.945
 7638TIP3    H122878   0.227   5.751   1.918
 7638TIP3    H222879   0.293   5.663   2.022
 7639TIP3   OH222880   3.488   0.625   5.010
 7639TIP3    H122881   3.470   0.681   4.934
 7639TIP3    H222882   3.473   0.536   4.978
 7640TIP3   OH222883   3.093   6.151   4.243
 7640TIP3    H122884   3.030   6.201   4.191
 7640TIP3    H222885   3.127   6.085   4.182
 7641TIP3   OH222886   6.007   5.532   1.334
 7641TIP3    H122887   6.075   5.465   1.335
 7641TIP3    H222888   5.929   5.488   1.368
 7642TIP3   OH222889   2.341   0.874   4.986
 7642TIP3    H122890   2.330   0.967   4.964
 7642TIP3    H222891   2.268   0.854   5.044
 7643TIP3   OH222892   6.686   5.757   5.508
 7643TIP3    H122893   6.611   5.781   5.454
 7643TIP3    H222894   6.702   5.833   5.563
 7644TIP3   OH222895   2.292   2.909   1.941
 7644TIP3    H122896   2.236   2.836   1.914
 7644TIP3    H222897   2.328   2.881   2.025
 7645TIP3   OH222898   2.193   0.231   5.454
 7645TIP3    H122899   2.184   0.288   5.377
 7645TIP3    H222900   2.277   0.188   5.443
 7646TIP3   OH222901   0.567   1.377   4.421
 7646TIP3    H122902   0.584   1.416   4.336
 7646TIP3    H222903   0.503   1.308   4.404
 7647TIP3   OH222904   4.408   5.838   0.325
 7647TIP3    H122905   4.443   5.815   0.239
 7647TIP3    H222906   4.412   5.934   0.328
 7648TIP3   OH222907   1.564   1.222   3.294
 7648TIP3    H122908   1.513   1.171   3.232
 7648TIP3    H222909   1.650   1.180   3.294
 7649TIP3   OH222910   0.605   4.180   2.847
 7649TIP3    H122911   0.582   4.271   2.829
 7649TIP3    H222912   0.691   4.185   2.889
 7650TIP3   OH222913   1.367   0.836   5.660
 7650TIP3    H122914   1.419   0.811   5.583
 7650TIP3    H222915   1.425   0.893   5.711
 7651TIP3   OH222916   1.867   4.833   4.260
 7651TIP3    H122917   1.776   4.832   4.291
 7651TIP3    H222918   1.860   4.806   4.168
 7652TIP3   OH222919   3.431   1.188   1.324
 7652TIP3    H122920   3.479   1.253   1.375
 7652TIP3    H222921   3.343   1.190   1.360
 7653TIP3   OH222922   6.359   1.135   5.302
 7653TIP3    H122923   6.310   1.097   5.229
 7653TIP3    H222924   6.414   1.201   5.262
 7654TIP3   OH222925   6.354   0.663   2.266
 7654TIP3    H122926   6.402   0.618   2.336
 7654TIP3    H222927   6.360   0.756   2.288
 7655TIP3   OH222928   0.118   6.022   2.880
 7655TIP3    H122929   0.107   6.011   2.785
 7655TIP3    H222930   0.210   6.001   2.895
 7656TIP3   OH222931   4.191   0.341   1.542
 7656TIP3    H122932   4.199   0.271   1.477
 7656TIP3    H222933   4.205   0.422   1.491
 7657TIP3   OH222934   3.545   1.542   3.354
 7657TIP3    H122935   3.582   1.459   3.325
 7657TIP3    H222936   3.465   1.553   3.303
 7658TIP3   OH222937   4.302   0.297   1.789
 7658TIP3    H122938   4.251   0.308   1.709
 7658TIP3    H222939   4.384   0.344   1.771
 7659TIP3   OH222940   4.593   0.087   0.585
 7659TIP3    H122941   4.654   0.124   0.650
 7659TIP3    H222942   4.533   0.159   0.566
 7660TIP3   OH222943   3.013   3.169   1.076
 7660TIP3    H122944   3.092   3.172   1.022
 7660TIP3    H222945   3.043   3.195   1.163
 7661TIP3   OH222946   1.184   5.073   4.146
 7661TIP3    H122947   1.201   4.995   4.198
 7661TIP3    H222948   1.089   5.080   4.141
 7662TIP3   OH222949   2.924   0.662   2.162
 7662TIP3    H122950   2.921   0.684   2.069
 7662TIP3    H222951   2.966   0.575   2.165
 7663TIP3   OH222952   3.485   1.842   1.615
 7663TIP3    H122953   3.522   1.919   1.657
 7663TIP3    H222954   3.414   1.814   1.673
 7664TIP3   OH222955   2.377   3.800   5.863
 7664TIP3    H122956   2.306   3.791   5.798
 7664TIP3    H222957   2.332   3.806   5.947
 7665TIP3   OH222958   2.752   1.444   1.140
 7665TIP3    H122959   2.815   1.375   1.120
 7665TIP3    H222960   2.724   1.425   1.230
 7666TIP3   OH222961   3.801   0.173   5.591
 7666TIP3    H122962   3.753   0.162   5.508
 7666TIP3    H222963   3.744   0.229   5.644
 7667TIP3   OH222964   2.088   2.001   0.138
 7667TIP3    H122965   2.076   2.020   0.045
 7667TIP3    H222966   2.147   2.070   0.169
 7668TIP3   OH222967   1.583   2.691   5.892
 7668TIP3    H122968   1.611   2.778   5.864
 7668TIP3    H222969   1.490   2.702   5.912
 7669TIP3   OH222970   0.089   5.588   4.181
 7669TIP3    H122971   0.053   5.639   4.254
 7669TIP3    H222972   0.164   5.542   4.218
 7670TIP3   OH222973   1.810   3.941   3.223
 7670TIP3    H122974   1.857   3.864   3.191
 7670TIP3    H222975   1.743   3.904   3.281
 7671TIP3   OH222976   1.942   1.754   1.909
 7671TIP3    H122977   2.029   1.742   1.872
 7671TIP3    H222978   1.898   1.812   1.847
 7672TIP3   OH222979   2.129   4.181   1.995
 7672TIP3    H122980   2.130   4.234   2.074
 7672TIP3    H222981   2.196   4.220   1.938
 7673TIP3   OH222982   3.911   1.320   1.809
 7673TIP3    H122983   3.889   1.364   1.727
 7673TIP3    H222984   4.001   1.347   1.829
 7674TIP3   OH222985   0.400   4.446   4.267
 7674TIP3    H122986   0.456   4.452   4.345
 7674TIP3    H222987   0.442   4.380   4.212
 7675TIP3   OH222988   4.770   2.912   3.736
 7675TIP3    H122989   4.683   2.887   3.704
 7675TIP3    H222990   4.754   2.945   3.825
 7676TIP3   OH222991   1.014   0.040   1.137
 7676TIP3    H122992   0.959   0.109   1.101
 7676TIP3    H222993   1.045  -0.008   1.060
 7677TIP3   OH222994   5.740   6.070   0.251
 7677TIP3    H122995   5.662   6.017   0.271
 7677TIP3    H222996   5.795   6.063   0.329
 7678TIP3   OH222997   4.776   3.568   4.457
 7678TIP3    H122998   4.846   3.539   4.398
 7678TIP3    H222999   4.813   3.643   4.503
 7679TIP3   OH223000   5.575   3.449   0.370
 7679TIP3    H123001   5.602   3.390   0.299
 7679TIP3    H223002   5.633   3.426   0.442
 7680TIP3   OH223003   5.740   0.971   4.813
 7680TIP3    H123004   5.830   1.001   4.799
 7680TIP3    H223005   5.711   1.017   4.892
 7681TIP3   OH223006   4.713   2.525   4.017
 7681TIP3    H123007   4.690   2.573   4.097
 7681TIP3    H223008   4.670   2.440   4.027
 7682TIP3   OH223009   4.972   3.403   0.266
 7682TIP3    H123010   4.985   3.430   0.357
 7682TIP3    H223011   4.896   3.344   0.270
 7683TIP3   OH223012   0.255   0.363   2.670
 7683TIP3    H123013   0.323   0.428   2.653
 7683TIP3    H223014   0.190   0.377   2.602
 7684TIP3   OH223015   2.882   5.620   3.799
 7684TIP3    H123016   2.882   5.707   3.759
 7684TIP3    H223017   2.795   5.584   3.780
 7685TIP3   OH223018   0.602   0.747   4.146
 7685TIP3    H123019   0.626   0.656   4.127
 7685TIP3    H223020   0.593   0.788   4.060
 7686TIP3   OH223021   5.066   2.554   2.918
 7686TIP3    H123022   4.977   2.562   2.884
 7686TIP3    H223023   5.100   2.643   2.918
 7687TIP3   OH223024   5.690   5.683   0.297
 7687TIP3    H123025   5.653   5.605   0.340
 7687TIP3    H223026   5.615   5.739   0.280
 7688TIP3   OH223027   5.352   6.142   0.449
 7688TIP3    H123028   5.346   6.178   0.538
 7688TIP3    H223029   5.262   6.135   0.420
 7689TIP3   OH223030   2.241   4.848   5.486
 7689TIP3    H123031   2.280   4.778   5.539
 7689TIP3    H223032   2.190   4.802   5.419
 7690TIP3   OH223033   2.649   5.634   0.026
 7690TIP3    H123034   2.631   5.718  -0.015
 7690TIP3    H223035   2.686   5.656   0.111
 7691TIP3   OH223036   3.113   3.912   3.076
 7691TIP3    H123037   3.162   3.858   3.138
 7691TIP3    H223038   3.089   3.851   3.005
 7692TIP3   OH223039   6.173   3.822   2.018
 7692TIP3    H123040   6.078   3.829   2.029
 7692TIP3    H223041   6.189   3.856   1.930
 7693TIP3   OH223042   5.471   5.846   3.077
 7693TIP3    H123043   5.519   5.902   3.016
 7693TIP3    H223044   5.387   5.890   3.089
 7694TIP3   OH223045   1.168   4.345   3.424
 7694TIP3    H123046   1.093   4.404   3.424
 7694TIP3    H223047   1.134   4.263   3.459
 7695TIP3   OH223048   4.145   6.317   0.743
 7695TIP3    H123049   4.202   6.394   0.744
 7695TIP3    H223050   4.175   6.263   0.816
 7696TIP3   OH223051   6.584   3.677   4.908
 7696TIP3    H123052   6.503   3.629   4.926
 7696TIP3    H223053   6.650   3.609   4.897
 7697TIP3   OH223054   5.228   6.225   2.012
 7697TIP3    H123055   5.202   6.266   2.094
 7697TIP3    H223056   5.237   6.132   2.033
 7698TIP3   OH223057   0.216   2.041   2.026
 7698TIP3    H123058   0.153   1.974   2.002
 7698TIP3    H223059   0.164   2.105   2.075
 7699TIP3   OH223060   3.214   1.505   2.289
 7699TIP3    H123061   3.179   1.589   2.318
 7699TIP3    H223062   3.136   1.450   2.277
 7700TIP3   OH223063   0.601   6.322   4.654
 7700TIP3    H123064   0.575   6.236   4.621
 7700TIP3    H223065   0.534   6.382   4.621
 7701TIP3   OH223066   3.958   2.576   2.646
 7701TIP3    H123067   3.943   2.600   2.737
 7701TIP3    H223068   4.048   2.604   2.628
 7702TIP3   OH223069   6.959   3.630   2.219
 7702TIP3    H123070   6.868   3.612   2.197
 7702TIP3    H223071   6.991   3.549   2.257
 7703TIP3   OH223072   3.191   3.118   0.559
 7703TIP3    H123073   3.217   3.031   0.589
 7703TIP3    H223074   3.230   3.127   0.472
 7704TIP3   OH223075   1.084   6.315   3.797
 7704TIP3    H123076   1.055   6.403   3.820
 7704TIP3    H223077   1.100   6.272   3.881
 7705TIP3   OH223078   2.337   1.560   4.844
 7705TIP3    H123079   2.418   1.528   4.804
 7705TIP3    H223080   2.308   1.630   4.787
 7706TIP3   OH223081   0.467   5.891   1.772
 7706TIP3    H123082   0.429   5.818   1.821
 7706TIP3    H223083   0.451   5.869   1.680
 7707TIP3   OH223084   4.698   1.318   1.493
 7707TIP3    H123085   4.640   1.325   1.418
 7707TIP3    H223086   4.710   1.408   1.523
 7708TIP3   OH223087   4.460   2.937   2.823
 7708TIP3    H123088   4.485   2.850   2.853
 7708TIP3    H223089   4.402   2.921   2.748
 7709TIP3   OH223090   2.175   6.516   0.893
 7709TIP3    H123091   2.210   6.604   0.877
 7709TIP3    H223092   2.221   6.460   0.830
 7710TIP3   OH223093   5.239   5.873   2.620
 7710TIP3    H123094   5.162   5.901   2.670
 7710TIP3    H223095   5.287   5.815   2.680
 7711TIP3   OH223096   6.351   3.861   1.319
 7711TIP3    H123097   6.267   3.877   1.361
 7711TIP3    H223098   6.337   3.782   1.267
 7712TIP3   OH223099   3.424   5.235   4.631
 7712TIP3    H123100   3.378   5.310   4.593
 7712TIP3    H223101   3.470   5.272   4.707
 7713TIP3   OH223102   3.914   3.734   4.787
 7713TIP3    H123103   3.854   3.714   4.859
 7713TIP3    H223104   3.857   3.751   4.712
 7714TIP3   OH223105   7.140   3.325   0.598
 7714TIP3    H123106   7.065   3.273   0.567
 7714TIP3    H223107   7.214   3.293   0.548
 7715TIP3   OH223108   1.502   0.022   1.653
 7715TIP3    H123109   1.493  -0.007   1.563
 7715TIP3    H223110   1.416   0.057   1.676
 7716TIP3   OH223111   0.278   3.669   0.840
 7716TIP3    H123112   0.320   3.583   0.834
 7716TIP3    H223113   0.198   3.652   0.890
 7717TIP3   OH223114   3.689   4.403   5.660
 7717TIP3    H123115   3.671   4.333   5.597
 7717TIP3    H223116   3.608   4.454   5.661
 7718TIP3   OH223117   4.202   3.107   0.686
 7718TIP3    H123118   4.162   3.124   0.601
 7718TIP3    H223119   4.194   3.012   0.697
 7719TIP3   OH223120   3.680   2.569   1.011
 7719TIP3    H123121   3.611   2.524   0.962
 7719TIP3    H223122   3.646   2.658   1.025
 7720TIP3   OH223123   6.380   6.465   2.284
 7720TIP3    H123124   6.389   6.391   2.224
 7720TIP3    H223125   6.322   6.526   2.239
 7721TIP3   OH223126   6.699   3.221   5.240
 7721TIP3    H123127   6.654   3.305   5.253
 7721TIP3    H223128   6.640   3.171   5.182
 7722TIP3   OH223129   2.532   2.059   1.864
 7722TIP3    H123130   2.501   2.092   1.780
 7722TIP3    H223131   2.627   2.069   1.861
 7723TIP3   OH223132   5.433   3.573   1.162
 7723TIP3    H123133   5.421   3.522   1.082
 7723TIP3    H223134   5.477   3.513   1.223
 7724TIP3   OH223135   5.231   4.465   4.536
 7724TIP3    H123136   5.167   4.535   4.553
 7724TIP3    H223137   5.276   4.493   4.456
 7725TIP3   OH223138   5.315   0.472   4.847
 7725TIP3    H123139   5.319   0.454   4.941
 7725TIP3    H223140   5.234   0.431   4.818
 7726TIP3   OH223141   1.255   4.831   0.920
 7726TIP3    H123142   1.263   4.880   1.002
 7726TIP3    H223143   1.205   4.753   0.943
 7727TIP3   OH223144   2.995   5.841   3.528
 7727TIP3    H123145   3.023   5.919   3.480
 7727TIP3    H223146   3.075   5.791   3.541
 7728TIP3   OH223147   5.484   5.517   0.694
 7728TIP3    H123148   5.474   5.612   0.686
 7728TIP3    H223149   5.401   5.481   0.662
 7729TIP3   OH223150   4.740   6.510   0.488
 7729TIP3    H123151   4.765   6.596   0.520
 7729TIP3    H223152   4.821   6.471   0.457
 7730TIP3   OH223153  -0.018   3.963   0.632
 7730TIP3    H123154   0.028   3.982   0.714
 7730TIP3    H223155   0.052   3.955   0.567
 7731TIP3   OH223156   5.793   6.011   1.604
 7731TIP3    H123157   5.856   5.946   1.574
 7731TIP3    H223158   5.758   6.049   1.523
 7732TIP3   OH223159   1.167   3.913   3.666
 7732TIP3    H123160   1.194   4.001   3.693
 7732TIP3    H223161   1.140   3.870   3.747
 7733TIP3   OH223162   1.028   0.155   5.585
 7733TIP3    H123163   0.979   0.179   5.663
 7733TIP3    H223164   1.118   0.146   5.615
 7734TIP3   OH223165   1.448   3.592   5.618
 7734TIP3    H123166   1.401   3.517   5.654
 7734TIP3    H223167   1.493   3.558   5.541
 7735TIP3   OH223168   0.513   0.077   1.399
 7735TIP3    H123169   0.569   0.124   1.461
 7735TIP3    H223170   0.452   0.028   1.455
 7736TIP3   OH223171   4.157   2.845   1.420
 7736TIP3    H123172   4.107   2.923   1.441
 7736TIP3    H223173   4.236   2.851   1.474
 7737TIP3   OH223174   7.031   5.873   0.192
 7737TIP3    H123175   7.091   5.806   0.160
 7737TIP3    H223176   7.045   5.948   0.134
 7738TIP3   OH223177   4.695   0.520   4.659
 7738TIP3    H123178   4.661   0.607   4.682
 7738TIP3    H223179   4.766   0.506   4.722
 7739TIP3   OH223180   7.109   3.817   3.179
 7739TIP3    H123181   7.160   3.890   3.145
 7739TIP3    H223182   7.091   3.840   3.270
 7740TIP3   OH223183   3.040   5.008   2.640
 7740TIP3    H123184   3.085   4.968   2.714
 7740TIP3    H223185   3.041   5.102   2.660
 7741TIP3   OH223186   2.802   1.747   4.268
 7741TIP3    H123187   2.727   1.799   4.299
 7741TIP3    H223188   2.813   1.680   4.335
 7742TIP3   OH223189   1.181   1.654   4.861
 7742TIP3    H123190   1.138   1.738   4.845
 7742TIP3    H223191   1.134   1.593   4.804
 7743TIP3   OH223192   6.133   2.313   0.719
 7743TIP3    H123193   6.156   2.248   0.652
 7743TIP3    H223194   6.161   2.397   0.682
 7744TIP3   OH223195   4.986   4.014   2.602
 7744TIP3    H123196   4.927   3.964   2.545
 7744TIP3    H223197   5.023   3.948   2.661
 7745TIP3   OH223198   3.931   2.030   1.942
 7745TIP3    H123199   3.923   2.093   2.013
 7745TIP3    H223200   3.868   1.961   1.964
 7746TIP3   OH223201   5.269   2.999   4.817
 7746TIP3    H123202   5.341   2.939   4.798
 7746TIP3    H223203   5.194   2.964   4.768
 7747TIP3   OH223204   6.639   2.094   1.971
 7747TIP3    H123205   6.588   2.063   2.045
 7747TIP3    H223206   6.655   2.187   1.989
 7748TIP3   OH223207   4.459   3.767   1.664
 7748TIP3    H123208   4.410   3.847   1.646
 7748TIP3    H223209   4.511   3.753   1.585
 7749TIP3   OH223210   3.487   4.949   3.537
 7749TIP3    H123211   3.424   5.013   3.504
 7749TIP3    H223212   3.485   4.960   3.632
 7750TIP3   OH223213   3.654   3.376   1.077
 7750TIP3    H123214   3.607   3.443   1.027
 7750TIP3    H223215   3.674   3.308   1.013
 7751TIP3   OH223216   2.082   3.646   2.386
 7751TIP3    H123217   2.154   3.589   2.413
 7751TIP3    H223218   2.043   3.676   2.468
 7752TIP3   OH223219   0.016   1.889   3.567
 7752TIP3    H123220   0.066   1.905   3.648
 7752TIP3    H223221   0.080   1.904   3.497
 7753TIP3   OH223222   0.389   1.275   1.084
 7753TIP3    H123223   0.366   1.221   1.008
 7753TIP3    H223224   0.455   1.336   1.051
 7754TIP3   OH223225   5.194   4.446   3.214
 7754TIP3    H123226   5.197   4.454   3.119
 7754TIP3    H223227   5.277   4.405   3.238
 7755TIP3   OH223228   2.341   6.087   0.538
 7755TIP3    H123229   2.348   6.166   0.486
 7755TIP3    H223230   2.431   6.053   0.544
 7756TIP3   OH223231   5.296   0.566   2.839
 7756TIP3    H123232   5.278   0.557   2.932
 7756TIP3    H223233   5.223   0.617   2.805
 7757TIP3   OH223234   0.237   6.427   4.130
 7757TIP3    H123235   0.294   6.373   4.186
 7757TIP3    H223236   0.298   6.474   4.073
 7758TIP3   OH223237   6.467   5.962   3.824
 7758TIP3    H123238   6.417   5.888   3.790
 7758TIP3    H223239   6.403   6.033   3.830
 7759TIP3   OH223240   6.269   1.562   3.405
 7759TIP3    H123241   6.321   1.638   3.429
 7759TIP3    H223242   6.290   1.497   3.472
 7760TIP3   OH223243   1.879   5.815   0.771
 7760TIP3    H123244   1.895   5.846   0.860
 7760TIP3    H223245   1.834   5.887   0.728
 7761TIP3   OH223246   2.303   4.770   4.307
 7761TIP3    H123247   2.380   4.815   4.273
 7761TIP3    H223248   2.230   4.808   4.259
 7762TIP3   OH223249   4.961   3.095   1.011
 7762TIP3    H123250   5.051   3.123   0.996
 7762TIP3    H223251   4.935   3.140   1.092
 7763TIP3   OH223252   0.820   1.765   0.964
 7763TIP3    H123253   0.728   1.766   0.938
 7763TIP3    H223254   0.865   1.724   0.890
 7764TIP3   OH223255   6.077   2.267   1.273
 7764TIP3    H123256   5.990   2.259   1.235
 7764TIP3    H223257   6.062   2.286   1.365
 7765TIP3   OH223258   4.028   3.069   1.511
 7765TIP3    H123259   4.075   3.144   1.473
 7765TIP3    H223260   3.938   3.099   1.520
 7766TIP3   OH223261   5.652   1.379   1.210
 7766TIP3    H123262   5.659   1.326   1.290
 7766TIP3    H223263   5.564   1.362   1.177
 7767TIP3   OH223264   6.867   5.911   3.845
 7767TIP3    H123265   6.811   5.946   3.915
 7767TIP3    H223266   6.807   5.860   3.790
 7768TIP3   OH223267   6.402   2.431   0.832
 7768TIP3    H123268   6.479   2.413   0.887
 7768TIP3    H223269   6.341   2.361   0.852
 7769TIP3   OH223270   1.929   6.679   3.192
 7769TIP3    H123271   1.979   6.712   3.118
 7769TIP3    H223272   1.995   6.651   3.255
 7770TIP3   OH223273   3.649   6.121   1.111
 7770TIP3    H123274   3.617   6.151   1.196
 7770TIP3    H223275   3.715   6.055   1.133
 7771TIP3   OH223276   5.981   5.755   3.851
 7771TIP3    H123277   5.895   5.786   3.822
 7771TIP3    H223278   5.961   5.693   3.921
 7772TIP3   OH223279   6.888   0.338   0.068
 7772TIP3    H123280   6.826   0.269   0.091
 7772TIP3    H223281   6.855   0.373  -0.015
 7773TIP3   OH223282   6.328   0.308   2.128
 7773TIP3    H123283   6.329   0.350   2.214
 7773TIP3    H223284   6.240   0.326   2.093
 7774TIP3   OH223285   2.167   3.337   1.767
 7774TIP3    H123286   2.198   3.425   1.747
 7774TIP3    H223287   2.076   3.336   1.740
 7775TIP3   OH223288   1.253   6.096   5.358
 7775TIP3    H123289   1.279   6.004   5.357
 7775TIP3    H223290   1.181   6.099   5.421
 7776TIP3   OH223291   3.222   3.961   4.407
 7776TIP3    H123292   3.207   3.887   4.466
 7776TIP3    H223293   3.139   4.009   4.406
 7777TIP3   OH223294   7.222   2.771   3.106
 7777TIP3    H123295   7.234   2.690   3.155
 7777TIP3    H223296   7.136   2.804   3.134
 7778TIP3   OH223297   5.573   3.732   2.892
 7778TIP3    H123298   5.656   3.718   2.938
 7778TIP3    H223299   5.565   3.828   2.888
 7779TIP3   OH223300   5.746   2.602   3.990
 7779TIP3    H123301   5.780   2.515   3.966
 7779TIP3    H223302   5.745   2.601   4.086
 7780TIP3   OH223303   5.788   1.497   0.221
 7780TIP3    H123304   5.871   1.502   0.174
 7780TIP3    H223305   5.765   1.589   0.238
 7781TIP3   OH223306   2.443   4.674   5.119
 7781TIP3    H123307   2.351   4.691   5.100
 7781TIP3    H223308   2.468   4.740   5.182
 7782TIP3   OH223309   0.572   1.662   2.777
 7782TIP3    H123310   0.547   1.624   2.861
 7782TIP3    H223311   0.492   1.702   2.743
 7783TIP3   OH223312   3.650   3.039   2.620
 7783TIP3    H123313   3.632   3.131   2.602
 7783TIP3    H223314   3.729   3.040   2.675
 7784TIP3   OH223315   1.258   4.992   5.187
 7784TIP3    H123316   1.221   4.905   5.176
 7784TIP3    H223317   1.269   5.002   5.282
 7785TIP3   OH223318   3.603   2.775   4.183
 7785TIP3    H123319   3.617   2.697   4.236
 7785TIP3    H223320   3.628   2.848   4.239
 7786TIP3   OH223321   4.292   0.811   2.073
 7786TIP3    H123322   4.211   0.768   2.102
 7786TIP3    H223323   4.351   0.739   2.052
 7787TIP3   OH223324   1.402   3.639   2.474
 7787TIP3    H123325   1.401   3.595   2.389
 7787TIP3    H223326   1.334   3.594   2.525
 7788TIP3   OH223327   6.377   2.271   2.797
 7788TIP3    H123328   6.293   2.314   2.808
 7788TIP3    H223329   6.420   2.319   2.726
 7789TIP3   OH223330   0.741   2.867   1.633
 7789TIP3    H123331   0.822   2.890   1.587
 7789TIP3    H223332   0.671   2.897   1.576
 7790TIP3   OH223333   0.926   0.992   4.695
 7790TIP3    H123334   0.855   0.936   4.727
 7790TIP3    H223335   0.923   0.982   4.600
 7791TIP3   OH223336   2.248   6.277   1.602
 7791TIP3    H123337   2.202   6.355   1.572
 7791TIP3    H223338   2.200   6.204   1.564
 7792TIP3   OH223339   1.302   3.062   0.539
 7792TIP3    H123340   1.272   3.057   0.629
 7792TIP3    H223341   1.390   3.099   0.545
 7793TIP3   OH223342   6.181   5.832   5.060
 7793TIP3    H123343   6.112   5.792   5.114
 7793TIP3    H223344   6.145   5.917   5.034
 7794TIP3   OH223345   5.372   5.036   2.435
 7794TIP3    H123346   5.453   4.986   2.421
 7794TIP3    H223347   5.314   5.008   2.364
 7795TIP3   OH223348   6.370   4.013   4.330
 7795TIP3    H123349   6.387   4.043   4.241
 7795TIP3    H223350   6.442   3.953   4.349
 7796TIP3   OH223351   5.555   1.100   1.321
 7796TIP3    H123352   5.513   1.145   1.394
 7796TIP3    H223353   5.509   1.131   1.243
 7797TIP3   OH223354   6.238   4.557   0.868
 7797TIP3    H123355   6.299   4.483   0.868
 7797TIP3    H223356   6.294   4.634   0.867
 7798TIP3   OH223357   2.985   2.908   4.376
 7798TIP3    H123358   2.973   3.002   4.387
 7798TIP3    H223359   2.904   2.878   4.336
 7799TIP3   OH223360   3.352   4.829   2.662
 7799TIP3    H123361   3.417   4.761   2.640
 7799TIP3    H223362   3.278   4.811   2.604
 7800TIP3   OH223363   6.652   2.360   0.956
 7800TIP3    H123364   6.646   2.449   0.993
 7800TIP3    H223365   6.689   2.308   1.027
 7801TIP3   OH223366   7.013   5.666   0.589
 7801TIP3    H123367   7.071   5.691   0.661
 7801TIP3    H223368   7.071   5.650   0.515
 7802TIP3   OH223369   6.648   0.205   3.702
 7802TIP3    H123370   6.620   0.164   3.620
 7802TIP3    H223371   6.569   0.211   3.755
 7803TIP3   OH223372   2.648   6.152   4.003
 7803TIP3    H123373   2.722   6.185   4.053
 7803TIP3    H223374   2.634   6.217   3.934
 7804TIP3   OH223375   2.679   1.356   4.107
 7804TIP3    H123376   2.693   1.261   4.103
 7804TIP3    H223377   2.587   1.367   4.083
 7805TIP3   OH223378   4.090   3.795   3.278
 7805TIP3    H123379   4.143   3.716   3.285
 7805TIP3    H223380   4.152   3.867   3.293
 7806TIP3   OH223381   2.312   3.235   3.332
 7806TIP3    H123382   2.294   3.328   3.341
 7806TIP3    H223383   2.406   3.230   3.314
 7807TIP3   OH223384   6.187   1.313   5.145
 7807TIP3    H123385   6.175   1.382   5.211
 7807TIP3    H223386   6.112   1.254   5.159
 7808TIP3   OH223387   1.200   2.520   2.806
 7808TIP3    H123388   1.106   2.501   2.809
 7808TIP3    H223389   1.216   2.572   2.885
 7809TIP3   OH223390   4.789   3.981   3.865
 7809TIP3    H123391   4.770   4.018   3.951
 7809TIP3    H223392   4.778   4.054   3.804
 7810TIP3   OH223393   5.544   5.176   4.998
 7810TIP3    H123394   5.592   5.096   4.974
 7810TIP3    H223395   5.535   5.224   4.916
 7811TIP3   OH223396   7.121   1.350   2.881
 7811TIP3    H123397   7.094   1.272   2.928
 7811TIP3    H223398   7.210   1.367   2.912
 7812TIP3   OH223399   0.324   0.407   4.958
 7812TIP3    H123400   0.298   0.327   5.003
 7812TIP3    H223401   0.252   0.468   4.973
 7813TIP3   OH223402   6.379   0.076   0.105
 7813TIP3    H123403   6.310   0.017   0.133
 7813TIP3    H223404   6.420   0.031   0.031
 7814TIP3   OH223405   6.864   0.553   1.327
 7814TIP3    H123406   6.883   0.461   1.309
 7814TIP3    H223407   6.771   0.563   1.309
 7815TIP3   OH223408   2.651   3.598   1.787
 7815TIP3    H123409   2.607   3.513   1.777
 7815TIP3    H223410   2.669   3.605   1.880
 7816TIP3   OH223411   0.860   5.254   3.409
 7816TIP3    H123412   0.839   5.331   3.463
 7816TIP3    H223413   0.900   5.290   3.330
 7817TIP3   OH223414   0.047   1.495   0.593
 7817TIP3    H123415   0.075   1.579   0.557
 7817TIP3    H223416   0.036   1.512   0.687
 7818TIP3   OH223417   1.071   5.961   2.890
 7818TIP3    H123418   1.143   5.979   2.951
 7818TIP3    H223419   0.995   6.006   2.929
 7819TIP3   OH223420   5.013   5.588   2.597
 7819TIP3    H123421   5.069   5.622   2.526
 7819TIP3    H223422   4.929   5.631   2.583
 7820TIP3   OH223423   5.596   5.441   0.385
 7820TIP3    H123424   5.689   5.419   0.372
 7820TIP3    H223425   5.569   5.387   0.459
 7821TIP3   OH223426   6.194   0.762   0.119
 7821TIP3    H123427   6.141   0.817   0.061
 7821TIP3    H223428   6.149   0.767   0.204
 7822TIP3   OH223429   6.552   1.245   3.433
 7822TIP3    H123430   6.580   1.189   3.506
 7822TIP3    H223431   6.550   1.333   3.470
 7823TIP3   OH223432   1.017   2.055   3.704
 7823TIP3    H123433   0.925   2.054   3.679
 7823TIP3    H223434   1.063   2.024   3.626
 7824TIP3   OH223435   3.845   3.202   0.671
 7824TIP3    H123436   3.892   3.284   0.654
 7824TIP3    H223437   3.818   3.172   0.584
 7825TIP3   OH223438   1.619   2.652   5.174
 7825TIP3    H123439   1.679   2.581   5.197
 7825TIP3    H223440   1.576   2.675   5.256
 7826TIP3   OH223441   1.482   2.909   3.222
 7826TIP3    H123442   1.577   2.919   3.214
 7826TIP3    H223443   1.465   2.919   3.315
 7827TIP3   OH223444   1.807   6.493   1.573
 7827TIP3    H123445   1.722   6.449   1.576
 7827TIP3    H223446   1.832   6.502   1.666
 7828TIP3   OH223447   4.125   2.613   5.573
 7828TIP3    H123448   4.190   2.545   5.555
 7828TIP3    H223449   4.051   2.592   5.517
 7829TIP3   OH223450   7.169   1.929   2.929
 7829TIP3    H123451   7.252   1.920   2.976
 7829TIP3    H223452   7.124   1.846   2.942
 7830TIP3   OH223453   3.847   0.552   5.757
 7830TIP3    H123454   3.758   0.586   5.752
 7830TIP3    H223455   3.859   0.529   5.849
 7831TIP3   OH223456   3.065   3.491   4.971
 7831TIP3    H123457   3.092   3.410   4.928
 7831TIP3    H223458   3.143   3.546   4.968
 7832TIP3   OH223459   0.840   2.362   0.285
 7832TIP3    H123460   0.765   2.310   0.315
 7832TIP3    H223461   0.906   2.349   0.353
 7833TIP3   OH223462   1.077   3.837   3.921
 7833TIP3    H123463   1.111   3.827   4.010
 7833TIP3    H223464   0.983   3.851   3.933
 7834TIP3   OH223465   6.574   4.004   1.209
 7834TIP3    H123466   6.498   3.951   1.234
 7834TIP3    H223467   6.579   3.995   1.114
 7835TIP3   OH223468   2.648   5.814   3.149
 7835TIP3    H123469   2.706   5.740   3.130
 7835TIP3    H223470   2.653   5.826   3.243
 7836TIP3   OH223471   0.332   5.840   4.528
 7836TIP3    H123472   0.264   5.878   4.472
 7836TIP3    H223473   0.298   5.754   4.552
 7837TIP3   OH223474   1.311   3.482   3.313
 7837TIP3    H123475   1.354   3.403   3.346
 7837TIP3    H223476   1.265   3.454   3.234
 7838TIP3   OH223477   2.555   5.560   2.184
 7838TIP3    H123478   2.585   5.543   2.273
 7838TIP3    H223479   2.528   5.652   2.184
 7839TIP3   OH223480   0.824   0.610   1.216
 7839TIP3    H123481   0.786   0.675   1.274
 7839TIP3    H223482   0.769   0.532   1.226
 7840TIP3   OH223483   4.076   0.798   1.060
 7840TIP3    H123484   4.069   0.728   0.995
 7840TIP3    H223485   4.129   0.865   1.018
 7841TIP3   OH223486   3.604   2.423   3.776
 7841TIP3    H123487   3.521   2.460   3.748
 7841TIP3    H223488   3.667   2.452   3.709
 7842TIP3   OH223489   2.791   6.612   2.378
 7842TIP3    H123490   2.836   6.527   2.382
 7842TIP3    H223491   2.732   6.612   2.453
 7843TIP3   OH223492   1.072   3.183   4.810
 7843TIP3    H123493   0.995   3.193   4.865
 7843TIP3    H223494   1.051   3.232   4.731
 7844TIP3   OH223495   1.412   5.709   5.913
 7844TIP3    H123496   1.393   5.803   5.913
 7844TIP3    H223497   1.453   5.692   5.829
 7845TIP3   OH223498   2.422   3.750   2.526
 7845TIP3    H123499   2.449   3.692   2.597
 7845TIP3    H223500   2.406   3.834   2.567
 7846TIP3   OH223501   6.225   2.716   2.530
 7846TIP3    H123502   6.187   2.660   2.462
 7846TIP3    H223503   6.189   2.683   2.612
 7847TIP3   OH223504   0.201   3.224   0.738
 7847TIP3    H123505   0.193   3.130   0.749
 7847TIP3    H223506   0.172   3.261   0.822
 7848TIP3   OH223507   4.077   5.639   2.601
 7848TIP3    H123508   4.163   5.598   2.585
 7848TIP3    H223509   4.086   5.728   2.566
 7849TIP3   OH223510   4.437   6.606   2.181
 7849TIP3    H123511   4.490   6.670   2.134
 7849TIP3    H223512   4.501   6.544   2.216
 7850TIP3   OH223513   6.031   5.918   3.323
 7850TIP3    H123514   6.066   6.007   3.314
 7850TIP3    H223515   6.007   5.911   3.415
 7851TIP3   OH223516   4.100   3.099   5.158
 7851TIP3    H123517   4.153   3.154   5.216
 7851TIP3    H223518   4.122   3.129   5.070
 7852TIP3   OH223519   2.828   4.187   2.342
 7852TIP3    H123520   2.802   4.278   2.353
 7852TIP3    H223521   2.761   4.137   2.390
 7853TIP3   OH223522   2.473   3.985   3.582
 7853TIP3    H123523   2.411   4.058   3.579
 7853TIP3    H223524   2.527   3.996   3.504
 7854TIP3   OH223525   4.947   0.801   4.728
 7854TIP3    H123526   4.885   0.829   4.661
 7854TIP3    H223527   4.957   0.707   4.714
 7855TIP3   OH223528   4.788   4.222   5.417
 7855TIP3    H123529   4.700   4.254   5.434
 7855TIP3    H223530   4.786   4.130   5.444
 7856TIP3   OH223531   1.042   6.260   5.774
 7856TIP3    H123532   0.955   6.289   5.803
 7856TIP3    H223533   1.096   6.339   5.778
 7857TIP3   OH223534   4.141   2.600   0.572
 7857TIP3    H123535   4.082   2.524   0.569
 7857TIP3    H223536   4.149   2.628   0.481
 7858TIP3   OH223537   2.840   1.284   1.599
 7858TIP3    H123538   2.807   1.197   1.621
 7858TIP3    H223539   2.913   1.267   1.539
 7859TIP3   OH223540   3.621   3.629   2.216
 7859TIP3    H123541   3.654   3.594   2.299
 7859TIP3    H223542   3.528   3.644   2.233
 7860TIP3   OH223543   0.739   3.891   1.844
 7860TIP3    H123544   0.787   3.930   1.917
 7860TIP3    H223545   0.671   3.838   1.886
 7861TIP3   OH223546   4.971   6.227   2.751
 7861TIP3    H123547   5.057   6.231   2.792
 7861TIP3    H223548   4.917   6.179   2.814
 7862TIP3   OH223549   3.851   6.169   1.808
 7862TIP3    H123550   3.869   6.086   1.853
 7862TIP3    H223551   3.804   6.143   1.729
 7863TIP3   OH223552   3.711   2.064   3.171
 7863TIP3    H123553   3.802   2.044   3.194
 7863TIP3    H223554   3.695   2.012   3.092
 7864TIP3   OH223555   5.918   0.567   0.907
 7864TIP3    H123556   5.951   0.521   0.984
 7864TIP3    H223557   5.825   0.543   0.903
 7865TIP3   OH223558   1.138   2.559   0.373
 7865TIP3    H123559   1.063   2.525   0.421
 7865TIP3    H223560   1.102   2.590   0.290
 7866TIP3   OH223561   0.836   3.943   0.309
 7866TIP3    H123562   0.909   3.900   0.353
 7866TIP3    H223563   0.785   3.982   0.379
 7867TIP3   OH223564   1.690   6.095   1.585
 7867TIP3    H123565   1.766   6.081   1.529
 7867TIP3    H223566   1.708   6.043   1.663
 7868TIP3   OH223567   3.508   4.607   3.801
 7868TIP3    H123568   3.420   4.590   3.834
 7868TIP3    H223569   3.508   4.571   3.713
 7869TIP3   OH223570   3.487   4.138   5.221
 7869TIP3    H123571   3.508   4.153   5.128
 7869TIP3    H223572   3.520   4.050   5.238
 7870TIP3   OH223573   6.312   4.901   2.937
 7870TIP3    H123574   6.339   4.979   2.985
 7870TIP3    H223575   6.394   4.856   2.915
 7871TIP3   OH223576   2.485   5.205   1.869
 7871TIP3    H123577   2.578   5.186   1.855
 7871TIP3    H223578   2.462   5.156   1.948
 7872TIP3   OH223579   4.015   5.352   2.862
 7872TIP3    H123580   4.074   5.296   2.811
 7872TIP3    H223581   3.945   5.375   2.800
 7873TIP3   OH223582   2.185   1.764   3.912
 7873TIP3    H123583   2.123   1.835   3.931
 7873TIP3    H223584   2.270   1.801   3.935
 7874TIP3   OH223585   2.388   1.526   0.866
 7874TIP3    H123586   2.417   1.533   0.957
 7874TIP3    H223587   2.431   1.447   0.833
 7875TIP3   OH223588   0.417   5.201   2.579
 7875TIP3    H123589   0.330   5.160   2.583
 7875TIP3    H223590   0.477   5.128   2.567
 7876TIP3   OH223591   6.018   2.785   4.274
 7876TIP3    H123592   6.040   2.852   4.209
 7876TIP3    H223593   6.076   2.712   4.253
 7877TIP3   OH223594   5.581   0.979   0.213
 7877TIP3    H123595   5.516   0.919   0.249
 7877TIP3    H223596   5.659   0.967   0.267
 7878TIP3   OH223597   6.364   0.568   1.856
 7878TIP3    H123598   6.435   0.575   1.920
 7878TIP3    H223599   6.291   0.616   1.897
 7879TIP3   OH223600   3.033   2.342   3.764
 7879TIP3    H123601   3.075   2.267   3.807
 7879TIP3    H223602   2.983   2.384   3.834
 7880TIP3   OH223603   3.674   1.992   0.087
 7880TIP3    H123604   3.699   1.992   0.179
 7880TIP3    H223605   3.733   1.928   0.047
 7881TIP3   OH223606   4.185   4.340   2.179
 7881TIP3    H123607   4.121   4.404   2.210
 7881TIP3    H223608   4.211   4.372   2.092
 7882TIP3   OH223609   6.107   3.857   3.648
 7882TIP3    H123610   6.079   3.948   3.648
 7882TIP3    H223611   6.055   3.816   3.717
 7883TIP3   OH223612   2.649   4.796   0.229
 7883TIP3    H123613   2.659   4.716   0.281
 7883TIP3    H223614   2.562   4.787   0.188
 7884TIP3   OH223615   5.289   1.740   1.671
 7884TIP3    H123616   5.268   1.647   1.684
 7884TIP3    H223617   5.292   1.776   1.760
 7885TIP3   OH223618   3.118   0.568   3.631
 7885TIP3    H123619   3.024   0.549   3.640
 7885TIP3    H223620   3.130   0.580   3.537
 7886TIP3   OH223621   1.173   5.941   2.571
 7886TIP3    H123622   1.205   5.941   2.662
 7886TIP3    H223623   1.198   6.027   2.537
 7887TIP3   OH223624   3.911   2.935   0.724
 7887TIP3    H123625   3.953   2.967   0.803
 7887TIP3    H223626   3.838   2.996   0.709
 7888TIP3   OH223627   4.864   6.369   3.128
 7888TIP3    H123628   4.873   6.342   3.220
 7888TIP3    H223629   4.772   6.352   3.107
 7889TIP3   OH223630   2.650   4.335   1.395
 7889TIP3    H123631   2.561   4.302   1.392
 7889TIP3    H223632   2.671   4.341   1.488
 7890TIP3   OH223633   3.236   2.290   2.011
 7890TIP3    H123634   3.310   2.338   1.975
 7890TIP3    H223635   3.200   2.243   1.936
 7891TIP3   OH223636   0.417   3.037   2.674
 7891TIP3    H123637   0.322   3.032   2.667
 7891TIP3    H223638   0.443   3.095   2.602
 7892TIP3   OH223639   5.509   0.814   2.727
 7892TIP3    H123640   5.463   0.887   2.686
 7892TIP3    H223641   5.504   0.743   2.662
 7893TIP3   OH223642   0.209   2.799   1.442
 7893TIP3    H123643   0.283   2.857   1.461
 7893TIP3    H223644   0.162   2.792   1.524
 7894TIP3   OH223645   6.490   2.745   2.492
 7894TIP3    H123646   6.544   2.803   2.437
 7894TIP3    H223647   6.405   2.742   2.448
 7895TIP3   OH223648   3.365   3.306   1.854
 7895TIP3    H123649   3.316   3.232   1.892
 7895TIP3    H223650   3.398   3.272   1.771
 7896TIP3   OH223651   1.464   0.941   4.369
 7896TIP3    H123652   1.458   1.013   4.432
 7896TIP3    H223653   1.553   0.948   4.334
 7897TIP3   OH223654   0.195   5.905   5.825
 7897TIP3    H123655   0.135   5.831   5.815
 7897TIP3    H223656   0.152   5.977   5.780
 7898TIP3   OH223657   2.464   6.094   5.409
 7898TIP3    H123658   2.466   6.188   5.424
 7898TIP3    H223659   2.377   6.077   5.373
 7899TIP3   OH223660   5.751   0.783   4.089
 7899TIP3    H123661   5.811   0.849   4.124
 7899TIP3    H223662   5.800   0.740   4.019
 7900TIP3   OH223663   1.762   6.152   4.527
 7900TIP3    H123664   1.711   6.222   4.485
 7900TIP3    H223665   1.835   6.136   4.466
 7901TIP3   OH223666   1.072   2.933   2.561
 7901TIP3    H123667   1.152   2.985   2.555
 7901TIP3    H223668   1.003   2.990   2.526
 7902TIP3   OH223669   0.756   5.736   1.837
 7902TIP3    H123670   0.729   5.664   1.780
 7902TIP3    H223671   0.728   5.815   1.791
 7903TIP3   OH223672   2.470   2.103   1.196
 7903TIP3    H123673   2.515   2.132   1.117
 7903TIP3    H223674   2.384   2.145   1.191
 7904TIP3   OH223675   0.798   0.436   4.923
 7904TIP3    H123676   0.802   0.527   4.952
 7904TIP3    H223677   0.851   0.388   4.987
 7905TIP3   OH223678   4.719   5.158   5.636
 7905TIP3    H123679   4.637   5.156   5.587
 7905TIP3    H223680   4.786   5.175   5.569
 7906TIP3   OH223681   4.359   1.670   5.402
 7906TIP3    H123682   4.276   1.708   5.373
 7906TIP3    H223683   4.380   1.717   5.483
 7907TIP3   OH223684   6.424   3.155   3.256
 7907TIP3    H123685   6.464   3.228   3.208
 7907TIP3    H223686   6.347   3.193   3.298
 7908TIP3   OH223687   6.589   1.572   2.600
 7908TIP3    H123688   6.562   1.584   2.691
 7908TIP3    H223689   6.601   1.478   2.589
 7909TIP3   OH223690   2.852   0.553   0.249
 7909TIP3    H123691   2.819   0.503   0.174
 7909TIP3    H223692   2.947   0.551   0.239
 7910TIP3   OH223693   4.467   1.598   3.801
 7910TIP3    H123694   4.456   1.594   3.896
 7910TIP3    H223695   4.557   1.632   3.789
 7911TIP3   OH223696   3.861   2.176   0.869
 7911TIP3    H123697   3.928   2.209   0.929
 7911TIP3    H223698   3.910   2.121   0.807
 7912TIP3   OH223699   3.067   2.994   3.728
 7912TIP3    H123700   3.118   2.994   3.809
 7912TIP3    H223701   3.116   3.050   3.668
 7913TIP3   OH223702   6.386   2.613   1.121
 7913TIP3    H123703   6.353   2.524   1.129
 7913TIP3    H223704   6.332   2.664   1.182
 7914TIP3   OH223705   2.489   4.969   4.191
 7914TIP3    H123706   2.443   5.030   4.133
 7914TIP3    H223707   2.556   5.023   4.233
 7915TIP3   OH223708   0.562   2.271   5.169
 7915TIP3    H123709   0.620   2.223   5.110
 7915TIP3    H223710   0.498   2.311   5.111
 7916TIP3   OH223711   3.529   3.067   5.251
 7916TIP3    H123712   3.596   3.067   5.320
 7916TIP3    H223713   3.548   3.145   5.199
 7917TIP3   OH223714   4.556   6.295   5.499
 7917TIP3    H123715   4.474   6.263   5.462
 7917TIP3    H223716   4.535   6.382   5.533
 7918TIP3   OH223717   5.297   5.977   0.775
 7918TIP3    H123718   5.207   5.945   0.786
 7918TIP3    H223719   5.342   5.905   0.731
 7919TIP3   OH223720   2.010   2.089   4.676
 7919TIP3    H123721   2.016   2.020   4.743
 7919TIP3    H223722   1.951   2.052   4.610
 7920TIP3   OH223723   1.637   5.210   3.640
 7920TIP3    H123724   1.630   5.298   3.677
 7920TIP3    H223725   1.549   5.191   3.606
 7921TIP3   OH223726   5.975   6.434   0.488
 7921TIP3    H123727   5.929   6.517   0.501
 7921TIP3    H223728   5.907   6.372   0.463
 7922TIP3   OH223729   1.577   1.300   2.817
 7922TIP3    H123730   1.494   1.309   2.865
 7922TIP3    H223731   1.591   1.205   2.814
 7923TIP3   OH223732   7.087   3.023   1.027
 7923TIP3    H123733   7.032   3.033   1.105
 7923TIP3    H223734   7.079   2.930   1.004
 7924TIP3   OH223735   5.299   1.435   1.648
 7924TIP3    H123736   5.262   1.404   1.565
 7924TIP3    H223737   5.222   1.451   1.704
 7925TIP3   OH223738   6.917   6.636   3.970
 7925TIP3    H123739   6.957   6.552   3.994
 7925TIP3    H223740   6.886   6.623   3.880
 7926TIP3   OH223741   3.227   5.769   3.005
 7926TIP3    H123742   3.302   5.817   3.040
 7926TIP3    H223743   3.264   5.688   2.969
 7927TIP3   OH223744   0.835   6.342   4.817
 7927TIP3    H123745   0.762   6.369   4.762
 7927TIP3    H223746   0.818   6.250   4.838
 7928TIP3   OH223747   5.493   0.809   1.504
 7928TIP3    H123748   5.458   0.898   1.507
 7928TIP3    H223749   5.428   0.760   1.454
 7929TIP3   OH223750   2.493   1.841   5.354
 7929TIP3    H123751   2.586   1.856   5.342
 7929TIP3    H223752   2.463   1.916   5.405
 7930TIP3   OH223753   4.088   3.664   2.332
 7930TIP3    H123754   4.002   3.696   2.305
 7930TIP3    H223755   4.070   3.597   2.398
 7931TIP3   OH223756   1.637   4.905   4.361
 7931TIP3    H123757   1.585   4.828   4.384
 7931TIP3    H223758   1.666   4.941   4.445
 7932TIP3   OH223759   4.618   6.350   2.753
 7932TIP3    H123760   4.635   6.368   2.845
 7932TIP3    H223761   4.672   6.413   2.706
 7933TIP3   OH223762   6.001   6.224   3.594
 7933TIP3    H123763   5.950   6.143   3.592
 7933TIP3    H223764   6.087   6.199   3.560
 7934TIP3   OH223765   4.056   4.078   3.736
 7934TIP3    H123766   4.026   4.152   3.684
 7934TIP3    H223767   4.069   4.114   3.824
 7935TIP3   OH223768   3.960   4.739   5.320
 7935TIP3    H123769   3.904   4.679   5.271
 7935TIP3    H223770   3.963   4.818   5.268
 7936TIP3   OH223771   3.399   3.233   0.660
 7936TIP3    H123772   3.320   3.258   0.612
 7936TIP3    H223773   3.376   3.150   0.703
 7937TIP3   OH223774   7.143   5.779   4.308
 7937TIP3    H123775   7.081   5.766   4.380
 7937TIP3    H223776   7.088   5.795   4.232
 7938TIP3   OH223777   4.524   3.756   3.396
 7938TIP3    H123778   4.432   3.758   3.370
 7938TIP3    H223779   4.522   3.741   3.490
 7939TIP3   OH223780   2.897   4.430   4.419
 7939TIP3    H123781   2.878   4.372   4.345
 7939TIP3    H223782   2.812   4.447   4.458
 7940TIP3   OH223783   0.130   1.296   5.504
 7940TIP3    H123784   0.180   1.266   5.428
 7940TIP3    H223785   0.175   1.259   5.579
 7941TIP3   OH223786   6.949   1.476   4.749
 7941TIP3    H123787   6.952   1.456   4.655
 7941TIP3    H223788   6.978   1.567   4.755
 7942TIP3   OH223789   6.788   5.834   3.120
 7942TIP3    H123790   6.795   5.926   3.145
 7942TIP3    H223791   6.694   5.818   3.113
 7943TIP3   OH223792   4.470   6.349   4.549
 7943TIP3    H123793   4.377   6.345   4.524
 7943TIP3    H223794   4.495   6.258   4.563
 7944TIP3   OH223795   1.241   4.620   3.104
 7944TIP3    H123796   1.177   4.690   3.097
 7944TIP3    H223797   1.194   4.541   3.076
 7945TIP3   OH223798   3.731   2.980   1.186
 7945TIP3    H123799   3.660   2.966   1.123
 7945TIP3    H223800   3.745   2.894   1.226
 7946TIP3   OH223801   2.463   0.826   4.714
 7946TIP3    H123802   2.437   0.906   4.668
 7946TIP3    H223803   2.544   0.799   4.671
 7947TIP3   OH223804   2.387   4.056   2.998
 7947TIP3    H123805   2.466   4.086   2.954
 7947TIP3    H223806   2.414   4.043   3.089
 7948TIP3   OH223807   0.385   5.124   3.362
 7948TIP3    H123808   0.376   5.201   3.305
 7948TIP3    H223809   0.300   5.080   3.356
 7949TIP3   OH223810   3.653   1.314   1.415
 7949TIP3    H123811   3.619   1.390   1.462
 7949TIP3    H223812   3.694   1.350   1.337
 7950TIP3   OH223813   5.601   4.821   0.118
 7950TIP3    H123814   5.591   4.871   0.037
 7950TIP3    H223815   5.512   4.814   0.153
 7951TIP3   OH223816   3.459   2.264   4.019
 7951TIP3    H123817   3.507   2.191   3.981
 7951TIP3    H223818   3.494   2.341   3.974
 7952TIP3   OH223819   5.851   4.739   0.219
 7952TIP3    H123820   5.797   4.814   0.194
 7952TIP3    H223821   5.791   4.681   0.267
 7953TIP3   OH223822   2.750   0.822   2.291
 7953TIP3    H123823   2.672   0.843   2.239
 7953TIP3    H223824   2.812   0.786   2.228
 7954TIP3   OH223825   6.144   6.467   4.881
 7954TIP3    H123826   6.113   6.383   4.846
 7954TIP3    H223827   6.196   6.505   4.811
 7955TIP3   OH223828   5.351   1.262   0.573
 7955TIP3    H123829   5.308   1.231   0.493
 7955TIP3    H223830   5.357   1.357   0.562
 7956TIP3   OH223831   5.187   5.759   1.277
 7956TIP3    H123832   5.190   5.664   1.277
 7956TIP3    H223833   5.170   5.783   1.186
 7957TIP3   OH223834   5.624   5.103   4.676
 7957TIP3    H123835   5.715   5.104   4.647
 7957TIP3    H223836   5.599   5.011   4.677
 7958TIP3   OH223837   6.652   6.523   3.041
 7958TIP3    H123838   6.685   6.433   3.038
 7958TIP3    H223839   6.710   6.571   2.981
 7959TIP3   OH223840   4.115   3.304   0.244
 7959TIP3    H123841   4.161   3.240   0.298
 7959TIP3    H223842   4.173   3.381   0.242
 7960TIP3   OH223843   1.493   4.630   4.995
 7960TIP3    H123844   1.468   4.540   4.975
 7960TIP3    H223845   1.411   4.680   4.988
 7961TIP3   OH223846   5.109   1.294   4.255
 7961TIP3    H123847   5.029   1.307   4.205
 7961TIP3    H223848   5.086   1.229   4.322
 7962TIP3   OH223849   4.802   4.084   0.450
 7962TIP3    H123850   4.792   4.066   0.357
 7962TIP3    H223851   4.713   4.080   0.485
 7963TIP3   OH223852   5.743   3.863   3.477
 7963TIP3    H123853   5.762   3.772   3.499
 7963TIP3    H223854   5.826   3.899   3.447
 7964TIP3   OH223855   6.065   2.323   3.213
 7964TIP3    H123856   6.009   2.320   3.135
 7964TIP3    H223857   6.068   2.416   3.236
 7965TIP3   OH223858   7.092   0.248   0.914
 7965TIP3    H123859   7.059   0.187   0.848
 7965TIP3    H223860   7.167   0.202   0.953
 7966TIP3   OH223861   4.431   6.789   2.731
 7966TIP3    H123862   4.459   6.737   2.806
 7966TIP3    H223863   4.504   6.783   2.669
 7967TIP3   OH223864   2.056   2.618   4.320
 7967TIP3    H123865   2.041   2.607   4.226
 7967TIP3    H223866   1.985   2.675   4.349
 7968TIP3   OH223867   5.240   5.031   5.189
 7968TIP3    H123868   5.250   5.093   5.261
 7968TIP3    H223869   5.170   4.972   5.218
 7969TIP3   OH223870   1.890   4.385   0.689
 7969TIP3    H123871   1.938   4.319   0.739
 7969TIP3    H223872   1.863   4.339   0.609
 7970TIP3   OH223873   5.855   4.813   1.589
 7970TIP3    H123874   5.920   4.829   1.658
 7970TIP3    H223875   5.849   4.718   1.584
 7971TIP3   OH223876   2.699   5.086   3.864
 7971TIP3    H123877   2.723   5.138   3.941
 7971TIP3    H223878   2.608   5.111   3.846
 7972TIP3   OH223879   1.151   4.381   3.029
 7972TIP3    H123880   1.115   4.388   2.940
 7972TIP3    H223881   1.176   4.289   3.037
 7973TIP3   OH223882   5.118   1.072   5.034
 7973TIP3    H123883   5.135   1.037   4.947
 7973TIP3    H223884   5.055   1.143   5.020
 7974TIP3   OH223885   6.367   0.603   1.066
 7974TIP3    H123886   6.379   0.576   0.975
 7974TIP3    H223887   6.319   0.530   1.106
 7975TIP3   OH223888   7.126   5.821   3.901
 7975TIP3    H123889   7.170   5.891   3.949
 7975TIP3    H223890   7.125   5.851   3.810
 7976TIP3   OH223891   4.936   1.475   5.710
 7976TIP3    H123892   4.864   1.418   5.682
 7976TIP3    H223893   4.893   1.548   5.754
 7977TIP3   OH223894   3.280   0.138   5.161
 7977TIP3    H123895   3.314   0.098   5.241
 7977TIP3    H223896   3.313   0.083   5.090
 7978TIP3   OH223897   4.050   1.022   2.356
 7978TIP3    H123898   4.062   0.928   2.373
 7978TIP3    H223899   4.001   1.026   2.275
 7979TIP3   OH223900   1.995   0.623   2.813
 7979TIP3    H123901   1.928   0.641   2.746
 7979TIP3    H223902   2.054   0.560   2.772
 7980TIP3   OH223903   2.519   5.785   1.408
 7980TIP3    H123904   2.567   5.794   1.325
 7980TIP3    H223905   2.529   5.693   1.431
 7981TIP3   OH223906   7.202   4.928   4.468
 7981TIP3    H123907   7.250   4.861   4.419
 7981TIP3    H223908   7.119   4.938   4.421
 7982TIP3   OH223909   1.358   0.753   2.938
 7982TIP3    H123910   1.433   0.709   2.899
 7982TIP3    H223911   1.295   0.760   2.866
 7983TIP3   OH223912   4.745   2.986   4.026
 7983TIP3    H123913   4.742   2.976   4.121
 7983TIP3    H223914   4.740   3.081   4.012
 7984TIP3   OH223915   5.323   3.736   0.665
 7984TIP3    H123916   5.312   3.657   0.613
 7984TIP3    H223917   5.250   3.792   0.641
 7985TIP3   OH223918   4.867   3.710   2.213
 7985TIP3    H123919   4.845   3.683   2.124
 7985TIP3    H223920   4.951   3.668   2.231
 7986TIP3   OH223921   1.547   2.253   1.539
 7986TIP3    H123922   1.487   2.327   1.537
 7986TIP3    H223923   1.602   2.269   1.615
 7987TIP3   OH223924   2.926   5.902   1.483
 7987TIP3    H123925   2.976   5.945   1.553
 7987TIP3    H223926   2.839   5.942   1.489
 7988TIP3   OH223927   0.816   5.980   5.613
 7988TIP3    H123928   0.771   5.953   5.693
 7988TIP3    H223929   0.747   5.978   5.546
 7989TIP3   OH223930   4.398   6.209   2.731
 7989TIP3    H123931   4.474   6.266   2.721
 7989TIP3    H223932   4.342   6.230   2.657
 7990TIP3   OH223933   1.104   0.373   2.647
 7990TIP3    H123934   1.192   0.408   2.635
 7990TIP3    H223935   1.111   0.281   2.620
 7991TIP3   OH223936   1.640   0.893   3.435
 7991TIP3    H123937   1.660   0.809   3.476
 7991TIP3    H223938   1.708   0.903   3.367
 7992TIP3   OH223939   4.438   1.400   2.002
 7992TIP3    H123940   4.449   1.416   1.908
 7992TIP3    H223941   4.525   1.413   2.039
 7993TIP3   OH223942   4.974   5.771   3.342
 7993TIP3    H123943   5.061   5.750   3.375
 7993TIP3    H223944   4.975   5.740   3.251
 7994TIP3   OH223945   0.613   1.943   0.428
 7994TIP3    H123946   0.614   2.031   0.391
 7994TIP3    H223947   0.674   1.947   0.501
 7995TIP3   OH223948   0.351   3.573   3.705
 7995TIP3    H123949   0.403   3.649   3.679
 7995TIP3    H223950   0.403   3.498   3.677
 7996TIP3   OH223951   5.455   3.834   3.434
 7996TIP3    H123952   5.546   3.808   3.449
 7996TIP3    H223953   5.454   3.870   3.346
 7997TIP3   OH223954   1.236   3.670   1.698
 7997TIP3    H123955   1.304   3.731   1.668
 7997TIP3    H223956   1.165   3.727   1.729
 7998TIP3   OH223957   3.876   1.045   3.526
 7998TIP3    H123958   3.885   0.990   3.448
 7998TIP3    H223959   3.782   1.062   3.533
 7999TIP3   OH223960   6.693   3.424   4.988
 7999TIP3    H123961   6.691   3.457   5.078
 7999TIP3    H223962   6.609   3.381   4.975
 8000TIP3   OH223963   2.439   1.914   1.013
 8000TIP3    H123964   2.357   1.877   0.980
 8000TIP3    H223965   2.413   1.968   1.088
 8001TIP3   OH223966   5.646   3.128   0.495
 8001TIP3    H123967   5.665   3.075   0.417
 8001TIP3    H223968   5.732   3.163   0.521
 8002TIP3   OH223969   5.853   6.794   3.485
 8002TIP3    H123970   5.800   6.766   3.559
 8002TIP3    H223971   5.918   6.724   3.474
 8003TIP3   OH223972   5.358   5.700   1.919
 8003TIP3    H123973   5.373   5.792   1.895
 8003TIP3    H223974   5.306   5.665   1.847
 8004TIP3   OH223975   4.286   4.766   3.326
 8004TIP3    H123976   4.262   4.732   3.413
 8004TIP3    H223977   4.368   4.722   3.305
 8005TIP3   OH223978   1.942   1.516   3.918
 8005TIP3    H123979   1.993   1.542   3.842
 8005TIP3    H223980   1.941   1.420   3.914
 8006TIP3   OH223981   3.395   5.562   2.876
 8006TIP3    H123982   3.468   5.549   2.816
 8006TIP3    H223983   3.348   5.479   2.875
 8007TIP3   OH223984   3.310   0.911   1.589
 8007TIP3    H123985   3.325   1.005   1.576
 8007TIP3    H223986   3.276   0.880   1.505
 8008TIP3   OH223987   2.675   2.132   3.725
 8008TIP3    H123988   2.687   2.223   3.697
 8008TIP3    H223989   2.629   2.138   3.809
 8009TIP3   OH223990   3.683   1.145   2.507
 8009TIP3    H123991   3.616   1.174   2.569
 8009TIP3    H223992   3.738   1.221   2.492
 8010TIP3   OH223993   6.808   5.917   4.612
 8010TIP3    H123994   6.770   5.982   4.552
 8010TIP3    H223995   6.861   5.969   4.672
 8011TIP3   OH223996   0.831   1.580   2.775
 8011TIP3    H123997   0.884   1.659   2.790
 8011TIP3    H223998   0.741   1.609   2.790
 8012TIP3   OH223999   4.819   4.702   1.849
 8012TIP3    H124000   4.727   4.726   1.832
 8012TIP3    H224001   4.864   4.786   1.860
 8013TIP3   OH224002   4.597   3.058   0.835
 8013TIP3    H124003   4.672   3.104   0.797
 8013TIP3    H224004   4.637   3.000   0.901
 8014TIP3   OH224005   7.188   6.582   5.739
 8014TIP3    H124006   7.147   6.520   5.800
 8014TIP3    H224007   7.122   6.596   5.672
 8015TIP3   OH224008   0.427   2.807   1.778
 8015TIP3    H124009   0.410   2.872   1.710
 8015TIP3    H224010   0.366   2.830   1.848
 8016TIP3   OH224011   0.280   4.803   2.121
 8016TIP3    H124012   0.271   4.894   2.149
 8016TIP3    H224013   0.363   4.800   2.073
 8017TIP3   OH224014   3.143   3.436   3.794
 8017TIP3    H124015   3.072   3.410   3.853
 8017TIP3    H224016   3.223   3.403   3.836
 8018TIP3   OH224017   4.402   6.081   2.360
 8018TIP3    H124018   4.374   6.168   2.390
 8018TIP3    H224019   4.498   6.084   2.365
 8019TIP3   OH224020   3.315   3.580   4.734
 8019TIP3    H124021   3.364   3.512   4.687
 8019TIP3    H224022   3.351   3.577   4.823
 8020TIP3   OH224023   5.080   6.507   3.030
 8020TIP3    H124024   5.147   6.515   3.098
 8020TIP3    H224025   5.002   6.479   3.078
 8021TIP3   OH224026   5.619   5.394   3.577
 8021TIP3    H124027   5.714   5.407   3.565
 8021TIP3    H224028   5.583   5.397   3.488
 8022TIP3   OH224029   2.765   2.854   4.208
 8022TIP3    H124030   2.718   2.780   4.169
 8022TIP3    H224031   2.713   2.877   4.285
 8023TIP3   OH224032   2.151   4.974   0.764
 8023TIP3    H124033   2.158   5.022   0.681
 8023TIP3    H224034   2.079   5.016   0.810
 8024TIP3   OH224035   4.997   4.078   5.228
 8024TIP3    H124036   5.028   4.168   5.240
 8024TIP3    H224037   4.967   4.050   5.314
 8025TIP3   OH224038   5.350   6.660   0.843
 8025TIP3    H124039   5.362   6.664   0.748
 8025TIP3    H224040   5.412   6.723   0.878
 8026TIP3   OH224041   4.848   0.769   4.995
 8026TIP3    H124042   4.886   0.778   4.908
 8026TIP3    H224043   4.765   0.723   4.981
 8027TIP3   OH224044   3.714   3.853   1.922
 8027TIP3    H124045   3.747   3.789   1.986
 8027TIP3    H224046   3.786   3.862   1.859
 8028TIP3   OH224047   0.603   6.368   5.621
 8028TIP3    H124048   0.665   6.350   5.550
 8028TIP3    H224049   0.542   6.294   5.618
 8029TIP3   OH224050   2.954   6.046   5.894
 8029TIP3    H124051   3.035   6.002   5.919
 8029TIP3    H224052   2.948   6.035   5.800
 8030TIP3   OH224053   1.645   2.454   5.724
 8030TIP3    H124054   1.703   2.399   5.776
 8030TIP3    H224055   1.631   2.532   5.778
 8031TIP3   OH224056   5.864   1.512   4.629
 8031TIP3    H124057   5.800   1.545   4.692
 8031TIP3    H224058   5.909   1.441   4.674
 8032TIP3   OH224059   0.069   6.347   2.481
 8032TIP3    H124060   0.160   6.370   2.463
 8032TIP3    H224061   0.043   6.405   2.553
 8033TIP3   OH224062   6.011   4.064   0.967
 8033TIP3    H124063   6.102   4.095   0.964
 8033TIP3    H224064   5.959   4.143   0.979
 8034TIP3   OH224065   1.530   6.186   4.004
 8034TIP3    H124066   1.565   6.165   3.917
 8034TIP3    H224067   1.560   6.276   4.020
 8035TIP3   OH224068   5.016   1.165   4.733
 8035TIP3    H124069   4.954   1.127   4.671
 8035TIP3    H224070   5.095   1.181   4.681
 8036TIP3   OH224071   5.379   4.745   1.112
 8036TIP3    H124072   5.405   4.655   1.094
 8036TIP3    H224073   5.397   4.757   1.206
 8037TIP3   OH224074   6.852   4.427   2.822
 8037TIP3    H124075   6.773   4.374   2.810
 8037TIP3    H224076   6.859   4.439   2.917
 8038TIP3   OH224077   6.896   4.615   1.057
 8038TIP3    H124078   6.867   4.568   1.135
 8038TIP3    H224079   6.944   4.691   1.091
 8039TIP3   OH224080   4.716   3.990   3.498
 8039TIP3    H124081   4.711   3.962   3.407
 8039TIP3    H224082   4.810   3.987   3.519
 8040TIP3   OH224083   1.577   3.305   5.497
 8040TIP3    H124084   1.639   3.233   5.486
 8040TIP3    H224085   1.491   3.262   5.498
 8041TIP3   OH224086   3.774   1.799   0.708
 8041TIP3    H124087   3.798   1.708   0.693
 8041TIP3    H224088   3.764   1.836   0.620
 8042TIP3   OH224089   6.691   5.951   2.164
 8042TIP3    H124090   6.605   5.912   2.149
 8042TIP3    H224091   6.713   5.926   2.254
 8043TIP3   OH224092   4.130   2.602   1.518
 8043TIP3    H124093   4.150   2.690   1.484
 8043TIP3    H224094   4.189   2.592   1.593
 8044TIP3   OH224095   4.837   1.637   1.832
 8044TIP3    H124096   4.870   1.725   1.848
 8044TIP3    H224097   4.766   1.627   1.895
 8045TIP3   OH224098   0.140   5.162   2.521
 8045TIP3    H124099   0.087   5.241   2.528
 8045TIP3    H224100   0.079   5.090   2.540
 8046TIP3   OH224101   2.166   1.106   1.441
 8046TIP3    H124102   2.163   1.105   1.346
 8046TIP3    H224103   2.128   1.190   1.466
 8047TIP3   OH224104   2.619   1.119   5.534
 8047TIP3    H124105   2.647   1.158   5.617
 8047TIP3    H224106   2.697   1.073   5.502
 8048TIP3   OH224107   4.892   1.604   1.224
 8048TIP3    H124108   4.985   1.596   1.201
 8048TIP3    H224109   4.871   1.695   1.204
 8049TIP3   OH224110   4.798   5.487   4.429
 8049TIP3    H124111   4.715   5.533   4.413
 8049TIP3    H224112   4.826   5.518   4.515
 8050TIP3   OH224113   6.968   4.323   0.056
 8050TIP3    H124114   6.995   4.415   0.050
 8050TIP3    H224115   7.034   4.282   0.113
 8051TIP3   OH224116   1.025   1.119   1.359
 8051TIP3    H124117   1.066   1.066   1.427
 8051TIP3    H224118   1.024   1.208   1.396
 8052TIP3   OH224119   3.194   0.788   0.377
 8052TIP3    H124120   3.187   0.866   0.323
 8052TIP3    H224121   3.111   0.783   0.424
 8053TIP3   OH224122   4.165   0.380   0.179
 8053TIP3    H124123   4.210   0.465   0.184
 8053TIP3    H224124   4.228   0.322   0.137
 8054TIP3   OH224125   2.679   0.379   3.891
 8054TIP3    H124126   2.656   0.300   3.939
 8054TIP3    H224127   2.596   0.417   3.864
 8055TIP3   OH224128   3.572   0.165   5.415
 8055TIP3    H124129   3.571   0.084   5.364
 8055TIP3    H224130   3.482   0.196   5.413
 8056TIP3   OH224131   6.642   0.100   5.258
 8056TIP3    H124132   6.552   0.121   5.233
 8056TIP3    H224133   6.672   0.040   5.190
 8057TIP3   OH224134   6.396   1.788   0.565
 8057TIP3    H124135   6.441   1.711   0.601
 8057TIP3    H224136   6.464   1.834   0.515
 8058TIP3   OH224137   5.185   0.550   2.374
 8058TIP3    H124138   5.271   0.571   2.412
 8058TIP3    H224139   5.166   0.625   2.317
 8059TIP3   OH224140   6.752   5.395   0.376
 8059TIP3    H124141   6.670   5.416   0.420
 8059TIP3    H224142   6.811   5.367   0.446
 8060TIP3   OH224143   0.796   3.613   5.350
 8060TIP3    H124144   0.716   3.565   5.371
 8060TIP3    H224145   0.834   3.635   5.435
 8061TIP3   OH224146   6.950   2.476   4.156
 8061TIP3    H124147   7.044   2.463   4.166
 8061TIP3    H224148   6.912   2.389   4.164
 8062TIP3   OH224149   3.691   0.713   1.395
 8062TIP3    H124150   3.597   0.697   1.395
 8062TIP3    H224151   3.728   0.633   1.357
 8063TIP3   OH224152   3.157   3.417   1.084
 8063TIP3    H124153   3.243   3.427   1.042
 8063TIP3    H224154   3.171   3.450   1.173
 8064TIP3   OH224155   0.587   4.325   5.758
 8064TIP3    H124156   0.672   4.370   5.762
 8064TIP3    H224157   0.540   4.368   5.687
 8065TIP3   OH224158   1.552   6.408   2.357
 8065TIP3    H124159   1.458   6.390   2.347
 8065TIP3    H224160   1.595   6.337   2.308
 8066TIP3   OH224161   3.150   2.000   5.792
 8066TIP3    H124162   3.070   1.956   5.821
 8066TIP3    H224163   3.200   1.933   5.747
 8067TIP3   OH224164   1.011   0.582   4.085
 8067TIP3    H124165   0.942   0.566   4.020
 8067TIP3    H224166   0.971   0.559   4.169
 8068TIP3   OH224167   4.109   4.737   3.936
 8068TIP3    H124168   4.157   4.658   3.912
 8068TIP3    H224169   4.101   4.786   3.854
 8069TIP3   OH224170   2.821   3.819   0.889
 8069TIP3    H124171   2.780   3.736   0.863
 8069TIP3    H224172   2.853   3.802   0.978
 8070TIP3   OH224173   5.810   2.101   1.590
 8070TIP3    H124174   5.757   2.049   1.651
 8070TIP3    H224175   5.876   2.040   1.557
 8071TIP3   OH224176   6.787   1.736   2.524
 8071TIP3    H124177   6.720   1.669   2.528
 8071TIP3    H224178   6.830   1.732   2.609
 8072TIP3   OH224179   2.645   4.384   4.004
 8072TIP3    H124180   2.687   4.466   3.977
 8072TIP3    H224181   2.590   4.408   4.078
 8073TIP3   OH224182   1.615   2.013   4.515
 8073TIP3    H124183   1.538   1.959   4.495
 8073TIP3    H224184   1.582   2.103   4.516
 8074TIP3   OH224185   1.538   5.718   2.020
 8074TIP3    H124186   1.446   5.743   2.010
 8074TIP3    H224187   1.536   5.624   2.041
 8075TIP3   OH224188   4.928   1.274   4.976
 8075TIP3    H124189   4.853   1.215   4.986
 8075TIP3    H224190   4.964   1.252   4.890
 8076TIP3   OH224191   4.234   2.598   2.663
 8076TIP3    H124192   4.219   2.644   2.746
 8076TIP3    H224193   4.313   2.546   2.679
 8077TIP3   OH224194   6.311   5.072   3.682
 8077TIP3    H124195   6.325   5.092   3.775
 8077TIP3    H224196   6.232   5.018   3.681
 8078TIP3   OH224197   0.423  -0.024   4.687
 8078TIP3    H124198   0.451   0.067   4.698
 8078TIP3    H224199   0.387  -0.028   4.599
 8079TIP3   OH224200   0.575   4.701   4.918
 8079TIP3    H124201   0.608   4.660   4.998
 8079TIP3    H224202   0.529   4.631   4.872
 8080TIP3   OH224203   2.169   1.083   3.273
 8080TIP3    H124204   2.074   1.092   3.278
 8080TIP3    H224205   2.191   1.022   3.343
 8081TIP3   OH224206   1.417   1.823   1.679
 8081TIP3    H124207   1.453   1.739   1.651
 8081TIP3    H224208   1.422   1.821   1.775
 8082TIP3   OH224209   1.241   4.396   0.159
 8082TIP3    H124210   1.156   4.355   0.173
 8082TIP3    H224211   1.295   4.365   0.232
 8083TIP3   OH224212   1.221   5.317   5.675
 8083TIP3    H124213   1.154   5.281   5.617
 8083TIP3    H224214   1.176   5.330   5.758
 8084TIP3   OH224215   3.276   5.332   0.115
 8084TIP3    H124216   3.209   5.376   0.062
 8084TIP3    H224217   3.241   5.244   0.129
 8085TIP3   OH224218   3.953   4.385   2.732
 8085TIP3    H124219   3.947   4.387   2.636
 8085TIP3    H224220   3.874   4.430   2.762
 8086TIP3   OH224221   5.968   0.419   1.161
 8086TIP3    H124222   5.919   0.401   1.241
 8086TIP3    H224223   6.048   0.369   1.169
 8087TIP3   OH224224   6.322   4.198   5.345
 8087TIP3    H124225   6.307   4.178   5.253
 8087TIP3    H224226   6.251   4.258   5.368
 8088TIP3   OH224227   5.689   4.530   4.353
 8088TIP3    H124228   5.778   4.555   4.375
 8088TIP3    H224229   5.634   4.596   4.395
 8089TIP3   OH224230   5.623   4.017   3.916
 8089TIP3    H124231   5.660   4.055   3.836
 8089TIP3    H224232   5.529   4.033   3.909
 8090TIP3   OH224233   1.068   1.441   2.720
 8090TIP3    H124234   0.992   1.433   2.779
 8090TIP3    H224235   1.031   1.472   2.637
 8091TIP3   OH224236   0.057   3.197   1.348
 8091TIP3    H124237   0.127   3.238   1.297
 8091TIP3    H224238   0.091   3.193   1.437
 8092TIP3   OH224239   4.772   3.972   4.183
 8092TIP3    H124240   4.713   3.898   4.173
 8092TIP3    H224241   4.714   4.049   4.187
 8093TIP3   OH224242   0.432   1.113   2.096
 8093TIP3    H124243   0.488   1.079   2.027
 8093TIP3    H224244   0.403   1.199   2.065
 8094TIP3   OH224245   5.234   0.439   3.444
 8094TIP3    H124246   5.322   0.406   3.461
 8094TIP3    H224247   5.206   0.393   3.365
 8095TIP3   OH224248   3.579   0.595   1.683
 8095TIP3    H124249   3.526   0.612   1.605
 8095TIP3    H224250   3.516   0.562   1.747
 8096TIP3   OH224251   5.809   5.789   5.792
 8096TIP3    H124252   5.870   5.814   5.862
 8096TIP3    H224253   5.752   5.724   5.833
 8097TIP3   OH224254   4.039   5.393   0.673
 8097TIP3    H124255   4.067   5.365   0.585
 8097TIP3    H224256   4.026   5.311   0.721
 8098TIP3   OH224257   1.129   0.105   0.623
 8098TIP3    H124258   1.141   0.193   0.585
 8098TIP3    H224259   1.122   0.048   0.547
 8099TIP3   OH224260   0.322   5.769   1.118
 8099TIP3    H124261   0.248   5.816   1.158
 8099TIP3    H224262   0.400   5.809   1.156
 8100TIP3   OH224263   4.259   5.629   3.832
 8100TIP3    H124264   4.270   5.701   3.771
 8100TIP3    H224265   4.331   5.569   3.812
 8101TIP3   OH224266   5.262   5.521   3.262
 8101TIP3    H124267   5.228   5.568   3.185
 8101TIP3    H224268   5.189   5.519   3.323
 8102TIP3   OH224269   4.244   5.771   2.037
 8102TIP3    H124270   4.227   5.854   2.082
 8102TIP3    H224271   4.219   5.786   1.946
 8103TIP3   OH224272   5.247   0.009   4.158
 8103TIP3    H124273   5.204   0.090   4.131
 8103TIP3    H224274   5.175  -0.046   4.189
 8104TIP3   OH224275   4.409   0.599   0.632
 8104TIP3    H124276   4.395   0.652   0.710
 8104TIP3    H224277   4.417   0.663   0.561
 8105TIP3   OH224278   1.428   3.211   4.139
 8105TIP3    H124279   1.443   3.186   4.230
 8105TIP3    H224280   1.497   3.166   4.090
 8106TIP3   OH224281   3.361   2.171   5.124
 8106TIP3    H124282   3.380   2.214   5.040
 8106TIP3    H224283   3.297   2.103   5.103
 8107TIP3   OH224284   3.625   6.554   2.463
 8107TIP3    H124285   3.704   6.608   2.459
 8107TIP3    H224286   3.559   6.603   2.414
 8108TIP3   OH224287   7.065   2.441   1.475
 8108TIP3    H124288   7.037   2.450   1.566
 8108TIP3    H224289   7.160   2.449   1.478
 8109TIP3   OH224290   6.991   4.262   2.260
 8109TIP3    H124291   7.056   4.225   2.200
 8109TIP3    H224292   6.939   4.187   2.289
 8110TIP3   OH224293   3.880   4.402   4.010
 8110TIP3    H124294   3.973   4.418   4.022
 8110TIP3    H224295   3.873   4.306   4.003
 8111TIP3   OH224296   7.250   6.735   2.846
 8111TIP3    H124297   7.261   6.816   2.797
 8111TIP3    H224298   7.157   6.735   2.871
 8112TIP3   OH224299   2.954   3.739   4.901
 8112TIP3    H124300   3.007   3.659   4.906
 8112TIP3    H224301   2.898   3.735   4.978
 8113TIP3   OH224302   1.003   4.787   3.812
 8113TIP3    H124303   1.011   4.699   3.774
 8113TIP3    H224304   0.929   4.826   3.765
 8114TIP3   OH224305   4.852   0.389   4.475
 8114TIP3    H124306   4.857   0.448   4.400
 8114TIP3    H224307   4.807   0.440   4.542
 8115TIP3   OH224308   0.316   0.829   5.399
 8115TIP3    H124309   0.397   0.873   5.375
 8115TIP3    H224310   0.289   0.782   5.320
 8116TIP3   OH224311   1.785   1.444   0.460
 8116TIP3    H124312   1.858   1.501   0.435
 8116TIP3    H224313   1.824   1.357   0.468
 8117TIP3   OH224314   4.159   5.395   0.123
 8117TIP3    H124315   4.254   5.409   0.127
 8117TIP3    H224316   4.124   5.478   0.090
 8118TIP3   OH224317   6.568   4.743   1.808
 8118TIP3    H124318   6.512   4.688   1.863
 8118TIP3    H224319   6.571   4.827   1.854
 8119TIP3   OH224320   2.489   1.778   4.285
 8119TIP3    H124321   2.434   1.706   4.254
 8119TIP3    H224322   2.429   1.852   4.291
 8120TIP3   OH224323   1.455   5.457   4.583
 8120TIP3    H124324   1.438   5.430   4.493
 8120TIP3    H224325   1.432   5.381   4.636
 8121TIP3   OH224326   3.532   0.061   0.378
 8121TIP3    H124327   3.628   0.058   0.381
 8121TIP3    H224328   3.504  -0.025   0.409
 8122TIP3   OH224329   0.920   3.205   5.811
 8122TIP3    H124330   0.985   3.160   5.757
 8122TIP3    H224331   0.836   3.167   5.784
 8123TIP3   OH224332   0.366   5.582   4.297
 8123TIP3    H124333   0.361   5.506   4.239
 8123TIP3    H224334   0.406   5.549   4.377
 8124TIP3   OH224335   0.944   2.827   5.905
 8124TIP3    H124336   0.964   2.733   5.898
 8124TIP3    H224337   0.881   2.843   5.835
 8125TIP3   OH224338   1.224   0.796   0.834
 8125TIP3    H124339   1.260   0.790   0.923
 8125TIP3    H224340   1.224   0.890   0.814
 8126TIP3   OH224341   3.585   3.795   5.004
 8126TIP3    H124342   3.592   3.785   5.099
 8126TIP3    H224343   3.634   3.720   4.969
 8127TIP3   OH224344   4.554   3.979   1.866
 8127TIP3    H124345   4.517   3.893   1.842
 8127TIP3    H224346   4.523   3.994   1.955
 8128TIP3   OH224347   5.737   1.967   1.193
 8128TIP3    H124348   5.746   1.907   1.267
 8128TIP3    H224349   5.705   1.912   1.121
 8129TIP3   OH224350   0.276   5.522   0.551
 8129TIP3    H124351   0.281   5.488   0.462
 8129TIP3    H224352   0.249   5.447   0.604
 8130TIP3   OH224353   1.026   1.172   3.465
 8130TIP3    H124354   1.116   1.146   3.484
 8130TIP3    H224355   1.006   1.130   3.381
 8131TIP3   OH224356   4.835   3.690   3.858
 8131TIP3    H124357   4.810   3.782   3.852
 8131TIP3    H224358   4.848   3.663   3.767
 8132TIP3   OH224359   1.789   0.237   2.282
 8132TIP3    H124360   1.720   0.225   2.216
 8132TIP3    H224361   1.870   0.230   2.232
 8133TIP3   OH224362   1.912   4.209   2.877
 8133TIP3    H124363   1.870   4.220   2.962
 8133TIP3    H224364   1.974   4.137   2.890
 8134TIP3   OH224365   2.417   2.594   0.639
 8134TIP3    H124366   2.505   2.601   0.675
 8134TIP3    H224367   2.360   2.621   0.711
 8135TIP3   OH224368   1.422   4.816   4.082
 8135TIP3    H124369   1.436   4.737   4.134
 8135TIP3    H224370   1.372   4.786   4.006
 8136TIP3   OH224371   2.860   0.208   2.331
 8136TIP3    H124372   2.813   0.125   2.326
 8136TIP3    H224373   2.818   0.263   2.264
 8137TIP3   OH224374   1.795   3.877   5.734
 8137TIP3    H124375   1.837   3.810   5.681
 8137TIP3    H224376   1.708   3.844   5.751
 8138TIP3   OH224377   6.434   3.793   2.166
 8138TIP3    H124378   6.429   3.698   2.155
 8138TIP3    H224379   6.344   3.822   2.152
 8139TIP3   OH224380   2.756   6.008   2.620
 8139TIP3    H124381   2.719   6.024   2.707
 8139TIP3    H224382   2.843   5.973   2.638
 8140TIP3   OH224383   4.291  -0.015   5.455
 8140TIP3    H124384   4.343   0.055   5.418
 8140TIP3    H224385   4.207   0.025   5.476
 8141TIP3   OH224386   1.492   3.536   2.930
 8141TIP3    H124387   1.538   3.485   2.997
 8141TIP3    H224388   1.459   3.612   2.976
 8142TIP3   OH224389   2.558   1.806   5.713
 8142TIP3    H124390   2.484   1.815   5.773
 8142TIP3    H224391   2.571   1.712   5.703
 8143TIP3   OH224392   6.857   4.874   2.937
 8143TIP3    H124393   6.780   4.823   2.963
 8143TIP3    H224394   6.840   4.899   2.847
 8144TIP3   OH224395   2.804   2.580   2.146
 8144TIP3    H124396   2.891   2.547   2.169
 8144TIP3    H224397   2.764   2.509   2.097
 8145TIP3   OH224398   1.508   1.979   3.778
 8145TIP3    H124399   1.471   1.902   3.735
 8145TIP3    H224400   1.584   1.945   3.826
 8146TIP3   OH224401   0.774   0.893   2.956
 8146TIP3    H124402   0.823   0.971   2.984
 8146TIP3    H224403   0.723   0.869   3.034
 8147TIP3   OH224404   0.441   0.785   1.366
 8147TIP3    H124405   0.360   0.835   1.372
 8147TIP3    H224406   0.413   0.695   1.348
 8148TIP3   OH224407   6.009   6.312   3.861
 8148TIP3    H124408   6.048   6.275   3.782
 8148TIP3    H224409   5.915   6.311   3.844
 8149TIP3   OH224410   4.047   4.541   4.968
 8149TIP3    H124411   4.137   4.561   4.995
 8149TIP3    H224412   4.037   4.447   4.984
 8150TIP3   OH224413   3.728   1.884   2.028
 8150TIP3    H124414   3.702   1.818   2.092
 8150TIP3    H224415   3.646   1.928   2.004
 8151TIP3   OH224416   5.486   0.582   3.842
 8151TIP3    H124417   5.499   0.545   3.930
 8151TIP3    H224418   5.397   0.617   3.844
 8152TIP3   OH224419   6.904   3.591   5.435
 8152TIP3    H124420   6.898   3.681   5.466
 8152TIP3    H224421   6.870   3.538   5.507
 8153TIP3   OH224422   5.487   4.814   3.692
 8153TIP3    H124423   5.533   4.898   3.688
 8153TIP3    H224424   5.521   4.764   3.618
 8154TIP3   OH224425   2.444   3.211   5.198
 8154TIP3    H124426   2.466   3.172   5.114
 8154TIP3    H224427   2.494   3.160   5.262
 8155TIP3   OH224428   7.050   4.664   3.240
 8155TIP3    H124429   6.994   4.641   3.314
 8155TIP3    H224430   7.137   4.632   3.264
 8156TIP3   OH224431   0.322   0.576   1.210
 8156TIP3    H124432   0.321   0.612   1.121
 8156TIP3    H224433   0.397   0.515   1.211
 8157TIP3   OH224434   3.483   2.579   1.319
 8157TIP3    H124435   3.559   2.637   1.306
 8157TIP3    H224436   3.411   2.639   1.337
 8158TIP3   OH224437   2.220   0.537   3.826
 8158TIP3    H124438   2.182   0.595   3.892
 8158TIP3    H224439   2.314   0.543   3.841
 8159TIP3   OH224440   1.380   0.329   4.283
 8159TIP3    H124441   1.406   0.342   4.374
 8159TIP3    H224442   1.450   0.275   4.246
 8160TIP3   OH224443   4.267   4.925   4.124
 8160TIP3    H124444   4.238   4.846   4.079
 8160TIP3    H224445   4.284   4.897   4.214
 8161TIP3   OH224446   6.601   5.288   3.298
 8161TIP3    H124447   6.605   5.194   3.309
 8161TIP3    H224448   6.655   5.306   3.220
 8162TIP3   OH224449   0.652   4.365   3.302
 8162TIP3    H124450   0.602   4.418   3.365
 8162TIP3    H224451   0.718   4.426   3.268
 8163TIP3   OH224452   1.307   6.384   1.997
 8163TIP3    H124453   1.223   6.371   1.953
 8163TIP3    H224454   1.373   6.362   1.931
 8164TIP3   OH224455   4.314   3.152   1.664
 8164TIP3    H124456   4.269   3.086   1.716
 8164TIP3    H224457   4.402   3.116   1.651
 8165TIP3   OH224458   6.832   1.961   4.835
 8165TIP3    H124459   6.896   1.950   4.905
 8165TIP3    H224460   6.750   1.929   4.871
 8166TIP3   OH224461   5.756   1.989   2.108
 8166TIP3    H124462   5.799   2.021   2.029
 8166TIP3    H224463   5.787   1.899   2.117
 8167TIP3   OH224464   2.491   6.353   1.137
 8167TIP3    H124465   2.446   6.422   1.186
 8167TIP3    H224466   2.438   6.274   1.152
 8168TIP3   OH224467   3.059   5.647   0.732
 8168TIP3    H124468   3.090   5.560   0.758
 8168TIP3    H224469   2.980   5.660   0.784
 8169TIP3   OH224470   4.130   2.037   1.077
 8169TIP3    H124471   4.142   1.966   1.014
 8169TIP3    H224472   4.123   1.993   1.162
 8170TIP3   OH224473   3.546   1.114   1.094
 8170TIP3    H124474   3.582   1.026   1.099
 8170TIP3    H224475   3.507   1.129   1.180
 8171TIP3   OH224476   1.046   2.565   1.226
 8171TIP3    H124477   1.105   2.620   1.175
 8171TIP3    H224478   1.076   2.574   1.317
 8172TIP3   OH224479   6.539   6.356   4.646
 8172TIP3    H124480   6.538   6.412   4.569
 8172TIP3    H224481   6.603   6.397   4.704
 8173TIP3   OH224482   2.710   3.914   3.438
 8173TIP3    H124483   2.740   3.871   3.517
 8173TIP3    H224484   2.783   3.972   3.413
 8174TIP3   OH224485   4.179   4.209   5.695
 8174TIP3    H124486   4.218   4.132   5.654
 8174TIP3    H224487   4.252   4.269   5.709
 8175TIP3   OH224488   0.357   2.338   4.964
 8175TIP3    H124489   0.264   2.359   4.967
 8175TIP3    H224490   0.394   2.400   4.901
 8176TIP3   OH224491   4.210   3.083   2.029
 8176TIP3    H124492   4.181   3.111   1.943
 8176TIP3    H224493   4.142   3.114   2.089
 8177TIP3   OH224494   2.375   3.869   4.116
 8177TIP3    H124495   2.444   3.933   4.135
 8177TIP3    H224496   2.294   3.920   4.121
 8178TIP3   OH224497   3.132   6.395   3.205
 8178TIP3    H124498   3.163   6.314   3.164
 8178TIP3    H224499   3.188   6.406   3.282
 8179TIP3   OH224500   4.593   2.241   4.396
 8179TIP3    H124501   4.521   2.253   4.335
 8179TIP3    H224502   4.618   2.149   4.387
 8180TIP3   OH224503   1.007   1.312   2.118
 8180TIP3    H124504   0.976   1.298   2.208
 8180TIP3    H224505   1.093   1.270   2.116
 8181TIP3   OH224506   6.507   5.823   3.153
 8181TIP3    H124507   6.463   5.838   3.070
 8181TIP3    H224508   6.453   5.759   3.198
 8182TIP3   OH224509   0.778   5.047   2.376
 8182TIP3    H124510   0.825   5.107   2.317
 8182TIP3    H224511   0.844   4.984   2.403
 8183TIP3   OH224512   1.925   3.659   5.603
 8183TIP3    H124513   1.968   3.633   5.522
 8183TIP3    H224514   1.939   3.585   5.662
 8184TIP3   OH224515   6.480   1.663   2.852
 8184TIP3    H124516   6.446   1.751   2.867
 8184TIP3    H224517   6.432   1.608   2.914
 8185TIP3   OH224518   7.019   3.994   1.521
 8185TIP3    H124519   7.035   4.078   1.564
 8185TIP3    H224520   6.944   3.957   1.568
 8186TIP3   OH224521   6.066   5.177   0.814
 8186TIP3    H124522   6.073   5.271   0.831
 8186TIP3    H224523   6.153   5.143   0.834
 8187TIP3   OH224524   3.624   5.352   2.943
 8187TIP3    H124525   3.660   5.394   2.865
 8187TIP3    H224526   3.592   5.267   2.912
 8188TIP3   OH224527   6.591   0.951   5.377
 8188TIP3    H124528   6.617   0.932   5.286
 8188TIP3    H224529   6.497   0.967   5.372
 8189TIP3   OH224530   1.435   2.107   0.046
 8189TIP3    H124531   1.401   2.069   0.127
 8189TIP3    H224532   1.357   2.137  -0.001
 8190TIP3   OH224533   5.501   0.722   1.220
 8190TIP3    H124534   5.567   0.790   1.213
 8190TIP3    H224535   5.547   0.641   1.199
 8191TIP3   OH224536   1.777   4.607   3.630
 8191TIP3    H124537   1.757   4.700   3.625
 8191TIP3    H224538   1.757   4.573   3.542
 8192TIP3   OH224539   3.239   1.355   0.271
 8192TIP3    H124540   3.222   1.307   0.190
 8192TIP3    H224541   3.221   1.447   0.248
 8193TIP3   OH224542   0.767   1.054   0.011
 8193TIP3    H124543   0.699   1.027  -0.052
 8193TIP3    H224544   0.723   1.118   0.067
 8194TIP3   OH224545   5.345   4.581   5.210
 8194TIP3    H124546   5.400   4.659   5.208
 8194TIP3    H224547   5.268   4.605   5.158
 8195TIP3   OH224548   0.849   6.250   5.168
 8195TIP3    H124549   0.939   6.220   5.153
 8195TIP3    H224550   0.797   6.206   5.100
 8196TIP3   OH224551   1.452   6.402   1.255
 8196TIP3    H124552   1.415   6.468   1.197
 8196TIP3    H224553   1.411   6.320   1.230
 8197TIP3   OH224554   2.814   3.166   4.761
 8197TIP3    H124555   2.822   3.239   4.700
 8197TIP3    H224556   2.841   3.203   4.845
 8198TIP3   OH224557   6.723   1.825   5.496
 8198TIP3    H124558   6.806   1.868   5.520
 8198TIP3    H224559   6.741   1.732   5.509
 8199TIP3   OH224560   5.093   3.121   3.830
 8199TIP3    H124561   5.024   3.147   3.770
 8199TIP3    H224562   5.167   3.178   3.809
 8200TIP3   OH224563   7.031   3.304   5.715
 8200TIP3    H124564   7.125   3.302   5.698
 8200TIP3    H224565   7.012   3.218   5.753
 8201TIP3   OH224566   5.544   6.732   3.476
 8201TIP3    H124567   5.510   6.682   3.550
 8201TIP3    H224568   5.570   6.816   3.514
 8202TIP3   OH224569   6.336   5.545   2.103
 8202TIP3    H124570   6.289   5.478   2.053
 8202TIP3    H224571   6.287   5.553   2.184
 8203TIP3   OH224572   1.023   6.131   5.545
 8203TIP3    H124573   1.050   6.162   5.631
 8203TIP3    H224574   0.939   6.088   5.560
 8204TIP3   OH224575   7.254   5.588   3.504
 8204TIP3    H124576   7.186   5.640   3.547
 8204TIP3    H224577   7.252   5.504   3.549
 8205TIP3   OH224578   4.952   2.582   4.186
 8205TIP3    H124579   4.937   2.558   4.095
 8205TIP3    H224580   4.872   2.628   4.213
 8206TIP3   OH224581   2.418   5.919   1.970
 8206TIP3    H124582   2.372   5.997   1.940
 8206TIP3    H224583   2.395   5.852   1.906
 8207TIP3   OH224584   0.976   2.392   0.548
 8207TIP3    H124585   0.904   2.420   0.605
 8207TIP3    H224586   1.029   2.335   0.604
 8208TIP3   OH224587   1.393   4.978   4.929
 8208TIP3    H124588   1.317   4.939   4.887
 8208TIP3    H224589   1.359   5.018   5.009
 8209TIP3   OH224590   1.561   0.806   5.419
 8209TIP3    H124591   1.554   0.772   5.330
 8209TIP3    H224592   1.653   0.794   5.442
 8210TIP3   OH224593   0.528   5.192   0.137
 8210TIP3    H124594   0.496   5.124   0.196
 8210TIP3    H224595   0.618   5.207   0.164
 8211TIP3   OH224596   1.491   2.560   0.091
 8211TIP3    H124597   1.531   2.488   0.042
 8211TIP3    H224598   1.404   2.527   0.114
 8212TIP3   OH224599   6.647   1.107   3.972
 8212TIP3    H124600   6.740   1.086   3.973
 8212TIP3    H224601   6.609   1.046   3.908
 8213TIP3   OH224602   4.847   1.024   0.283
 8213TIP3    H124603   4.799   1.106   0.295
 8213TIP3    H224604   4.908   1.020   0.357
 8214TIP3   OH224605   2.556   2.137   4.917
 8214TIP3    H124606   2.578   2.228   4.938
 8214TIP3    H224607   2.468   2.142   4.880
 8215TIP3   OH224608   4.928   1.928   3.541
 8215TIP3    H124609   4.842   1.969   3.538
 8215TIP3    H224610   4.917   1.845   3.495
 8216TIP3   OH224611   6.372   1.922   1.264
 8216TIP3    H124612   6.347   1.991   1.325
 8216TIP3    H224613   6.401   1.968   1.185
 8217TIP3   OH224614   1.241   1.073   0.827
 8217TIP3    H124615   1.174   1.117   0.879
 8217TIP3    H224616   1.211   1.084   0.736
 8218TIP3   OH224617   0.673   4.933   5.050
 8218TIP3    H124618   0.641   4.853   5.007
 8218TIP3    H224619   0.637   5.004   4.998
 8219TIP3   OH224620   0.640   5.360   3.002
 8219TIP3    H124621   0.594   5.422   3.058
 8219TIP3    H224622   0.599   5.371   2.916
 8220TIP3   OH224623   6.244   1.228   5.555
 8220TIP3    H124624   6.297   1.188   5.486
 8220TIP3    H224625   6.258   1.322   5.544
 8221TIP3   OH224626   1.685   3.356   5.768
 8221TIP3    H124627   1.680   3.261   5.761
 8221TIP3    H224628   1.639   3.388   5.691
 8222TIP3   OH224629   5.451   1.172   4.887
 8222TIP3    H124630   5.507   1.117   4.942
 8222TIP3    H224631   5.497   1.177   4.803
 8223TIP3   OH224632   3.347   1.046   3.295
 8223TIP3    H124633   3.435   1.018   3.321
 8223TIP3    H224634   3.289   1.005   3.359
 8224TIP3   OH224635   1.771   0.750   1.380
 8224TIP3    H124636   1.710   0.801   1.434
 8224TIP3    H224637   1.737   0.758   1.291
 8225TIP3   OH224638   2.224   0.349   4.640
 8225TIP3    H124639   2.301   0.389   4.599
 8225TIP3    H224640   2.161   0.421   4.649
 8226TIP3   OH224641   2.933   4.003   4.397
 8226TIP3    H124642   2.909   4.019   4.489
 8226TIP3    H224643   2.860   3.953   4.361
 8227TIP3   OH224644   4.713   2.281   1.148
 8227TIP3    H124645   4.683   2.290   1.239
 8227TIP3    H224646   4.642   2.233   1.104
 8228TIP3   OH224647   2.806   3.688   1.574
 8228TIP3    H124648   2.901   3.686   1.586
 8228TIP3    H224649   2.771   3.640   1.649
 8229TIP3   OH224650   3.488   0.878   2.522
 8229TIP3    H124651   3.513   0.962   2.482
 8229TIP3    H224652   3.396   0.868   2.500
 8230TIP3   OH224653   1.078   6.691   1.138
 8230TIP3    H124654   1.050   6.718   1.226
 8230TIP3    H224655   1.001   6.704   1.083
 8231TIP3   OH224656   1.126   1.940   0.794
 8231TIP3    H124657   1.111   1.943   0.889
 8231TIP3    H224658   1.179   1.862   0.781
 8232TIP3   OH224659   6.342   2.893   2.187
 8232TIP3    H124660   6.263   2.938   2.157
 8232TIP3    H224661   6.388   2.958   2.241
 8233TIP3   OH224662   4.380   4.505   4.838
 8233TIP3    H124663   4.331   4.472   4.763
 8233TIP3    H224664   4.359   4.598   4.842
 8234TIP3   OH224665   7.107   3.089   2.416
 8234TIP3    H124666   7.161   3.114   2.341
 8234TIP3    H224667   7.084   2.997   2.398
 8235TIP3   OH224668   3.506   0.157   4.491
 8235TIP3    H124669   3.465   0.242   4.476
 8235TIP3    H224670   3.462   0.097   4.430
 8236TIP3   OH224671   2.151   3.396   3.627
 8236TIP3    H124672   2.185   3.471   3.676
 8236TIP3    H224673   2.181   3.409   3.537
 8237TIP3   OH224674   6.234   3.599   1.186
 8237TIP3    H124675   6.156   3.652   1.201
 8237TIP3    H224676   6.208   3.510   1.205
 8238TIP3   OH224677   4.573   4.235   0.184
 8238TIP3    H124678   4.664   4.207   0.197
 8238TIP3    H224679   4.535   4.168   0.128
 8239TIP3   OH224680   6.568   0.108   4.665
 8239TIP3    H124681   6.640   0.111   4.729
 8239TIP3    H224682   6.536   0.198   4.661
 8240TIP3   OH224683   4.685   4.833   4.336
 8240TIP3    H124684   4.770   4.857   4.373
 8240TIP3    H224685   4.706   4.768   4.269
 8241TIP3   OH224686   5.819   5.662   4.916
 8241TIP3    H124687   5.805   5.568   4.901
 8241TIP3    H224688   5.894   5.684   4.860
 8242TIP3   OH224689   4.198   5.857   4.359
 8242TIP3    H124690   4.130   5.909   4.402
 8242TIP3    H224691   4.154   5.775   4.336
 8243TIP3   OH224692   5.966   0.581   1.946
 8243TIP3    H124693   5.918   0.643   1.892
 8243TIP3    H224694   6.051   0.623   1.962
 8244TIP3   OH224695   0.082   4.639   0.157
 8244TIP3    H124696   0.043   4.612   0.240
 8244TIP3    H224697   0.115   4.727   0.174
 8245TIP3   OH224698   6.070   3.899   5.281
 8245TIP3    H124699   6.103   3.926   5.366
 8245TIP3    H224700   6.038   3.979   5.240
 8246TIP3   OH224701   4.726   3.123   5.133
 8246TIP3    H124702   4.770   3.205   5.155
 8246TIP3    H224703   4.739   3.113   5.039
 8247TIP3   OH224704   0.538   2.671   2.554
 8247TIP3    H124705   0.458   2.621   2.569
 8247TIP3    H224706   0.569   2.643   2.468
 8248TIP3   OH224707   4.001   2.629   2.201
 8248TIP3    H124708   3.923   2.648   2.253
 8248TIP3    H224709   4.054   2.572   2.256
 8249TIP3   OH224710   4.923   6.737   1.959
 8249TIP3    H124711   4.902   6.644   1.957
 8249TIP3    H224712   4.847   6.780   1.919
 8250TIP3   OH224713   4.930   1.772   4.322
 8250TIP3    H124714   5.025   1.774   4.327
 8250TIP3    H224715   4.900   1.815   4.402
 8251TIP3   OH224716   6.206   0.650   1.474
 8251TIP3    H124717   6.120   0.607   1.480
 8251TIP3    H224718   6.200   0.724   1.535
 8252TIP3   OH224719   0.266   6.064   0.574
 8252TIP3    H124720   0.311   6.118   0.639
 8252TIP3    H224721   0.298   5.975   0.590
 8253TIP3   OH224722   5.812   3.993   0.748
 8253TIP3    H124723   5.860   4.041   0.680
 8253TIP3    H224724   5.872   3.993   0.823
 8254TIP3   OH224725   1.613   4.225   4.050
 8254TIP3    H124726   1.568   4.150   4.013
 8254TIP3    H224727   1.621   4.205   4.143
 8255TIP3   OH224728   3.532   1.456   2.977
 8255TIP3    H124729   3.542   1.451   3.073
 8255TIP3    H224730   3.549   1.548   2.957
 8256TIP3   OH224731   0.254   0.292   1.474
 8256TIP3    H124732   0.266   0.243   1.392
 8256TIP3    H224733   0.330   0.350   1.479
 8257TIP3   OH224734   1.314   3.012   3.792
 8257TIP3    H124735   1.353   3.031   3.877
 8257TIP3    H224736   1.250   3.082   3.780
 8258TIP3   OH224737   5.300   0.483   4.518
 8258TIP3    H124738   5.351   0.446   4.591
 8258TIP3    H224739   5.213   0.497   4.555
 8259TIP3   OH224740   5.342   3.863   1.695
 8259TIP3    H124741   5.269   3.847   1.754
 8259TIP3    H224742   5.302   3.897   1.615
 8260TIP3   OH224743   5.554   0.040   5.729
 8260TIP3    H124744   5.534   0.109   5.667
 8260TIP3    H224745   5.473  -0.010   5.737
 8261TIP3   OH224746   4.656   5.082   3.716
 8261TIP3    H124747   4.682   5.003   3.763
 8261TIP3    H224748   4.713   5.084   3.639
 8262TIP3   OH224749   5.202   1.558   0.266
 8262TIP3    H124750   5.136   1.584   0.202
 8262TIP3    H224751   5.205   1.631   0.328
 8263TIP3   OH224752   2.389   0.539   4.168
 8263TIP3    H124753   2.314   0.486   4.143
 8263TIP3    H224754   2.351   0.622   4.198
 8264TIP3   OH224755   3.461   3.805   1.412
 8264TIP3    H124756   3.488   3.853   1.490
 8264TIP3    H224757   3.445   3.716   1.442
 8265TIP3   OH224758   2.048   3.874   0.370
 8265TIP3    H124759   1.973   3.921   0.335
 8265TIP3    H224760   2.061   3.911   0.458
 8266TIP3   OH224761   3.908   0.050   0.627
 8266TIP3    H124762   3.919  -0.044   0.641
 8266TIP3    H224763   3.921   0.061   0.533
 8267TIP3   OH224764   2.705   4.672   2.636
 8267TIP3    H124765   2.775   4.608   2.622
 8267TIP3    H224766   2.731   4.720   2.714
 8268TIP3   OH224767   3.438   2.058   3.290
 8268TIP3    H124768   3.448   2.012   3.373
 8268TIP3    H224769   3.527   2.062   3.254
 8269TIP3   OH224770   2.462   6.064   4.240
 8269TIP3    H124771   2.477   6.087   4.148
 8269TIP3    H224772   2.549   6.056   4.278
 8270TIP3   OH224773   5.228   1.180   4.013
 8270TIP3    H124774   5.278   1.101   4.034
 8270TIP3    H224775   5.222   1.228   4.096
 8271TIP3   OH224776   2.309   3.049   2.912
 8271TIP3    H124777   2.310   3.008   2.999
 8271TIP3    H224778   2.316   2.976   2.851
 8272TIP3   OH224779   2.322   3.004   3.185
 8272TIP3    H124780   2.319   3.064   3.260
 8272TIP3    H224781   2.287   2.922   3.219
 8273TIP3   OH224782   5.264   3.986   1.426
 8273TIP3    H124783   5.180   3.972   1.383
 8273TIP3    H224784   5.322   4.015   1.355
 8274TIP3   OH224785   2.716   5.713   0.278
 8274TIP3    H124786   2.800   5.726   0.321
 8274TIP3    H224787   2.679   5.801   0.268
 8275TIP3   OH224788   3.985   5.400   1.861
 8275TIP3    H124789   4.027   5.448   1.932
 8275TIP3    H224790   3.900   5.444   1.850
 8276TIP3   OH224791   4.873   2.918   1.288
 8276TIP3    H124792   4.952   2.928   1.341
 8276TIP3    H224793   4.897   2.856   1.220
 8277TIP3   OH224794   4.100   3.740   4.593
 8277TIP3    H124795   4.086   3.655   4.551
 8277TIP3    H224796   4.068   3.727   4.683
 8278TIP3   OH224797   0.159   4.379   1.696
 8278TIP3    H124798   0.247   4.364   1.663
 8278TIP3    H224799   0.158   4.340   1.784
 8279TIP3   OH224800   0.641   2.081   3.175
 8279TIP3    H124801   0.699   2.022   3.126
 8279TIP3    H224802   0.591   2.023   3.232
 8280TIP3   OH224803   0.809   2.589   5.093
 8280TIP3    H124804   0.790   2.628   5.007
 8280TIP3    H224805   0.892   2.628   5.119
 8281TIP3   OH224806   5.709   1.694   5.168
 8281TIP3    H124807   5.749   1.697   5.255
 8281TIP3    H224808   5.640   1.629   5.177
 8282TIP3   OH224809   6.387   3.035   4.434
 8282TIP3    H124810   6.340   2.967   4.482
 8282TIP3    H224811   6.332   3.053   4.358
 8283TIP3   OH224812   5.121   1.807   2.818
 8283TIP3    H124813   5.036   1.844   2.795
 8283TIP3    H224814   5.184   1.875   2.796
 8284TIP3   OH224815   2.354   1.061   0.114
 8284TIP3    H124816   2.311   1.144   0.094
 8284TIP3    H224817   2.433   1.061   0.059
 8285TIP3   OH224818   2.268   2.344   1.503
 8285TIP3    H124819   2.238   2.301   1.423
 8285TIP3    H224820   2.220   2.426   1.505
 8286TIP3   OH224821   6.906   6.109   4.789
 8286TIP3    H124822   6.916   6.156   4.872
 8286TIP3    H224823   6.990   6.119   4.746
 8287TIP3   OH224824   4.690   3.255   1.835
 8287TIP3    H124825   4.616   3.217   1.883
 8287TIP3    H224826   4.650   3.322   1.779
 8288TIP3   OH224827   5.374   1.342   2.987
 8288TIP3    H124828   5.320   1.316   3.062
 8288TIP3    H224829   5.447   1.280   2.988
 8289TIP3   OH224830   4.041   6.212   2.132
 8289TIP3    H124831   3.947   6.203   2.144
 8289TIP3    H224832   4.078   6.130   2.165
 8290TIP3   OH224833   0.662   3.294   4.699
 8290TIP3    H124834   0.580   3.278   4.744
 8290TIP3    H224835   0.656   3.385   4.669
 8291TIP3   OH224836   4.718   5.936   5.695
 8291TIP3    H124837   4.678   5.861   5.739
 8291TIP3    H224838   4.721   6.004   5.761
 8292TIP3   OH224839   1.882   0.432   4.481
 8292TIP3    H124840   1.793   0.465   4.489
 8292TIP3    H224841   1.927   0.465   4.558
 8293TIP3   OH224842   4.430   5.130   3.456
 8293TIP3    H124843   4.449   5.101   3.545
 8293TIP3    H224844   4.506   5.181   3.430
 8294TIP3   OH224845   5.477   6.205   3.108
 8294TIP3    H124846   5.451   6.214   3.199
 8294TIP3    H224847   5.427   6.273   3.062
 8295TIP3   OH224848   4.591   6.738   5.257
 8295TIP3    H124849   4.583   6.773   5.168
 8295TIP3    H224850   4.601   6.644   5.245
 8296TIP3   OH224851   0.249   5.741   1.597
 8296TIP3    H124852   0.196   5.820   1.591
 8296TIP3    H224853   0.330   5.763   1.550
 8297TIP3   OH224854   4.054   5.471   4.529
 8297TIP3    H124855   3.980   5.435   4.578
 8297TIP3    H224856   4.112   5.507   4.596
 8298TIP3   OH224857   5.260   5.006   4.662
 8298TIP3    H124858   5.246   5.005   4.757
 8298TIP3    H224859   5.313   4.928   4.646
 8299TIP3   OH224860   6.660   6.390   4.913
 8299TIP3    H124861   6.572   6.372   4.946
 8299TIP3    H224862   6.712   6.409   4.992
 8300TIP3   OH224863   2.042   3.140   5.794
 8300TIP3    H124864   2.027   3.197   5.869
 8300TIP3    H224865   2.085   3.195   5.729
 8301TIP3   OH224866   5.468   2.086   0.070
 8301TIP3    H124867   5.398   2.022   0.054
 8301TIP3    H224868   5.534   2.065   0.004
 8302TIP3   OH224869   1.703   0.137   1.786
 8302TIP3    H124870   1.641   0.080   1.741
 8302TIP3    H224871   1.788   0.114   1.750
 8303TIP3   OH224872   4.747   4.847   2.676
 8303TIP3    H124873   4.754   4.753   2.694
 8303TIP3    H224874   4.719   4.886   2.759
 8304TIP3   OH224875   4.823   0.483   1.723
 8304TIP3    H124876   4.827   0.497   1.628
 8304TIP3    H224877   4.744   0.431   1.736
 8305TIP3   OH224878   2.495   4.413   5.853
 8305TIP3    H124879   2.414   4.463   5.865
 8305TIP3    H224880   2.467   4.322   5.849
 8306TIP3   OH224881   3.596   0.667   0.716
 8306TIP3    H124882   3.649   0.722   0.774
 8306TIP3    H224883   3.508   0.702   0.722
 8307TIP3   OH224884   4.910   4.978   4.463
 8307TIP3    H124885   5.003   4.998   4.453
 8307TIP3    H224886   4.865   5.055   4.428
 8308TIP3   OH224887   3.203   4.486   4.851
 8308TIP3    H124888   3.125   4.509   4.902
 8308TIP3    H224889   3.177   4.495   4.760
 8309TIP3   OH224890   6.005   0.118   1.468
 8309TIP3    H124891   6.093   0.087   1.488
 8309TIP3    H224892   5.950   0.083   1.538
 8310TIP3   OH224893   1.947   1.169   3.835
 8310TIP3    H124894   1.979   1.158   3.745
 8310TIP3    H224895   1.878   1.235   3.828
 8311TIP3   OH224896   2.869   5.392   0.678
 8311TIP3    H124897   2.834   5.303   0.680
 8311TIP3    H224898   2.937   5.392   0.745
 8312TIP3   OH224899   2.185   3.625   1.051
 8312TIP3    H124900   2.202   3.531   1.055
 8312TIP3    H224901   2.124   3.642   1.123
 8313TIP3   OH224902   4.112   1.860   3.612
 8313TIP3    H124903   4.205   1.880   3.614
 8313TIP3    H224904   4.072   1.937   3.571
 8314TIP3   OH224905   6.144   6.381   5.711
 8314TIP3    H124906   6.210   6.450   5.724
 8314TIP3    H224907   6.194   6.308   5.674
 8315TIP3   OH224908   3.659   5.814   4.725
 8315TIP3    H124909   3.676   5.898   4.767
 8315TIP3    H224910   3.721   5.754   4.766
 8316TIP3   OH224911   3.177   5.543   1.495
 8316TIP3    H124912   3.212   5.600   1.563
 8316TIP3    H224913   3.099   5.588   1.463
 8317TIP3   OH224914   1.945   4.515   1.579
 8317TIP3    H124915   1.979   4.604   1.568
 8317TIP3    H224916   1.960   4.473   1.494
 8318TIP3   OH224917   6.845   0.123   2.322
 8318TIP3    H124918   6.753   0.147   2.336
 8318TIP3    H224919   6.851   0.109   2.227
 8319TIP3   OH224920   0.702   6.230   3.771
 8319TIP3    H124921   0.780   6.215   3.823
 8319TIP3    H224922   0.633   6.249   3.835
 8320TIP3   OH224923   4.749   5.857   3.956
 8320TIP3    H124924   4.796   5.775   3.938
 8320TIP3    H224925   4.818   5.923   3.961
 8321TIP3   OH224926   3.674   0.197   3.152
 8321TIP3    H124927   3.700   0.182   3.061
 8321TIP3    H224928   3.648   0.110   3.184
 8322TIP3   OH224929   0.401   3.348   5.781
 8322TIP3    H124930   0.407   3.330   5.874
 8322TIP3    H224931   0.437   3.436   5.770
 8323TIP3   OH224932   4.669   4.777   0.075
 8323TIP3    H124933   4.727   4.704   0.096
 8323TIP3    H224934   4.683   4.793  -0.018
 8324TIP3   OH224935   5.546   0.442   5.627
 8324TIP3    H124936   5.519   0.454   5.718
 8324TIP3    H224937   5.500   0.363   5.598
 8325TIP3   OH224938   4.862   1.959   4.551
 8325TIP3    H124939   4.853   2.038   4.497
 8325TIP3    H224940   4.933   1.980   4.612
 8326TIP3   OH224941   3.258   2.036   5.467
 8326TIP3    H124942   3.304   2.080   5.396
 8326TIP3    H224943   3.327   1.992   5.516
 8327TIP3   OH224944   4.458   4.558   2.142
 8327TIP3    H124945   4.540   4.607   2.129
 8327TIP3    H224946   4.479   4.469   2.115
 8328TIP3   OH224947   6.371   5.824   4.265
 8328TIP3    H124948   6.368   5.732   4.236
 8328TIP3    H224949   6.460   5.853   4.245
 8329TIP3   OH224950   1.803   0.044   0.300
 8329TIP3    H124951   1.803   0.130   0.258
 8329TIP3    H224952   1.871   0.050   0.367
 8330TIP3   OH224953   1.785   3.109   5.496
 8330TIP3    H124954   1.759   3.036   5.552
 8330TIP3    H224955   1.807   3.067   5.412
 8331TIP3   OH224956   6.866   1.614   0.412
 8331TIP3    H124957   6.928   1.686   0.426
 8331TIP3    H224958   6.893   1.547   0.474
 8332TIP3   OH224959   0.239   3.578   5.500
 8332TIP3    H124960   0.262   3.546   5.587
 8332TIP3    H224961   0.160   3.630   5.514
 8333TIP3   OH224962   6.460   5.785   2.031
 8333TIP3    H124963   6.420   5.709   2.073
 8333TIP3    H224964   6.519   5.749   1.965
 8334TIP3   OH224965   1.372   3.757   1.119
 8334TIP3    H124966   1.319   3.753   1.199
 8334TIP3    H224967   1.372   3.849   1.095
 8335TIP3   OH224968   4.717   1.623   0.355
 8335TIP3    H124969   4.787   1.617   0.290
 8335TIP3    H224970   4.760   1.654   0.434
 8336TIP3   OH224971   4.319   6.500   4.308
 8336TIP3    H124972   4.333   6.574   4.248
 8336TIP3    H224973   4.333   6.537   4.395
 8337TIP3   OH224974   7.052   6.084   4.127
 8337TIP3    H124975   7.133   6.041   4.097
 8337TIP3    H224976   6.984   6.018   4.113
 8338TIP3   OH224977   2.893   5.098   1.225
 8338TIP3    H124978   2.947   5.035   1.177
 8338TIP3    H224979   2.808   5.095   1.181
 8339TIP3   OH224980   5.108   4.275   4.893
 8339TIP3    H124981   5.071   4.345   4.947
 8339TIP3    H224982   5.033   4.241   4.843
 8340TIP3   OH224983   2.286   2.230   3.154
 8340TIP3    H124984   2.195   2.259   3.144
 8340TIP3    H224985   2.297   2.164   3.085
 8341TIP3   OH224986   4.589   1.976   3.389
 8341TIP3    H124987   4.638   1.932   3.320
 8341TIP3    H224988   4.612   1.929   3.469
 8342TIP3   OH224989   4.861   0.101   0.342
 8342TIP3    H124990   4.889   0.049   0.267
 8342TIP3    H224991   4.907   0.062   0.417
 8343TIP3   OH224992   3.977   3.524   4.426
 8343TIP3    H124993   4.032   3.548   4.351
 8343TIP3    H224994   3.953   3.433   4.410
 8344TIP3   OH224995   5.049   6.471   1.156
 8344TIP3    H124996   5.105   6.496   1.229
 8344TIP3    H224997   4.993   6.402   1.191
 8345TIP3   OH224998   5.118   0.911   0.587
 8345TIP3    H124999   5.147   0.820   0.589
 8345TIP3    H225000   5.195   0.962   0.612
 8346TIP3   OH225001   5.178   5.026   4.926
 8346TIP3    H125002   5.131   5.107   4.905
 8346TIP3    H225003   5.185   5.028   5.022
 8347TIP3   OH225004   0.227   6.593   0.081
 8347TIP3    H125005   0.283   6.562   0.152
 8347TIP3    H225006   0.223   6.519   0.020
 8348TIP3   OH225007   4.837   4.440   2.927
 8348TIP3    H125008   4.845   4.347   2.905
 8348TIP3    H225009   4.838   4.442   3.023
 8349TIP3   OH225010   0.916   0.916   5.816
 8349TIP3    H125011   0.973   0.894   5.742
 8349TIP3    H225012   0.953   0.867   5.890
 8350TIP3   OH225013   0.329   4.730   3.753
 8350TIP3    H125014   0.361   4.819   3.767
 8350TIP3    H225015   0.283   4.708   3.834
 8351TIP3   OH225016   4.508   1.072   1.816
 8351TIP3    H125017   4.475   1.117   1.738
 8351TIP3    H225018   4.460   1.112   1.888
 8352TIP3   OH225019   4.756   3.584   0.151
 8352TIP3    H125020   4.782   3.555   0.063
 8352TIP3    H225021   4.776   3.510   0.208
 8353TIP3   OH225022   3.057   3.490   4.361
 8353TIP3    H125023   3.068   3.578   4.397
 8353TIP3    H225024   3.143   3.450   4.366
 8354TIP3   OH225025   5.220   4.107   3.339
 8354TIP3    H125026   5.290   4.159   3.299
 8354TIP3    H225027   5.210   4.032   3.281
 8355TIP3   OH225028   0.484  -0.009   2.667
 8355TIP3    H125029   0.573   0.022   2.688
 8355TIP3    H225030   0.436  -0.003   2.750
 8356TIP3   OH225031   4.825   5.400   1.425
 8356TIP3    H125032   4.755   5.464   1.425
 8356TIP3    H225033   4.793   5.329   1.369
 8357TIP3   OH225034   4.272   5.921   2.737
 8357TIP3    H125035   4.307   6.009   2.745
 8357TIP3    H225036   4.343   5.864   2.770
 8358TIP3   OH225037   2.373   3.978   2.689
 8358TIP3    H125038   2.422   4.059   2.702
 8358TIP3    H225039   2.324   3.966   2.770
 8359TIP3   OH225040   4.778   0.137   2.243
 8359TIP3    H125041   4.786   0.048   2.280
 8359TIP3    H225042   4.846   0.140   2.175
 8360TIP3   OH225043   2.471   1.263   3.176
 8360TIP3    H125044   2.567   1.264   3.178
 8360TIP3    H225045   2.449   1.174   3.149
 8361TIP3   OH225046   5.429   1.717   0.184
 8361TIP3    H125047   5.494   1.740   0.250
 8361TIP3    H225048   5.349   1.699   0.235
 8362TIP3   OH225049   4.705   1.074   1.620
 8362TIP3    H125050   4.706   1.162   1.582
 8362TIP3    H225051   4.627   1.071   1.674
 8363TIP3   OH225052   4.383   4.549   1.378
 8363TIP3    H125053   4.380   4.613   1.449
 8363TIP3    H225054   4.313   4.574   1.319
 8364TIP3   OH225055   6.668   2.457   2.556
 8364TIP3    H125056   6.612   2.480   2.483
 8364TIP3    H225057   6.619   2.485   2.634
 8365TIP3   OH225058   6.280   0.965   3.122
 8365TIP3    H125059   6.267   1.057   3.148
 8365TIP3    H225060   6.193   0.927   3.128
 8366TIP3   OH225061   0.117   0.126   0.885
 8366TIP3    H125062   0.183   0.178   0.930
 8366TIP3    H225063   0.166   0.078   0.817
 8367TIP3   OH225064   2.566   4.080   4.205
 8367TIP3    H125065   2.630   4.014   4.181
 8367TIP3    H225066   2.566   4.141   4.132
 8368TIP3   OH225067   6.395   5.966   4.873
 8368TIP3    H125068   6.334   6.037   4.851
 8368TIP3    H225069   6.479   5.995   4.837
 8369TIP3   OH225070   6.001   1.170   3.176
 8369TIP3    H125071   6.076   1.224   3.201
 8369TIP3    H225072   6.000   1.175   3.081
 8370TIP3   OH225073   1.414   5.344   2.636
 8370TIP3    H125074   1.478   5.278   2.663
 8370TIP3    H225075   1.429   5.356   2.542
 8371TIP3   OH225076   3.018   5.286   2.735
 8371TIP3    H125077   3.032   5.364   2.789
 8371TIP3    H225078   2.966   5.317   2.661
 8372TIP3   OH225079   2.281   6.188   1.113
 8372TIP3    H125080   2.199   6.231   1.092
 8372TIP3    H225081   2.272   6.100   1.078
 8373TIP3   OH225082   1.098   5.341   0.567
 8373TIP3    H125083   1.153   5.282   0.515
 8373TIP3    H225084   1.028   5.368   0.507
 8374TIP3   OH225085   3.767   2.297   3.001
 8374TIP3    H125086   3.767   2.377   3.054
 8374TIP3    H225087   3.757   2.227   3.065
 8375TIP3   OH225088   7.137   1.638   5.056
 8375TIP3    H125089   7.124   1.546   5.081
 8375TIP3    H225090   7.182   1.633   4.971
 8376TIP3   OH225091   1.749   3.433   5.065
 8376TIP3    H125092   1.668   3.455   5.110
 8376TIP3    H225093   1.818   3.473   5.118
 8377TIP3   OH225094   1.110   4.906   2.207
 8377TIP3    H125095   1.200   4.875   2.221
 8377TIP3    H225096   1.062   4.873   2.282
 8378TIP3   OH225097   6.553   6.074   1.223
 8378TIP3    H125098   6.511   6.057   1.138
 8378TIP3    H225099   6.509   6.015   1.284
 8379TIP3   OH225100   3.011   5.582   2.850
 8379TIP3    H125101   3.052   5.586   2.937
 8379TIP3    H225102   3.084   5.595   2.789
 8380TIP3   OH225103   3.640   3.882   1.168
 8380TIP3    H125104   3.586   3.960   1.154
 8380TIP3    H225105   3.599   3.838   1.243
 8381TIP3   OH225106   6.261   2.692   4.155
 8381TIP3    H125107   6.285   2.746   4.230
 8381TIP3    H225108   6.228   2.755   4.091
 8382TIP3   OH225109   3.756   1.931   1.275
 8382TIP3    H125110   3.782   2.012   1.233
 8382TIP3    H225111   3.770   1.864   1.208
 8383TIP3   OH225112   5.930   5.725   5.147
 8383TIP3    H125113   5.878   5.649   5.174
 8383TIP3    H225114   5.904   5.741   5.057
 8384TIP3   OH225115   2.054   2.786   1.529
 8384TIP3    H125116   2.149   2.773   1.540
 8384TIP3    H225117   2.041   2.792   1.435
 8385TIP3   OH225118   2.814   2.661   4.551
 8385TIP3    H125119   2.794   2.568   4.564
 8385TIP3    H225120   2.908   2.662   4.529
 8386TIP3   OH225121   2.681   3.908   4.535
 8386TIP3    H125122   2.676   3.991   4.487
 8386TIP3    H225123   2.593   3.871   4.529
 8387TIP3   OH225124   2.727   3.647   2.038
 8387TIP3    H125125   2.677   3.722   2.072
 8387TIP3    H225126   2.743   3.592   2.114
 8388TIP3   OH225127   5.909   3.085   3.219
 8388TIP3    H125128   5.953   3.034   3.151
 8388TIP3    H225129   5.882   3.165   3.175
 8389TIP3   OH225130   6.994   5.103   0.541
 8389TIP3    H125131   6.932   5.174   0.560
 8389TIP3    H225132   6.965   5.067   0.457
 8390TIP3   OH225133   2.617   3.892   1.881
 8390TIP3    H125134   2.640   3.808   1.842
 8390TIP3    H225135   2.546   3.872   1.943
 8391TIP3   OH225136   6.988   5.462   5.874
 8391TIP3    H125137   7.066   5.517   5.884
 8391TIP3    H225138   6.915   5.524   5.876
 8392TIP3   OH225139   5.030   6.488   5.790
 8392TIP3    H125140   5.024   6.443   5.705
 8392TIP3    H225141   5.088   6.432   5.842
 8393TIP3   OH225142   5.429   4.018   0.717
 8393TIP3    H125143   5.376   3.954   0.669
 8393TIP3    H225144   5.482   4.061   0.650
 8394TIP3   OH225145   3.512   6.157   4.464
 8394TIP3    H125146   3.485   6.176   4.375
 8394TIP3    H225147   3.555   6.237   4.494
 8395TIP3   OH225148   2.217   5.120   4.437
 8395TIP3    H125149   2.124   5.096   4.433
 8395TIP3    H225150   2.252   5.070   4.511
 8396TIP3   OH225151   3.063   3.565   3.568
 8396TIP3    H125152   3.024   3.641   3.612
 8396TIP3    H225153   3.092   3.509   3.639
 8397TIP3   OH225154   2.267   3.277   4.430
 8397TIP3    H125155   2.232   3.318   4.509
 8397TIP3    H225156   2.297   3.191   4.459
 8398TIP3   OH225157   3.767   4.280   5.164
 8398TIP3    H125158   3.852   4.320   5.184
 8398TIP3    H225159   3.739   4.322   5.082
 8399TIP3   OH225160   3.061   5.161   5.117
 8399TIP3    H125161   3.128   5.195   5.057
 8399TIP3    H225162   3.084   5.198   5.202
 8400TIP3   OH225163   4.490   2.797   3.445
 8400TIP3    H125164   4.520   2.874   3.397
 8400TIP3    H225165   4.560   2.732   3.433
 8401TIP3   OH225166   2.833   3.032   0.344
 8401TIP3    H125167   2.774   3.104   0.322
 8401TIP3    H225168   2.774   2.960   0.368
 8402TIP3   OH225169   4.896   3.442   3.338
 8402TIP3    H125170   4.843   3.507   3.291
 8402TIP3    H225171   4.834   3.372   3.359
 8403TIP3   OH225172   3.417   3.592   1.593
 8403TIP3    H125173   3.469   3.546   1.658
 8403TIP3    H225174   3.355   3.526   1.560
 8404TIP3   OH225175   2.476   1.517   1.133
 8404TIP3    H125176   2.391   1.495   1.170
 8404TIP3    H225177   2.537   1.456   1.173
 8405TIP3   OH225178   0.110   1.945   0.205
 8405TIP3    H125179   0.068   2.027   0.230
 8405TIP3    H225180   0.200   1.953   0.237
 8406TIP3   OH225181   0.703   0.576   5.313
 8406TIP3    H125182   0.614   0.542   5.303
 8406TIP3    H225183   0.709   0.598   5.406
 8407TIP3   OH225184   7.106   3.447   4.341
 8407TIP3    H125185   7.063   3.491   4.415
 8407TIP3    H225186   7.093   3.354   4.358
 8408TIP3   OH225187   4.745   0.878   4.536
 8408TIP3    H125188   4.704   0.816   4.476
 8408TIP3    H225189   4.673   0.914   4.587
 8409TIP3   OH225190   4.935   1.739   4.024
 8409TIP3    H125191   4.936   1.718   4.118
 8409TIP3    H225192   4.960   1.831   4.020
 8410TIP3   OH225193   3.092   2.513   0.977
 8410TIP3    H125194   3.140   2.433   0.955
 8410TIP3    H225195   3.099   2.519   1.073
 8411TIP3   OH225196   0.452   3.752   3.161
 8411TIP3    H125197   0.398   3.829   3.175
 8411TIP3    H225198   0.533   3.769   3.210
 8412TIP3   OH225199   6.075   2.527   3.426
 8412TIP3    H125200   5.980   2.536   3.435
 8412TIP3    H225201   6.100   2.465   3.494
 8413TIP3   OH225202   6.638   3.676   0.961
 8413TIP3    H125203   6.688   3.632   0.892
 8413TIP3    H225204   6.680   3.648   1.043
 8414TIP3   OH225205   1.503   6.395   1.810
 8414TIP3    H125206   1.504   6.366   1.719
 8414TIP3    H225207   1.577   6.349   1.851
 8415TIP3   OH225208   6.232   5.579   4.976
 8415TIP3    H125209   6.301   5.585   4.910
 8415TIP3    H225210   6.222   5.668   5.009
 8416TIP3   OH225211   6.630   2.057   4.503
 8416TIP3    H125212   6.620   2.056   4.408
 8416TIP3    H225213   6.674   1.975   4.525
 8417TIP3   OH225214   1.887   4.832   2.428
 8417TIP3    H125215   1.865   4.918   2.463
 8417TIP3    H225216   1.927   4.785   2.501
 8418TIP3   OH225217   6.654   0.517   5.764
 8418TIP3    H125218   6.642   0.422   5.767
 8418TIP3    H225219   6.566   0.552   5.755
 8419TIP3   OH225220   5.322   1.213   2.449
 8419TIP3    H125221   5.408   1.218   2.406
 8419TIP3    H225222   5.339   1.238   2.540
 8420TIP3   OH225223   5.494   3.111   2.861
 8420TIP3    H125224   5.548   3.097   2.783
 8420TIP3    H225225   5.557   3.127   2.931
 8421TIP3   OH225226   6.600   0.173   2.262
 8421TIP3    H125227   6.603   0.111   2.190
 8421TIP3    H225228   6.561   0.252   2.224
 8422TIP3   OH225229   5.178   0.674   1.737
 8422TIP3    H125230   5.227   0.592   1.748
 8422TIP3    H225231   5.098   0.661   1.788
 8423TIP3   OH225232   6.579   1.529   0.254
 8423TIP3    H125233   6.647   1.596   0.251
 8423TIP3    H225234   6.559   1.512   0.162
 8424TIP3   OH225235   0.907   5.655   3.612
 8424TIP3    H125236   0.849   5.604   3.555
 8424TIP3    H225237   0.993   5.650   3.569
 8425TIP3   OH225238   3.867   1.741   2.321
 8425TIP3    H125239   3.876   1.693   2.239
 8425TIP3    H225240   3.919   1.821   2.308
 8426TIP3   OH225241   2.858   1.398   2.023
 8426TIP3    H125242   2.858   1.482   2.068
 8426TIP3    H225243   2.900   1.416   1.939
 8427TIP3   OH225244   1.254   4.629   3.574
 8427TIP3    H125245   1.161   4.610   3.560
 8427TIP3    H225246   1.274   4.591   3.659
 8428TIP3   OH225247   0.505   5.193   5.842
 8428TIP3    H125248   0.536   5.161   5.758
 8428TIP3    H225249   0.546   5.135   5.907
 8429TIP3   OH225250   0.258   6.437   0.589
 8429TIP3    H125251   0.225   6.510   0.642
 8429TIP3    H225252   0.214   6.447   0.505
 8430TIP3   OH225253   3.978   5.612   2.324
 8430TIP3    H125254   4.045   5.581   2.385
 8430TIP3    H225255   3.897   5.571   2.354
 8431TIP3   OH225256   3.719   1.928   2.613
 8431TIP3    H125257   3.732   1.938   2.518
 8431TIP3    H225258   3.803   1.898   2.645
 8432TIP3   OH225259   6.215   2.699   5.463
 8432TIP3    H125260   6.176   2.743   5.388
 8432TIP3    H225261   6.192   2.755   5.538
 8433TIP3   OH225262   1.258   1.118   0.057
 8433TIP3    H125263   1.195   1.065   0.009
 8433TIP3    H225264   1.231   1.209   0.042
 8434TIP3   OH225265   6.045   2.537   3.760
 8434TIP3    H125266   6.128   2.581   3.741
 8434TIP3    H225267   6.020   2.570   3.846
 8435TIP3   OH225268   4.107   2.854   3.752
 8435TIP3    H125269   4.051   2.794   3.801
 8435TIP3    H225270   4.188   2.805   3.737
 8436TIP3   OH225271   6.301   2.140   1.410
 8436TIP3    H125272   6.225   2.152   1.352
 8436TIP3    H225273   6.292   2.209   1.475
 8437TIP3   OH225274   2.121   1.415   4.826
 8437TIP3    H125275   2.057   1.478   4.859
 8437TIP3    H225276   2.205   1.461   4.833
 8438TIP3   OH225277   5.336   5.620   4.575
 8438TIP3    H125278   5.353   5.710   4.601
 8438TIP3    H225279   5.247   5.602   4.606
 8439TIP3   OH225280   5.710   4.006   3.219
 8439TIP3    H125281   5.771   4.005   3.292
 8439TIP3    H225282   5.635   4.056   3.251
 8440TIP3   OH225283   4.125   0.537   4.379
 8440TIP3    H125284   4.212   0.557   4.342
 8440TIP3    H225285   4.135   0.450   4.418
 8441TIP3   OH225286  -0.032   0.698   3.761
 8441TIP3    H125287   0.032   0.756   3.802
 8441TIP3    H225288   0.011   0.613   3.758
 8442TIP3   OH225289   3.703   4.734   3.528
 8442TIP3    H125290   3.746   4.755   3.611
 8442TIP3    H225291   3.615   4.770   3.538
 8443TIP3   OH225292  -0.004   5.918   0.518
 8443TIP3    H125293   0.006   5.840   0.464
 8443TIP3    H225294   0.083   5.957   0.521
 8444TIP3   OH225295   0.231   0.941   1.384
 8444TIP3    H125296   0.257   1.033   1.387
 8444TIP3    H225297   0.136   0.943   1.384
 8445TIP3   OH225298   6.701   0.670   5.091
 8445TIP3    H125299   6.790   0.637   5.100
 8445TIP3    H225300   6.658   0.646   5.174
 8446TIP3   OH225301   3.006   3.302   0.655
 8446TIP3    H125302   3.006   3.347   0.570
 8446TIP3    H225303   3.065   3.227   0.642
 8447TIP3   OH225304   4.063   5.137   4.709
 8447TIP3    H125305   4.147   5.157   4.751
 8447TIP3    H225306   4.077   5.161   4.617
 8448TIP3   OH225307   6.053   0.476   3.289
 8448TIP3    H125308   6.129   0.534   3.299
 8448TIP3    H225309   6.065   0.410   3.358
 8449TIP3   OH225310   4.472   1.017   4.756
 8449TIP3    H125311   4.389   1.013   4.804
 8449TIP3    H225312   4.504   1.106   4.769
 8450TIP3   OH225313   3.621   3.166   3.060
 8450TIP3    H125314   3.684   3.106   3.020
 8450TIP3    H225315   3.630   3.151   3.154
 8451TIP3   OH225316   6.865   2.361   3.298
 8451TIP3    H125317   6.900   2.273   3.308
 8451TIP3    H225318   6.773   2.354   3.324
 8452TIP3   OH225319   1.621   5.335   2.338
 8452TIP3    H125320   1.601   5.250   2.377
 8452TIP3    H225321   1.717   5.337   2.334
 8453TIP3   OH225322   6.440   3.349   4.986
 8453TIP3    H125323   6.382   3.284   5.025
 8453TIP3    H225324   6.382   3.423   4.965
 8454TIP3   OH225325   3.858   4.524   3.441
 8454TIP3    H125326   3.783   4.582   3.455
 8454TIP3    H225327   3.889   4.504   3.529
 8455TIP3   OH225328   5.897   4.376   3.613
 8455TIP3    H125329   5.959   4.304   3.629
 8455TIP3    H225330   5.944   4.435   3.554
 8456TIP3   OH225331   1.997   5.364   5.101
 8456TIP3    H125332   2.033   5.277   5.081
 8456TIP3    H225333   1.903   5.348   5.112
 8457TIP3   OH225334   6.221   3.466   5.205
 8457TIP3    H125335   6.303   3.455   5.254
 8457TIP3    H225336   6.180   3.380   5.206
 8458TIP3   OH225337   5.938   4.523   2.017
 8458TIP3    H125338   6.006   4.566   1.966
 8458TIP3    H225339   5.976   4.438   2.041
 8459TIP3   OH225340   5.087   3.594   0.944
 8459TIP3    H125341   5.079   3.535   1.019
 8459TIP3    H225342   5.108   3.537   0.870
 8460TIP3   OH225343   4.323   5.798   4.797
 8460TIP3    H125344   4.337   5.706   4.817
 8460TIP3    H225345   4.240   5.820   4.840
 8461TIP3   OH225346   6.683   6.724   4.099
 8461TIP3    H125347   6.713   6.741   4.188
 8461TIP3    H225348   6.763   6.706   4.049
 8462TIP3   OH225349   1.899   4.131   1.240
 8462TIP3    H125350   1.942   4.046   1.235
 8462TIP3    H225351   1.970   4.193   1.258
 8463TIP3   OH225352   0.169   0.083   1.707
 8463TIP3    H125353   0.186   0.140   1.632
 8463TIP3    H225354   0.219   0.004   1.689
 8464TIP3   OH225355   5.696   5.996   2.887
 8464TIP3    H125356   5.732   6.068   2.835
 8464TIP3    H225357   5.649   5.942   2.824
 8465TIP3   OH225358   4.252   0.264   4.264
 8465TIP3    H125359   4.313   0.333   4.290
 8465TIP3    H225360   4.274   0.189   4.319
 8466TIP3   OH225361   3.028   1.665   4.493
 8466TIP3    H125362   3.006   1.592   4.551
 8466TIP3    H225363   2.986   1.741   4.533
 8467TIP3   OH225364   0.095   2.077   2.346
 8467TIP3    H125365   0.082   1.984   2.366
 8467TIP3    H225366   0.054   2.089   2.260
 8468TIP3   OH225367   3.525   1.004   0.001
 8468TIP3    H125368   3.466   0.941  -0.042
 8468TIP3    H225369   3.497   1.006   0.092
 8469TIP3   OH225370   0.064   0.871   0.241
 8469TIP3    H125371   0.034   0.832   0.160
 8469TIP3    H225372   0.001   0.940   0.260
 8470TIP3   OH225373   3.335   3.960   2.743
 8470TIP3    H125374   3.354   3.898   2.814
 8470TIP3    H225375   3.403   3.943   2.678
 8471TIP3   OH225376   3.102   3.817   3.342
 8471TIP3    H125377   3.036   3.874   3.303
 8471TIP3    H225378   3.058   3.734   3.356
 8472TIP3   OH225379   1.704   6.127   3.356
 8472TIP3    H125380   1.638   6.170   3.300
 8472TIP3    H225381   1.705   6.036   3.325
 8473TIP3   OH225382   4.033   3.252   1.189
 8473TIP3    H125383   4.029   3.269   1.095
 8473TIP3    H225384   4.114   3.203   1.201
 8474TIP3   OH225385   0.372   5.455   1.792
 8474TIP3    H125386   0.363   5.532   1.847
 8474TIP3    H225387   0.290   5.450   1.744
 8475TIP3   OH225388   6.100   1.633   2.674
 8475TIP3    H125389   6.129   1.723   2.666
 8475TIP3    H225390   6.009   1.639   2.702
 8476TIP3   OH225391   3.136   5.210   4.609
 8476TIP3    H125392   3.207   5.225   4.546
 8476TIP3    H225393   3.110   5.298   4.637
 8477TIP3   OH225394   2.460   1.794   0.566
 8477TIP3    H125395   2.502   1.778   0.650
 8477TIP3    H225396   2.462   1.890   0.556
 8478TIP3   OH225397   0.476   6.716   1.092
 8478TIP3    H125398   0.546   6.654   1.112
 8478TIP3    H225399   0.400   6.682   1.139
 8479TIP3   OH225400   0.037   1.025   1.060
 8479TIP3    H125401   0.004   1.106   1.099
 8479TIP3    H225402  -0.028   0.959   1.083
 8480TIP3   OH225403   0.167   5.184   0.205
 8480TIP3    H125404   0.219   5.104   0.208
 8480TIP3    H225405   0.077   5.156   0.218
 8481TIP3   OH225406   6.296   6.092   0.722
 8481TIP3    H125407   6.201   6.095   0.707
 8481TIP3    H225408   6.332   6.155   0.660
 8482TIP3   OH225409   2.894   5.092   2.237
 8482TIP3    H125410   2.830   5.156   2.206
 8482TIP3    H225411   2.863   5.068   2.324
 8483TIP3   OH225412   3.761   3.570   5.006
 8483TIP3    H125413   3.731   3.515   4.934
 8483TIP3    H225414   3.822   3.514   5.055
 8484TIP3   OH225415   0.911   5.130   5.006
 8484TIP3    H125416   0.843   5.067   5.031
 8484TIP3    H225417   0.934   5.106   4.916
 8485TIP3   OH225418   1.783   4.542   1.227
 8485TIP3    H125419   1.866   4.495   1.219
 8485TIP3    H225420   1.786   4.607   1.157
 8486TIP3   OH225421   4.707   2.372   2.198
 8486TIP3    H125422   4.686   2.457   2.158
 8486TIP3    H225423   4.684   2.383   2.290
 8487TIP3   OH225424   3.180   5.279   1.731
 8487TIP3    H125425   3.192   5.219   1.805
 8487TIP3    H225426   3.099   5.251   1.690
 8488TIP3   OH225427   1.473   5.252   1.786
 8488TIP3    H125428   1.518   5.168   1.797
 8488TIP3    H225429   1.539   5.310   1.748
 8489TIP3   OH225430   3.831   0.477   1.576
 8489TIP3    H125431   3.815   0.518   1.491
 8489TIP3    H225432   3.760   0.509   1.632
 8490TIP3   OH225433   5.140   5.827   3.641
 8490TIP3    H125434   5.055   5.784   3.629
 8490TIP3    H225435   5.179   5.780   3.715
 8491TIP3   OH225436   4.740   3.261   3.968
 8491TIP3    H125437   4.727   3.298   3.880
 8491TIP3    H225438   4.822   3.298   3.998
 8492TIP3   OH225439   3.760   2.226   4.919
 8492TIP3    H125440   3.749   2.132   4.937
 8492TIP3    H225441   3.846   2.247   4.954
 8493TIP3   OH225442   6.454   4.262   0.692
 8493TIP3    H125443   6.513   4.191   0.718
 8493TIP3    H225444   6.482   4.337   0.744
 8494TIP3   OH225445   3.769   3.507   3.113
 8494TIP3    H125446   3.830   3.445   3.073
 8494TIP3    H225447   3.770   3.583   3.055
 8495TIP3   OH225448   5.485   0.829   3.086
 8495TIP3    H125449   5.580   0.831   3.070
 8495TIP3    H225450   5.462   0.737   3.080
 8496TIP3   OH225451   3.732   3.845   4.612
 8496TIP3    H125452   3.644   3.850   4.650
 8496TIP3    H225453   3.723   3.781   4.540
 8497TIP3   OH225454   0.229   0.967   2.183
 8497TIP3    H125455   0.307   1.019   2.163
 8497TIP3    H225456   0.245   0.932   2.271
 8498TIP3   OH225457   6.086   4.474   1.097
 8498TIP3    H125458   6.003   4.429   1.080
 8498TIP3    H225459   6.102   4.526   1.018
 8499TIP3   OH225460   2.896   6.063   0.416
 8499TIP3    H125461   2.871   6.095   0.330
 8499TIP3    H225462   2.846   6.116   0.477
 8500TIP3   OH225463   5.967   4.345   3.158
 8500TIP3    H125464   5.944   4.369   3.068
 8500TIP3    H225465   5.962   4.250   3.159
 8501TIP3   OH225466   0.592   4.318   3.655
 8501TIP3    H125467   0.557   4.374   3.724
 8501TIP3    H225468   0.528   4.247   3.647
 8502TIP3   OH225469   5.441   0.809   0.886
 8502TIP3    H125470   5.530   0.842   0.899
 8502TIP3    H225471   5.445   0.761   0.803
 8503TIP3   OH225472   5.579   0.481   1.496
 8503TIP3    H125473   5.653   0.528   1.536
 8503TIP3    H225474   5.513   0.477   1.566
 8504TIP3   OH225475   4.779   1.044   5.047
 8504TIP3    H125476   4.764   0.960   5.005
 8504TIP3    H225477   4.727   1.041   5.127
 8505TIP3   OH225478   6.691   0.244   5.756
 8505TIP3    H125479   6.768   0.192   5.776
 8505TIP3    H225480   6.622   0.180   5.742
 8506TIP3   OH225481   4.175   4.125   3.987
 8506TIP3    H125482   4.111   4.187   4.020
 8506TIP3    H225483   4.244   4.124   4.053
 8507TIP3   OH225484   4.921   0.142   3.215
 8507TIP3    H125485   4.927   0.081   3.141
 8507TIP3    H225486   5.002   0.193   3.210
 8508TIP3   OH225487   2.043   1.907   2.686
 8508TIP3    H125488   2.078   1.992   2.661
 8508TIP3    H225489   2.061   1.899   2.779
 8509TIP3   OH225490   3.313   1.925   0.839
 8509TIP3    H125491   3.265   1.856   0.792
 8509TIP3    H225492   3.349   1.980   0.769
 8510TIP3   OH225493   6.100   2.146   5.227
 8510TIP3    H125494   6.111   2.090   5.304
 8510TIP3    H225495   6.039   2.098   5.171
 8511TIP3   OH225496   0.370   5.886   2.825
 8511TIP3    H125497   0.455   5.928   2.817
 8511TIP3    H225498   0.387   5.805   2.873
 8512TIP3   OH225499   1.944   6.043   0.901
 8512TIP3    H125500   2.010   6.018   0.836
 8512TIP3    H225501   1.971   6.130   0.930
 8513TIP3   OH225502   1.966   4.978   5.731
 8513TIP3    H125503   1.979   5.025   5.649
 8513TIP3    H225504   1.918   4.899   5.707
 8514TIP3   OH225505   6.404   3.256   2.557
 8514TIP3    H125506   6.321   3.295   2.527
 8514TIP3    H225507   6.378   3.189   2.620
 8515TIP3   OH225508   6.332   1.967   1.973
 8515TIP3    H125509   6.374   1.905   1.913
 8515TIP3    H225510   6.260   1.917   2.012
 8516TIP3   OH225511   5.799   5.594   3.996
 8516TIP3    H125512   5.716   5.632   3.967
 8516TIP3    H225513   5.781   5.562   4.084
 8517TIP3   OH225514   6.211   5.671   2.310
 8517TIP3    H125515   6.212   5.593   2.366
 8517TIP3    H225516   6.143   5.727   2.348
 8518TIP3   OH225517   6.300   2.541   3.107
 8518TIP3    H125518   6.352   2.580   3.037
 8518TIP3    H225519   6.228   2.603   3.120
 8519TIP3   OH225520   4.618   5.108   4.160
 8519TIP3    H125521   4.537   5.136   4.117
 8519TIP3    H225522   4.665   5.059   4.093
 8520TIP3   OH225523   3.334   1.250   4.914
 8520TIP3    H125524   3.363   1.261   5.005
 8520TIP3    H225525   3.255   1.304   4.907
 8521TIP3   OH225526   0.012   5.644   0.406
 8521TIP3    H125527   0.001   5.667   0.314
 8521TIP3    H225528   0.088   5.586   0.407
 8522TIP3   OH225529   2.274   2.339   3.481
 8522TIP3    H125530   2.186   2.318   3.450
 8522TIP3    H225531   2.333   2.302   3.415
 8523TIP3   OH225532   0.589   4.583   3.496
 8523TIP3    H125533   0.510   4.634   3.482
 8523TIP3    H225534   0.562   4.514   3.558
 8524TIP3   OH225535   4.627   2.909   5.344
 8524TIP3    H125536   4.655   2.976   5.282
 8524TIP3    H225537   4.537   2.889   5.318
 8525TIP3   OH225538   2.233   2.127   3.978
 8525TIP3    H125539   2.156   2.078   4.009
 8525TIP3    H225540   2.208   2.158   3.891
 8526TIP3   OH225541   0.815   4.837   4.282
 8526TIP3    H125542   0.872   4.774   4.239
 8526TIP3    H225543   0.757   4.869   4.213
 8527TIP3   OH225544   3.597   0.150   1.567
 8527TIP3    H125545   3.690   0.158   1.586
 8527TIP3    H225546   3.568   0.074   1.619
 8528TIP3   OH225547   6.989   1.852   5.521
 8528TIP3    H125548   7.016   1.931   5.475
 8528TIP3    H225549   7.018   1.865   5.611
 8529TIP3   OH225550   2.551   0.742   3.613
 8529TIP3    H125551   2.570   0.832   3.639
 8529TIP3    H225552   2.611   0.724   3.541
 8530TIP3   OH225553   2.662   3.724   0.394
 8530TIP3    H125554   2.642   3.751   0.483
 8530TIP3    H225555   2.579   3.732   0.347
 8531TIP3   OH225556   2.328   0.522   3.474
 8531TIP3    H125557   2.240   0.558   3.463
 8531TIP3    H225558   2.340   0.464   3.399
 8532TIP3   OH225559   0.186   2.467   0.449
 8532TIP3    H125560   0.214   2.541   0.502
 8532TIP3    H225561   0.122   2.503   0.388
 8533TIP3   OH225562   2.987   1.574   0.881
 8533TIP3    H125563   2.892   1.569   0.887
 8533TIP3    H225564   3.015   1.607   0.966
 8534TIP3   OH225565   1.996   5.948   2.088
 8534TIP3    H125566   1.910   5.929   2.126
 8534TIP3    H225567   1.980   6.019   2.026
 8535TIP3   OH225568   2.440   3.696   2.797
 8535TIP3    H125569   2.354   3.736   2.809
 8535TIP3    H225570   2.446   3.632   2.868
 8536TIP3   OH225571   3.464   4.502   0.433
 8536TIP3    H125572   3.454   4.529   0.342
 8536TIP3    H225573   3.539   4.442   0.432
 8537TIP3   OH225574   2.831   2.467   4.249
 8537TIP3    H125575   2.840   2.372   4.238
 8537TIP3    H225576   2.897   2.490   4.313
 8538TIP3   OH225577   5.832   2.606   4.877
 8538TIP3    H125578   5.882   2.648   4.947
 8538TIP3    H225579   5.763   2.668   4.855
 8539TIP3   OH225580   2.940   4.526   2.627
 8539TIP3    H125581   2.977   4.450   2.583
 8539TIP3    H225582   2.944   4.505   2.720
 8540TIP3   OH225583   2.053   0.490   2.015
 8540TIP3    H125584   1.982   0.486   1.950
 8540TIP3    H225585   2.133   0.481   1.963
 8541TIP3   OH225586   6.306   5.034   1.387
 8541TIP3    H125587   6.225   4.990   1.410
 8541TIP3    H225588   6.370   4.963   1.378
 8542TIP3   OH225589   4.380   6.342   2.497
 8542TIP3    H125590   4.312   6.408   2.492
 8542TIP3    H225591   4.448   6.372   2.436
 8543TIP3   OH225592   1.474   6.693   2.397
 8543TIP3    H125593   1.528   6.621   2.429
 8543TIP3    H225594   1.442   6.737   2.476
 8544TIP3   OH225595   6.271   2.297   0.415
 8544TIP3    H125596   6.343   2.328   0.360
 8544TIP3    H225597   6.209   2.370   0.417
 8545TIP3   OH225598   5.036   2.216   3.705
 8545TIP3    H125599   4.946   2.242   3.725
 8545TIP3    H225600   5.043   2.223   3.610
 8546TIP3   OH225601   1.636   3.240   1.700
 8546TIP3    H125602   1.651   3.238   1.795
 8546TIP3    H225603   1.593   3.157   1.681
 8547TIP3   OH225604   5.953   0.600   4.677
 8547TIP3    H125605   5.917   0.645   4.754
 8547TIP3    H225606   5.989   0.518   4.712
 8548TIP3   OH225607   4.091   0.944   0.179
 8548TIP3    H125608   4.167   0.995   0.151
 8548TIP3    H225609   4.128   0.873   0.232
 8549TIP3   OH225610   0.378   1.001   4.128
 8549TIP3    H125611   0.398   0.950   4.050
 8549TIP3    H225612   0.341   1.083   4.095
 8550TIP3   OH225613   5.742   6.320   0.416
 8550TIP3    H125614   5.786   6.284   0.339
 8550TIP3    H225615   5.664   6.363   0.382
 8551TIP3   OH225616   3.071   4.288   2.541
 8551TIP3    H125617   3.022   4.208   2.559
 8551TIP3    H225618   3.148   4.282   2.597
 8552TIP3   OH225619   1.024   5.676   0.788
 8552TIP3    H125620   0.989   5.681   0.699
 8552TIP3    H225621   1.075   5.595   0.789
 8553TIP3   OH225622   1.679   6.093   2.694
 8553TIP3    H125623   1.673   6.108   2.788
 8553TIP3    H225624   1.658   6.177   2.654
 8554TIP3   OH225625   6.755   0.005   3.245
 8554TIP3    H125626   6.777   0.091   3.280
 8554TIP3    H225627   6.775  -0.056   3.316
 8555TIP3   OH225628   5.091   6.177   2.503
 8555TIP3    H125629   5.158   6.230   2.548
 8555TIP3    H225630   5.029   6.153   2.572
 8556TIP3   OH225631   4.728   3.005   2.664
 8556TIP3    H125632   4.756   3.089   2.627
 8556TIP3    H225633   4.661   3.028   2.728
 8557TIP3   OH225634   5.612   4.881   5.265
 8557TIP3    H125635   5.695   4.842   5.237
 8557TIP3    H225636   5.550   4.855   5.197
 8558TIP3   OH225637   5.513   3.821   1.038
 8558TIP3    H125638   5.498   3.742   1.090
 8558TIP3    H225639   5.528   3.788   0.949
 8559TIP3   OH225640   5.775   0.291   3.392
 8559TIP3    H125641   5.832   0.257   3.460
 8559TIP3    H225642   5.834   0.319   3.322
 8560TIP3   OH225643   1.808   6.759   4.912
 8560TIP3    H125644   1.722   6.756   4.953
 8560TIP3    H225645   1.868   6.728   4.979
 8561TIP3   OH225646   4.506   5.573   4.050
 8561TIP3    H125647   4.540   5.663   4.048
 8561TIP3    H225648   4.581   5.519   4.023
 8562TIP3   OH225649   5.486   4.326   2.396
 8562TIP3    H125650   5.503   4.259   2.462
 8562TIP3    H225651   5.402   4.302   2.358
 8563TIP3   OH225652   4.418   5.216   0.382
 8563TIP3    H125653   4.512   5.220   0.399
 8563TIP3    H225654   4.411   5.166   0.301
 8564TIP3   OH225655   4.222   4.061   1.877
 8564TIP3    H125656   4.131   4.064   1.909
 8564TIP3    H225657   4.275   4.070   1.956
 8565TIP3   OH225658   3.892   4.097   3.418
 8565TIP3    H125659   3.961   4.047   3.376
 8565TIP3    H225660   3.933   4.180   3.442
 8566TIP3   OH225661   1.266   4.764   0.139
 8566TIP3    H125662   1.309   4.682   0.162
 8566TIP3    H225663   1.226   4.748   0.054
 8567TIP3   OH225664   6.689   3.209   4.496
 8567TIP3    H125665   6.629   3.246   4.561
 8567TIP3    H225666   6.710   3.122   4.530
 8568TIP3   OH225667   1.066  -0.030   4.062
 8568TIP3    H125668   0.990  -0.009   4.007
 8568TIP3    H225669   1.085   0.051   4.108
 8569TIP3   OH225670   6.465   5.568   0.300
 8569TIP3    H125671   6.505   5.527   0.376
 8569TIP3    H225672   6.404   5.632   0.337
 8570TIP3   OH225673   6.559   5.939   2.682
 8570TIP3    H125674   6.531   5.979   2.599
 8570TIP3    H225675   6.631   5.881   2.657
 8571TIP3   OH225676   3.737   1.862   5.589
 8571TIP3    H125677   3.799   1.907   5.531
 8571TIP3    H225678   3.783   1.856   5.673
 8572TIP3   OH225679   5.459   1.945   4.003
 8572TIP3    H125680   5.445   1.858   4.041
 8572TIP3    H225681   5.421   1.939   3.916
 8573TIP3   OH225682   3.979   5.070   4.344
 8573TIP3    H125683   4.071   5.097   4.351
 8573TIP3    H225684   3.972   5.032   4.256
 8574TIP3   OH225685   4.923   3.134   3.622
 8574TIP3    H125686   4.958   3.131   3.533
 8574TIP3    H225687   4.897   3.044   3.641
 8575TIP3   OH225688   3.151  -0.039   2.730
 8575TIP3    H125689   3.063  -0.015   2.760
 8575TIP3    H225690   3.186   0.042   2.691
 8576TIP3   OH225691   0.728   2.545   3.419
 8576TIP3    H125692   0.669   2.618   3.435
 8576TIP3    H225693   0.670   2.472   3.398
 8577TIP3   OH225694   5.066   0.203   2.546
 8577TIP3    H125695   5.142   0.145   2.545
 8577TIP3    H225696   4.998   0.151   2.589
 8578TIP3   OH225697   4.219   6.283   0.464
 8578TIP3    H125698   4.133   6.244   0.448
 8578TIP3    H225699   4.217   6.307   0.557
 8579TIP3   OH225700   5.672   1.928   4.532
 8579TIP3    H125701   5.623   1.997   4.489
 8579TIP3    H225702   5.725   1.973   4.598
 8580TIP3   OH225703   4.870   0.343   0.543
 8580TIP3    H125704   4.846   0.427   0.584
 8580TIP3    H225705   4.918   0.296   0.611
 8581TIP3   OH225706   2.090   6.397   2.941
 8581TIP3    H125707   2.037   6.392   3.020
 8581TIP3    H225708   2.025   6.403   2.870
 8582TIP3   OH225709   3.349   4.206   3.850
 8582TIP3    H125710   3.423   4.241   3.899
 8582TIP3    H225711   3.294   4.165   3.917
 8583TIP3   OH225712   2.642   4.254   0.127
 8583TIP3    H125713   2.715   4.269   0.067
 8583TIP3    H225714   2.684   4.237   0.211
 8584TIP3   OH225715   1.396   6.124   2.568
 8584TIP3    H125716   1.475   6.108   2.517
 8584TIP3    H225717   1.404   6.066   2.644
 8585TIP3   OH225718   5.428   6.087   2.655
 8585TIP3    H125719   5.400   6.014   2.709
 8585TIP3    H225720   5.367   6.157   2.675
 8586TIP3   OH225721   4.526   1.819   2.517
 8586TIP3    H125722   4.560   1.795   2.430
 8586TIP3    H225723   4.440   1.778   2.520
 8587TIP3   OH225724   3.446   1.398   2.332
 8587TIP3    H125725   3.371   1.452   2.306
 8587TIP3    H225726   3.410   1.334   2.393
 8588TIP3   OH225727   2.608   5.029   1.577
 8588TIP3    H125728   2.516   5.058   1.581
 8588TIP3    H225729   2.637   5.029   1.668
 8589TIP3   OH225730   0.300   6.471   5.560
 8589TIP3    H125731   0.303   6.377   5.580
 8589TIP3    H225732   0.386   6.504   5.585
 8590TIP3   OH225733   0.565   6.770   5.320
 8590TIP3    H125734   0.550   6.776   5.415
 8590TIP3    H225735   0.660   6.763   5.311
 8591TIP3   OH225736   4.644   6.472   5.123
 8591TIP3    H125737   4.699   6.477   5.045
 8591TIP3    H225738   4.564   6.430   5.093
 8592TIP3   OH225739   5.822   3.628   1.841
 8592TIP3    H125740   5.788   3.687   1.774
 8592TIP3    H225741   5.912   3.609   1.814
 8593TIP3   OH225742   0.571   6.435   3.601
 8593TIP3    H125743   0.580   6.364   3.665
 8593TIP3    H225744   0.648   6.427   3.545
 8594TIP3   OH225745   1.641   3.120   0.872
 8594TIP3    H125746   1.670   3.030   0.891
 8594TIP3    H225747   1.569   3.135   0.933
 8595TIP3   OH225748   4.505   4.891   2.859
 8595TIP3    H125749   4.452   4.856   2.788
 8595TIP3    H225750   4.452   4.877   2.938
 8596TIP3   OH225751   1.516   0.197   5.596
 8596TIP3    H125752   1.539   0.276   5.548
 8596TIP3    H225753   1.493   0.133   5.528
 8597TIP3   OH225754   1.962   5.599   0.583
 8597TIP3    H125755   1.920   5.674   0.626
 8597TIP3    H225756   1.917   5.591   0.499
 8598TIP3   OH225757   6.932   5.838   2.887
 8598TIP3    H125758   6.849   5.810   2.925
 8598TIP3    H225759   6.980   5.877   2.960
 8599TIP3   OH225760   3.183   5.161   2.006
 8599TIP3    H125761   3.248   5.172   2.075
 8599TIP3    H225762   3.202   5.075   1.967
 8600TIP3   OH225763   4.117   5.680   0.705
 8600TIP3    H125764   4.095   5.590   0.729
 8600TIP3    H225765   4.150   5.673   0.616
 8601TIP3   OH225766   1.440   0.590   1.833
 8601TIP3    H125767   1.491   0.515   1.803
 8601TIP3    H225768   1.363   0.591   1.776
 8602TIP3   OH225769   4.562   3.377   4.871
 8602TIP3    H125770   4.628   3.404   4.934
 8602TIP3    H225771   4.597   3.298   4.831
 8603TIP3   OH225772   2.041   5.074   3.026
 8603TIP3    H125773   1.966   5.068   3.086
 8603TIP3    H225774   2.087   5.153   3.053
 8604TIP3   OH225775   2.623   1.097   2.909
 8604TIP3    H125776   2.668   1.065   2.986
 8604TIP3    H225777   2.664   1.182   2.891
 8605TIP3   OH225778   3.766   5.741   0.441
 8605TIP3    H125779   3.730   5.652   0.444
 8605TIP3    H225780   3.784   5.757   0.348
 8606TIP3   OH225781   1.279   6.358   5.406
 8606TIP3    H125782   1.259   6.409   5.327
 8606TIP3    H225783   1.282   6.267   5.376
 8607TIP3   OH225784   2.086   6.674   5.618
 8607TIP3    H125785   2.047   6.709   5.698
 8607TIP3    H225786   2.023   6.697   5.550
 8608TIP3   OH225787   3.394   3.931   0.110
 8608TIP3    H125788   3.470   3.954   0.165
 8608TIP3    H225789   3.414   3.971   0.025
 8609TIP3   OH225790   1.255   0.554   3.516
 8609TIP3    H125791   1.295   0.491   3.456
 8609TIP3    H225792   1.282   0.639   3.482
 8610TIP3   OH225793   0.991   1.026   3.230
 8610TIP3    H125794   0.980   1.059   3.141
 8610TIP3    H225795   1.084   1.005   3.237
 8611TIP3   OH225796   6.251   0.109   3.614
 8611TIP3    H125797   6.203   0.117   3.697
 8611TIP3    H225798   6.254   0.198   3.580
 8612TIP3   OH225799   4.866   1.345   0.890
 8612TIP3    H125800   4.910   1.262   0.872
 8612TIP3    H225801   4.788   1.343   0.835
 8613TIP3   OH225802   2.365   5.970   1.529
 8613TIP3    H125803   2.334   5.938   1.614
 8613TIP3    H225804   2.440   5.914   1.509
 8614TIP3   OH225805   4.704   1.482   4.807
 8614TIP3    H125806   4.701   1.577   4.794
 8614TIP3    H225807   4.794   1.458   4.786
 8615TIP3   OH225808   3.746   0.051   0.170
 8615TIP3    H125809   3.778   0.136   0.200
 8615TIP3    H225810   3.697   0.071   0.090
 8616TIP3   OH225811   1.089   0.759   0.245
 8616TIP3    H125812   1.033   0.743   0.169
 8616TIP3    H225813   1.103   0.853   0.245
 8617TIP3   OH225814   5.438   1.933   5.782
 8617TIP3    H125815   5.392   1.863   5.828
 8617TIP3    H225816   5.407   2.014   5.822
 8618TIP3   OH225817   2.151   4.195   2.489
 8618TIP3    H125818   2.191   4.242   2.562
 8618TIP3    H225819   2.096   4.129   2.532
 8619TIP3   OH225820   5.122   0.232   1.218
 8619TIP3    H125821   5.084   0.302   1.272
 8619TIP3    H225822   5.212   0.260   1.203
 8620TIP3   OH225823   2.808   1.329   5.106
 8620TIP3    H125824   2.874   1.380   5.152
 8620TIP3    H225825   2.847   1.312   5.020
 8621TIP3   OH225826   3.488   4.091   2.091
 8621TIP3    H125827   3.529   4.099   2.005
 8621TIP3    H225828   3.420   4.159   2.092
 8622TIP3   OH225829   6.050   3.316   4.537
 8622TIP3    H125830   6.044   3.225   4.506
 8622TIP3    H225831   5.983   3.362   4.486
 8623TIP3   OH225832   2.962   6.376   2.753
 8623TIP3    H125833   3.045   6.332   2.774
 8623TIP3    H225834   2.984   6.468   2.745
 8624TIP3   OH225835   6.442   6.112   2.509
 8624TIP3    H125836   6.378   6.071   2.450
 8624TIP3    H225837   6.425   6.206   2.501
 8625TIP3   OH225838   1.543   3.023   4.861
 8625TIP3    H125839   1.467   3.068   4.900
 8625TIP3    H225840   1.619   3.065   4.902
 8626TIP3   OH225841   0.210   1.569   5.356
 8626TIP3    H125842   0.302   1.590   5.363
 8626TIP3    H225843   0.169   1.647   5.319
 8627TIP3   OH225844   1.927   0.962   2.938
 8627TIP3    H125845   1.852   0.908   2.913
 8627TIP3    H225846   1.901   1.002   3.021
 8628TIP3   OH225847   1.296   2.701   5.577
 8628TIP3    H125848   1.235   2.695   5.503
 8628TIP3    H225849   1.354   2.626   5.566
 8629TIP3   OH225850   2.960   4.357   1.925
 8629TIP3    H125851   2.899   4.429   1.939
 8629TIP3    H225852   2.905   4.282   1.902
 8630TIP3   OH225853   0.024   3.253   5.477
 8630TIP3    H125854   0.085   3.243   5.404
 8630TIP3    H225855  -0.034   3.325   5.451
 8631TIP3   OH225856   2.711   1.461   4.420
 8631TIP3    H125857   2.669   1.400   4.359
 8631TIP3    H225858   2.640   1.519   4.448
 8632TIP3   OH225859   3.912   6.559   5.300
 8632TIP3    H125860   3.926   6.577   5.393
 8632TIP3    H225861   3.862   6.478   5.298
 8633TIP3   OH225862   1.951   3.734   4.689
 8633TIP3    H125863   1.907   3.649   4.691
 8633TIP3    H225864   2.042   3.714   4.711
 8634TIP3   OH225865   2.958   4.678   5.312
 8634TIP3    H125866   2.910   4.759   5.327
 8634TIP3    H225867   2.981   4.648   5.400
 8635TIP3   OH225868   7.072   6.186   1.445
 8635TIP3    H125869   7.162   6.213   1.425
 8635TIP3    H225870   7.078   6.092   1.461
 8636TIP3   OH225871   0.355   2.244   4.103
 8636TIP3    H125872   0.304   2.244   4.023
 8636TIP3    H225873   0.315   2.313   4.157
 8637TIP3   OH225874   5.646   6.014   5.748
 8637TIP3    H125875   5.676   6.069   5.676
 8637TIP3    H225876   5.696   5.933   5.740
 8638TIP3   OH225877   0.456   2.369   3.814
 8638TIP3    H125878   0.505   2.447   3.790
 8638TIP3    H225879   0.502   2.297   3.770
 8639TIP3   OH225880   7.118   4.935   1.632
 8639TIP3    H125881   7.172   4.908   1.707
 8639TIP3    H225882   7.170   4.909   1.555
 8640TIP3   OH225883   7.049   3.345   4.612
 8640TIP3    H125884   6.973   3.306   4.656
 8640TIP3    H225885   7.111   3.272   4.604
 8641TIP3   OH225886   1.700   4.598   0.615
 8641TIP3    H125887   1.781   4.553   0.640
 8641TIP3    H225888   1.631   4.533   0.631
 8642TIP3   OH225889   1.422   0.117   1.142
 8642TIP3    H125890   1.335   0.151   1.124
 8642TIP3    H225891   1.448   0.156   1.225
 8643TIP3   OH225892   3.807   1.594   4.153
 8643TIP3    H125893   3.887   1.606   4.204
 8643TIP3    H225894   3.739   1.634   4.206
 8644TIP3   OH225895   2.796   3.530   3.401
 8644TIP3    H125896   2.775   3.438   3.414
 8644TIP3    H225897   2.803   3.566   3.490
 8645TIP3   OH225898   3.063   6.576   2.989
 8645TIP3    H125899   3.149   6.590   2.950
 8645TIP3    H225900   3.082   6.541   3.076
 8646TIP3   OH225901   0.543   4.359   1.270
 8646TIP3    H125902   0.537   4.402   1.184
 8646TIP3    H225903   0.506   4.272   1.256
 8647TIP3   OH225904   4.547   4.456   0.503
 8647TIP3    H125905   4.559   4.470   0.597
 8647TIP3    H225906   4.469   4.505   0.480
 8648TIP3   OH225907   6.370   0.083   0.639
 8648TIP3    H125908   6.387   0.151   0.705
 8648TIP3    H225909   6.419   0.007   0.669
 8649TIP3   OH225910   2.009   3.742   0.153
 8649TIP3    H125911   1.918   3.716   0.138
 8649TIP3    H225912   2.008   3.783   0.239
 8650TIP3   OH225913   3.054   6.179   0.788
 8650TIP3    H125914   3.098   6.136   0.715
 8650TIP3    H225915   2.974   6.128   0.802
 8651TIP3   OH225916   0.514   2.503   0.820
 8651TIP3    H125917   0.449   2.570   0.843
 8651TIP3    H225918   0.594   2.553   0.800
 8652TIP3   OH225919   6.737   3.543   3.888
 8652TIP3    H125920   6.801   3.561   3.956
 8652TIP3    H225921   6.662   3.506   3.934
 8653TIP3   OH225922   5.369   6.076   5.630
 8653TIP3    H125923   5.404   6.165   5.632
 8653TIP3    H225924   5.409   6.033   5.705
 8654TIP3   OH225925   6.295   1.060   4.846
 8654TIP3    H125926   6.220   1.119   4.860
 8654TIP3    H225927   6.365   1.118   4.816
 8655TIP3   OH225928   1.989   3.130   4.711
 8655TIP3    H125929   1.982   3.041   4.747
 8655TIP3    H225930   1.941   3.127   4.629
 8656TIP3   OH225931   0.364   3.032   5.041
 8656TIP3    H125932   0.360   3.120   5.004
 8656TIP3    H225933   0.380   2.975   4.965
 8657TIP3   OH225934   6.625   6.114   4.803
 8657TIP3    H125935   6.598   6.205   4.794
 8657TIP3    H225936   6.717   6.113   4.778
 8658TIP3   OH225937   3.023   1.413   0.553
 8658TIP3    H125938   2.995   1.404   0.644
 8658TIP3    H225939   3.082   1.340   0.539
 8659TIP3   OH225940   2.589   4.773   3.150
 8659TIP3    H125941   2.588   4.697   3.092
 8659TIP3    H225942   2.626   4.843   3.097
 8660TIP3   OH225943   1.714   3.029   3.185
 8660TIP3    H125944   1.759   3.036   3.101
 8660TIP3    H225945   1.774   2.979   3.240
 8661TIP3   OH225946   6.606   1.082   3.214
 8661TIP3    H125947   6.585   1.145   3.283
 8661TIP3    H225948   6.613   1.134   3.135
 8662TIP3   OH225949   0.988   6.344   4.233
 8662TIP3    H125950   1.053   6.333   4.163
 8662TIP3    H225951   0.977   6.256   4.269
 8663TIP3   OH225952   4.503   2.239   2.936
 8663TIP3    H125953   4.418   2.213   2.903
 8663TIP3    H225954   4.496   2.231   3.031
 8664TIP3   OH225955   1.161   5.800   5.391
 8664TIP3    H125956   1.215   5.749   5.451
 8664TIP3    H225957   1.074   5.759   5.396
 8665TIP3   OH225958   4.342   1.694   0.443
 8665TIP3    H125959   4.352   1.773   0.390
 8665TIP3    H225960   4.255   1.661   0.421
 8666TIP3   OH225961   5.771   6.405   5.400
 8666TIP3    H125962   5.759   6.408   5.305
 8666TIP3    H225963   5.789   6.495   5.426
 8667TIP3   OH225964   2.723   1.183   3.307
 8667TIP3    H125965   2.726   1.206   3.400
 8667TIP3    H225966   2.801   1.224   3.270
 8668TIP3   OH225967   5.517   3.138   1.443
 8668TIP3    H125968   5.610   3.160   1.435
 8668TIP3    H225969   5.515   3.043   1.446
 8669TIP3   OH225970   6.728   5.070   3.122
 8669TIP3    H125971   6.775   4.991   3.096
 8669TIP3    H225972   6.763   5.139   3.066
 8670TIP3   OH225973   0.944   6.480   5.017
 8670TIP3    H125974   0.907   6.425   5.086
 8670TIP3    H225975   0.911   6.441   4.935
 8671TIP3   OH225976   6.708   2.005   4.223
 8671TIP3    H125977   6.790   1.958   4.233
 8671TIP3    H225978   6.647   1.941   4.187
 8672TIP3   OH225979   4.620   4.942   1.221
 8672TIP3    H125980   4.526   4.925   1.214
 8672TIP3    H225981   4.660   4.883   1.157
 8673TIP3   OH225982   6.387   5.125   3.104
 8673TIP3    H125983   6.334   5.198   3.136
 8673TIP3    H225984   6.465   5.167   3.066
 8674TIP3   OH225985   4.661   3.382   0.614
 8674TIP3    H125986   4.702   3.467   0.628
 8674TIP3    H225987   4.733   3.319   0.619
 8675TIP3   OH225988   7.043   1.138   3.595
 8675TIP3    H125989   7.048   1.169   3.685
 8675TIP3    H225990   7.003   1.051   3.602
 8676TIP3   OH225991   5.689   0.521   1.171
 8676TIP3    H125992   5.764   0.466   1.149
 8676TIP3    H225993   5.676   0.507   1.265
 8677TIP3   OH225994   3.240   5.357   1.295
 8677TIP3    H125995   3.159   5.347   1.244
 8677TIP3    H225996   3.216   5.418   1.365
 8678TIP3   OH225997   1.537   6.559   2.722
 8678TIP3    H125998   1.451   6.593   2.694
 8678TIP3    H225999   1.566   6.622   2.788
 8679TIP3   OH226000   0.003   5.702   0.138
 8679TIP3    H126001   0.011   5.608   0.124
 8679TIP3    H226002   0.057   5.741   0.069
 8680TIP3   OH226003   4.694   2.702   1.869
 8680TIP3    H126004   4.738   2.646   1.932
 8680TIP3    H226005   4.705   2.658   1.785
 8681TIP3   OH226006   6.259   4.720   1.213
 8681TIP3    H126007   6.218   4.795   1.168
 8681TIP3    H226008   6.204   4.645   1.189
 8682TIP3   OH226009   1.020   3.876   2.805
 8682TIP3    H126010   1.046   3.813   2.873
 8682TIP3    H226011   1.089   3.871   2.740
 8683TIP3   OH226012   1.289   3.503   5.002
 8683TIP3    H126013   1.263   3.485   4.912
 8683TIP3    H226014   1.209   3.535   5.044
 8684TIP3   OH226015   3.097   4.207   0.776
 8684TIP3    H126016   3.048   4.127   0.756
 8684TIP3    H226017   3.139   4.230   0.693
 8685TIP3   OH226018   0.946   4.356   0.838
 8685TIP3    H126019   0.867   4.375   0.889
 8685TIP3    H226020   0.941   4.416   0.763
 8686TIP3   OH226021   1.226   6.376   4.406
 8686TIP3    H126022   1.194   6.313   4.469
 8686TIP3    H226023   1.162   6.374   4.335
 8687TIP3   OH226024   1.324   3.410   1.922
 8687TIP3    H126025   1.311   3.357   1.843
 8687TIP3    H226026   1.241   3.456   1.934
 8688TIP3   OH226027   2.410   0.561   4.901
 8688TIP3    H126028   2.424   0.505   4.977
 8688TIP3    H226029   2.434   0.506   4.826
 8689TIP3   OH226030   4.803   3.924   5.453
 8689TIP3    H126031   4.749   3.889   5.382
 8689TIP3    H226032   4.880   3.867   5.456
 8690TIP3   OH226033   0.215   6.235   5.202
 8690TIP3    H126034   0.256   6.176   5.138
 8690TIP3    H226035   0.268   6.315   5.197
 8691TIP3   OH226036   1.493   2.535   2.682
 8691TIP3    H126037   1.580   2.498   2.695
 8691TIP3    H226038   1.441   2.500   2.755
 8692TIP3   OH226039   1.681   6.222   4.836
 8692TIP3    H126040   1.638   6.308   4.842
 8692TIP3    H226041   1.727   6.223   4.753
 8693TIP3   OH226042   1.157   6.708   1.716
 8693TIP3    H126043   1.159   6.633   1.775
 8693TIP3    H226044   1.213   6.682   1.643
 8694TIP3   OH226045   3.033   0.659   1.157
 8694TIP3    H126046   3.025   0.596   1.229
 8694TIP3    H226047   3.056   0.605   1.081
 8695TIP3   OH226048   0.061   1.292   3.849
 8695TIP3    H126049  -0.021   1.250   3.824
 8695TIP3    H226050   0.042   1.336   3.932
 8696TIP3   OH226051   1.349   2.358   5.087
 8696TIP3    H126052   1.363   2.268   5.060
 8696TIP3    H226053   1.355   2.356   5.182
 8697TIP3   OH226054   6.901   5.610   3.841
 8697TIP3    H126055   6.935   5.697   3.821
 8697TIP3    H226056   6.908   5.562   3.759
 8698TIP3   OH226057   1.724   3.221   1.974
 8698TIP3    H126058   1.747   3.313   1.957
 8698TIP3    H226059   1.697   3.219   2.065
 8699TIP3   OH226060   5.963   4.838   2.970
 8699TIP3    H126061   5.958   4.744   2.955
 8699TIP3    H226062   6.055   4.860   2.960
 8700TIP3   OH226063   4.523   6.043   2.054
 8700TIP3    H126064   4.482   6.113   2.002
 8700TIP3    H226065   4.613   6.039   2.021
 8701TIP3   OH226066   7.019   3.748   0.985
 8701TIP3    H126067   6.974   3.823   1.024
 8701TIP3    H226068   6.954   3.710   0.926
 8702TIP3   OH226069   2.530   3.209   3.031
 8702TIP3    H126070   2.572   3.193   3.115
 8702TIP3    H226071   2.450   3.156   3.033
 8703TIP3   OH226072   3.542   5.957   0.536
 8703TIP3    H126073   3.505   5.901   0.604
 8703TIP3    H226074   3.551   5.899   0.460
 8704TIP3   OH226075   4.067   4.609   2.202
 8704TIP3    H126076   4.141   4.625   2.261
 8704TIP3    H226077   3.990   4.631   2.255
 8705TIP3   OH226078   6.672   2.542   0.519
 8705TIP3    H126079   6.678   2.637   0.521
 8705TIP3    H226080   6.678   2.515   0.611
 8706TIP3   OH226081   5.207   0.681   4.229
 8706TIP3    H126082   5.247   0.714   4.148
 8706TIP3    H226083   5.267   0.708   4.298
 8707TIP3   OH226084   0.204   1.000   1.669
 8707TIP3    H126085   0.124   0.995   1.616
 8707TIP3    H226086   0.174   1.037   1.753
 8708TIP3   OH226087   4.630   1.202   5.835
 8708TIP3    H126088   4.618   1.211   5.741
 8708TIP3    H226089   4.725   1.199   5.846
 8709TIP3   OH226090   2.390   4.720   0.128
 8709TIP3    H126091   2.313   4.737   0.183
 8709TIP3    H226092   2.375   4.771   0.048
 8710TIP3   OH226093   0.565   1.644   1.356
 8710TIP3    H126094   0.513   1.583   1.409
 8710TIP3    H226095   0.550   1.730   1.395
 8711TIP3   OH226096   6.656   5.427   5.685
 8711TIP3    H126097   6.670   5.442   5.778
 8711TIP3    H226098   6.710   5.492   5.641
 8712TIP3   OH226099   2.790   2.917   0.745
 8712TIP3    H126100   2.766   2.853   0.812
 8712TIP3    H226101   2.779   3.002   0.787
 8713TIP3   OH226102   6.749   4.895   5.260
 8713TIP3    H126103   6.803   4.971   5.238
 8713TIP3    H226104   6.732   4.852   5.176
 8714TIP3   OH226105   0.117   3.205   0.996
 8714TIP3    H126106   0.136   3.211   1.089
 8714TIP3    H226107   0.047   3.140   0.990
 8715TIP3   OH226108   4.122   1.392   0.540
 8715TIP3    H126109   4.168   1.395   0.624
 8715TIP3    H226110   4.132   1.481   0.505
 8716TIP3   OH226111   3.902   4.033   5.089
 8716TIP3    H126112   3.833   4.085   5.130
 8716TIP3    H226113   3.976   4.093   5.081
 8717TIP3   OH226114   3.416   2.349   3.373
 8717TIP3    H126115   3.511   2.338   3.383
 8717TIP3    H226116   3.380   2.319   3.456
 8718TIP3   OH226117   2.037   5.508   1.024
 8718TIP3    H126118   2.081   5.532   1.105
 8718TIP3    H226119   2.094   5.442   0.984
 8719TIP3   OH226120   4.363   1.844   1.913
 8719TIP3    H126121   4.302   1.884   1.850
 8719TIP3    H226122   4.430   1.803   1.858
 8720TIP3   OH226123   5.110   1.373   2.935
 8720TIP3    H126124   5.059   1.293   2.941
 8720TIP3    H226125   5.198   1.344   2.911
 8721TIP3   OH226126   4.214   2.862   5.143
 8721TIP3    H126127   4.142   2.803   5.118
 8721TIP3    H226128   4.175   2.950   5.138
 8722TIP3   OH226129   4.813   0.577   4.047
 8722TIP3    H126130   4.857   0.617   3.972
 8722TIP3    H226131   4.746   0.521   4.010
 8723TIP3   OH226132   5.127   5.621   1.748
 8723TIP3    H126133   5.113   5.713   1.727
 8723TIP3    H226134   5.064   5.602   1.817
 8724TIP3   OH226135   2.597   1.996   3.347
 8724TIP3    H126136   2.595   2.087   3.378
 8724TIP3    H226137   2.602   2.003   3.251
 8725TIP3   OH226138   7.147   0.589   4.711
 8725TIP3    H126139   7.165   0.670   4.663
 8725TIP3    H226140   7.129   0.524   4.644
 8726TIP3   OH226141   4.753   3.110   0.506
 8726TIP3    H126142   4.813   3.042   0.477
 8726TIP3    H226143   4.675   3.062   0.534
 8727TIP3   OH226144   2.935   1.809   1.691
 8727TIP3    H126145   2.966   1.898   1.672
 8727TIP3    H226146   2.967   1.791   1.779
 8728TIP3   OH226147   1.645   0.659   3.939
 8728TIP3    H126148   1.730   0.654   3.893
 8728TIP3    H226149   1.582   0.676   3.869
 8729TIP3   OH226150   6.265   4.078   5.027
 8729TIP3    H126151   6.249   4.037   4.941
 8729TIP3    H226152   6.178   4.089   5.064
 8730TIP3   OH226153   5.316   2.118   5.379
 8730TIP3    H126154   5.267   2.148   5.303
 8730TIP3    H226155   5.252   2.117   5.450
 8731TIP3   OH226156   0.416   2.006   2.343
 8731TIP3    H126157   0.327   1.986   2.317
 8731TIP3    H226158   0.453   1.923   2.371
 8732TIP3   OH226159   3.823   4.710   4.237
 8732TIP3    H126160   3.798   4.689   4.326
 8732TIP3    H226161   3.744   4.695   4.185
 8733TIP3   OH226162   1.074   0.366   4.711
 8733TIP3    H126163   1.164   0.397   4.697
 8733TIP3    H226164   1.023   0.446   4.723
 8734TIP3   OH226165   4.283   6.576   1.917
 8734TIP3    H126166   4.371   6.560   1.949
 8734TIP3    H226167   4.246   6.488   1.903
 8735TIP3   OH226168   0.296   3.108   4.658
 8735TIP3    H126169   0.226   3.055   4.621
 8735TIP3    H226170   0.366   3.046   4.676
 8736TIP3   OH226171   4.046   2.914   5.628
 8736TIP3    H126172   4.032   2.946   5.539
 8736TIP3    H226173   3.957   2.902   5.663
 8737TIP3   OH226174   0.939   2.382   2.095
 8737TIP3    H126175   1.008   2.319   2.073
 8737TIP3    H226176   0.927   2.372   2.189
 8738TIP3   OH226177   5.480   4.067   4.649
 8738TIP3    H126178   5.417   4.042   4.582
 8738TIP3    H226179   5.427   4.107   4.718
 8739TIP3   OH226180   1.759   4.349   3.275
 8739TIP3    H126181   1.705   4.301   3.338
 8739TIP3    H226182   1.745   4.441   3.297
 8740TIP3   OH226183   1.474   4.281   5.748
 8740TIP3    H126184   1.456   4.218   5.679
 8740TIP3    H226185   1.431   4.362   5.719
 8741TIP3   OH226186   2.663   4.553   0.310
 8741TIP3    H126187   2.625   4.492   0.246
 8741TIP3    H226188   2.606   4.546   0.387
 8742TIP3   OH226189   0.311   4.217   2.151
 8742TIP3    H126190   0.331   4.300   2.195
 8742TIP3    H226191   0.280   4.160   2.221
 8743TIP3   OH226192   4.406   3.212   3.380
 8743TIP3    H126193   4.330   3.233   3.325
 8743TIP3    H226194   4.443   3.133   3.341
 8744TIP3   OH226195   1.877   2.912   4.891
 8744TIP3    H126196   1.842   2.971   4.957
 8744TIP3    H226197   1.811   2.844   4.882
 8745TIP3   OH226198   4.236   4.866   2.275
 8745TIP3    H126199   4.270   4.782   2.307
 8745TIP3    H226200   4.296   4.890   2.204
 8746TIP3   OH226201   1.643   2.983   1.216
 8746TIP3    H126202   1.611   2.895   1.238
 8746TIP3    H226203   1.563   3.036   1.208
 8747TIP3   OH226204   1.595   6.568   3.951
 8747TIP3    H126205   1.542   6.546   3.875
 8747TIP3    H226206   1.684   6.546   3.926
 8748TIP3   OH226207   3.489   3.327   5.413
 8748TIP3    H126208   3.448   3.341   5.498
 8748TIP3    H226209   3.416   3.321   5.352
 8749TIP3   OH226210   0.056   1.687   3.910
 8749TIP3    H126211   0.079   1.780   3.906
 8749TIP3    H226212   0.122   1.649   3.969
 8750TIP3   OH226213   4.204   1.738   2.126
 8750TIP3    H126214   4.276   1.782   2.080
 8750TIP3    H226215   4.153   1.809   2.165
 8751TIP3   OH226216   0.892   1.292   0.469
 8751TIP3    H126217   0.866   1.287   0.561
 8751TIP3    H226218   0.920   1.203   0.447
 8752TIP3   OH226219   2.519   3.823   0.605
 8752TIP3    H126220   2.559   3.875   0.676
 8752TIP3    H226221   2.474   3.752   0.650
 8753TIP3   OH226222   0.822   6.080   1.184
 8753TIP3    H126223   0.830   6.027   1.104
 8753TIP3    H226224   0.886   6.150   1.173
 8754TIP3   OH226225   2.878   2.769   5.592
 8754TIP3    H126226   2.791   2.783   5.630
 8754TIP3    H226227   2.937   2.816   5.652
 8755TIP3   OH226228   5.524   1.107   0.896
 8755TIP3    H126229   5.586   1.036   0.910
 8755TIP3    H226230   5.569   1.167   0.837
 8756TIP3   OH226231   2.873   1.926   2.132
 8756TIP3    H126232   2.786   1.938   2.172
 8756TIP3    H226233   2.910   2.014   2.127
 8757TIP3   OH226234   5.133   6.657   1.648
 8757TIP3    H126235   5.121   6.605   1.569
 8757TIP3    H226236   5.123   6.595   1.720
 8758TIP3   OH226237   4.168   4.565   3.016
 8758TIP3    H126238   4.118   4.621   2.956
 8758TIP3    H226239   4.134   4.477   3.001
 8759TIP3   OH226240   4.168   1.030   1.956
 8759TIP3    H126241   4.077   1.015   1.981
 8759TIP3    H226242   4.212   0.947   1.973
 8760TIP3   OH226243   5.988   1.898   4.325
 8760TIP3    H126244   5.939   1.831   4.374
 8760TIP3    H226245   6.009   1.965   4.391
 8761TIP3   OH226246   2.352   4.154   4.667
 8761TIP3    H126247   2.441   4.150   4.630
 8761TIP3    H226248   2.361   4.210   4.744
 8762TIP3   OH226249   6.323   2.214   2.106
 8762TIP3    H126250   6.327   2.121   2.083
 8762TIP3    H226251   6.382   2.223   2.181
 8763TIP3   OH226252   2.339   1.026   4.353
 8763TIP3    H126253   2.244   1.040   4.358
 8763TIP3    H226254   2.372   1.102   4.306
 8764TIP3   OH226255   1.475   3.699   3.968
 8764TIP3    H126256   1.524   3.627   3.928
 8764TIP3    H226257   1.399   3.658   4.009
 8765TIP3   OH226258   6.743   2.845   5.335
 8765TIP3    H126259   6.681   2.788   5.379
 8765TIP3    H226260   6.689   2.905   5.285
 8766TIP3   OH226261   6.321   5.121   0.915
 8766TIP3    H126262   6.394   5.065   0.941
 8766TIP3    H226263   6.291   5.161   0.996
 8767TIP3   OH226264   1.918   5.832   3.053
 8767TIP3    H126265   1.848   5.837   3.119
 8767TIP3    H226266   1.926   5.922   3.020
 8768TIP3   OH226267   1.398   4.226   2.338
 8768TIP3    H126268   1.361   4.186   2.260
 8768TIP3    H226269   1.362   4.314   2.340
 8769TIP3   OH226270   1.514   0.474   0.563
 8769TIP3    H126271   1.589   0.414   0.566
 8769TIP3    H226272   1.506   0.507   0.652
 8770TIP3   OH226273   7.011   1.196   3.856
 8770TIP3    H126274   7.014   1.115   3.908
 8770TIP3    H226275   6.967   1.259   3.913
 8771TIP3   OH226276   2.022   0.593   0.106
 8771TIP3    H126277   2.077   0.547   0.170
 8771TIP3    H226278   2.056   0.683   0.105
 8772TIP3   OH226279   0.816   5.550   0.963
 8772TIP3    H126280   0.881   5.480   0.954
 8772TIP3    H226281   0.807   5.585   0.874
 8773TIP3   OH226282   4.378   1.678   0.715
 8773TIP3    H126283   4.469   1.646   0.718
 8773TIP3    H226284   4.360   1.688   0.621
 8774TIP3   OH226285   3.218   4.758   3.113
 8774TIP3    H126286   3.233   4.664   3.125
 8774TIP3    H226287   3.281   4.800   3.172
 8775TIP3   OH226288   6.569   3.311   0.603
 8775TIP3    H126289   6.617   3.394   0.605
 8775TIP3    H226290   6.508   3.321   0.530
 8776TIP3   OH226291   4.294   3.205   1.228
 8776TIP3    H126292   4.278   3.232   1.319
 8776TIP3    H226293   4.378   3.160   1.231
 8777TIP3   OH226294   1.556   2.975   1.644
 8777TIP3    H126295   1.573   2.904   1.706
 8777TIP3    H226296   1.634   2.978   1.589
 8778TIP3   OH226297   1.552   3.888   3.753
 8778TIP3    H126298   1.632   3.838   3.767
 8778TIP3    H226299   1.502   3.876   3.834
 8779TIP3   OH226300   6.269   3.209   4.709
 8779TIP3    H126301   6.186   3.252   4.686
 8779TIP3    H226302   6.246   3.117   4.722
 8780TIP3   OH226303   1.339   6.269   5.058
 8780TIP3    H126304   1.361   6.224   4.976
 8780TIP3    H226305   1.243   6.270   5.059
 8781TIP3   OH226306   2.017   4.747   2.675
 8781TIP3    H126307   2.067   4.680   2.721
 8781TIP3    H226308   2.030   4.826   2.727
 8782TIP3   OH226309   3.383   6.606   3.007
 8782TIP3    H126310   3.328   6.641   3.077
 8782TIP3    H226311   3.438   6.680   2.981
 8783TIP3   OH226312   6.742   6.781   2.512
 8783TIP3    H126313   6.829   6.742   2.500
 8783TIP3    H226314   6.681   6.713   2.485
 8784TIP3   OH226315   2.288   6.318   0.721
 8784TIP3    H126316   2.373   6.319   0.765
 8784TIP3    H226317   2.266   6.226   0.712
 8785TIP3   OH226318   1.072   5.601   3.366
 8785TIP3    H126319   1.003   5.654   3.327
 8785TIP3    H226320   1.153   5.645   3.339
 8786TIP3   OH226321   3.483   1.753   2.420
 8786TIP3    H126322   3.551   1.819   2.428
 8786TIP3    H226323   3.447   1.766   2.332
 8787TIP3   OH226324   2.172   4.069   0.788
 8787TIP3    H126325   2.093   4.094   0.837
 8787TIP3    H226326   2.219   4.011   0.847
 8788TIP3   OH226327   6.896   3.786   0.172
 8788TIP3    H126328   6.984   3.750   0.179
 8788TIP3    H226329   6.895   3.830   0.087
 8789TIP3   OH226330   1.353   0.380   0.325
 8789TIP3    H126331   1.420   0.404   0.388
 8789TIP3    H226332   1.338   0.460   0.274
 8790TIP3   OH226333   5.152   2.439   0.830
 8790TIP3    H126334   5.240   2.429   0.793
 8790TIP3    H226335   5.146   2.533   0.849
 8791TIP3   OH226336   1.657   3.102   2.620
 8791TIP3    H126337   1.682   3.050   2.543
 8791TIP3    H226338   1.672   3.193   2.593
 8792TIP3   OH226339   0.301   0.648   3.520
 8792TIP3    H126340   0.212   0.653   3.484
 8792TIP3    H226341   0.339   0.733   3.502
 8793TIP3   OH226342   4.678   1.298   3.509
 8793TIP3    H126343   4.652   1.211   3.538
 8793TIP3    H226344   4.710   1.341   3.588
 8794TIP3   OH226345   2.572   6.283   0.857
 8794TIP3    H126346   2.625   6.203   0.863
 8794TIP3    H226347   2.562   6.312   0.947
 8795TIP3   OH226348   2.516   1.539   5.828
 8795TIP3    H126349   2.435   1.492   5.809
 8795TIP3    H226350   2.579   1.505   5.764
 8796TIP3   OH226351   5.598   5.063   3.659
 8796TIP3    H126352   5.597   5.138   3.719
 8796TIP3    H226353   5.691   5.044   3.646
 8797TIP3   OH226354   0.944   4.417   3.239
 8797TIP3    H126355   0.946   4.512   3.230
 8797TIP3    H226356   1.003   4.385   3.171
 8798TIP3   OH226357   0.447   4.459   5.182
 8798TIP3    H126358   0.452   4.447   5.087
 8798TIP3    H226359   0.508   4.394   5.218
 8799TIP3   OH226360   4.905   2.902   0.414
 8799TIP3    H126361   4.998   2.907   0.390
 8799TIP3    H226362   4.868   2.835   0.358
 8800TIP3   OH226363   1.858   4.269   2.006
 8800TIP3    H126364   1.927   4.202   2.006
 8800TIP3    H226365   1.893   4.338   1.949
 8801TIP3   OH226366   2.619   2.901   3.292
 8801TIP3    H126367   2.545   2.941   3.338
 8801TIP3    H226368   2.611   2.808   3.311
 8802TIP3   OH226369   4.776   0.512   2.926
 8802TIP3    H126370   4.753   0.451   2.997
 8802TIP3    H226371   4.804   0.455   2.854
 8803TIP3   OH226372   0.252   2.433   4.311
 8803TIP3    H126373   0.283   2.427   4.402
 8803TIP3    H226374   0.159   2.451   4.319
 8804TIP3   OH226375   1.529   6.464   0.968
 8804TIP3    H126376   1.445   6.487   1.006
 8804TIP3    H226377   1.593   6.515   1.018
 8805TIP3   OH226378   4.060   2.291   1.011
 8805TIP3    H126379   4.094   2.202   1.019
 8805TIP3    H226380   4.133   2.342   0.975
 8806TIP3   OH226381   2.488   0.948   2.213
 8806TIP3    H126382   2.424   0.884   2.183
 8806TIP3    H226383   2.437   1.014   2.259
 8807TIP3   OH226384   6.598   3.111   3.478
 8807TIP3    H126385   6.691   3.101   3.460
 8807TIP3    H226386   6.556   3.105   3.392
 8808TIP3   OH226387   2.119   5.830   4.360
 8808TIP3    H126388   2.206   5.793   4.343
 8808TIP3    H226389   2.113   5.906   4.301
 8809TIP3   OH226390   6.905   0.721   0.883
 8809TIP3    H126391   6.924   0.659   0.812
 8809TIP3    H226392   6.819   0.694   0.916
 8810TIP3   OH226393   2.069   0.138   3.619
 8810TIP3    H126394   2.088   0.232   3.614
 8810TIP3    H226395   1.983   0.134   3.661
 8811TIP3   OH226396   4.422   0.505   4.332
 8811TIP3    H126397   4.407   0.490   4.426
 8811TIP3    H226398   4.517   0.496   4.321
 8812TIP3   OH226399   2.979   4.206   2.831
 8812TIP3    H126400   3.064   4.171   2.857
 8812TIP3    H226401   2.949   4.147   2.762
 8813TIP3   OH226402   1.358   1.750   1.357
 8813TIP3    H126403   1.406   1.686   1.409
 8813TIP3    H226404   1.376   1.834   1.400
 8814TIP3   OH226405   5.508   2.164   3.138
 8814TIP3    H126406   5.446   2.093   3.156
 8814TIP3    H226407   5.455   2.243   3.139
 8815TIP3   OH226408   2.731   6.020   4.329
 8815TIP3    H126409   2.797   5.959   4.296
 8815TIP3    H226410   2.749   6.102   4.283
 8816TIP3   OH226411   2.002   0.622   3.445
 8816TIP3    H126412   2.030   0.673   3.369
 8816TIP3    H226413   1.928   0.670   3.481
 8817TIP3   OH226414   1.521   6.782   1.155
 8817TIP3    H126415   1.515   6.804   1.062
 8817TIP3    H226416   1.578   6.705   1.157
 8818TIP3   OH226417   6.933   4.684   2.725
 8818TIP3    H126418   6.969   4.727   2.803
 8818TIP3    H226419   6.913   4.595   2.754
 8819TIP3   OH226420   6.964   4.862   1.154
 8819TIP3    H126421   7.035   4.927   1.158
 8819TIP3    H226422   6.910   4.881   1.230
 8820TIP3   OH226423   2.377   1.860   0.125
 8820TIP3    H126424   2.324   1.922   0.076
 8820TIP3    H226425   2.412   1.801   0.059
 8821TIP3   OH226426   2.084   0.302   0.135
 8821TIP3    H126427   2.123   0.365   0.075
 8821TIP3    H226428   2.097   0.217   0.093
 8822TIP3   OH226429   6.595   1.348   2.368
 8822TIP3    H126430   6.598   1.444   2.358
 8822TIP3    H226431   6.615   1.334   2.461
 8823TIP3   OH226432   2.576   4.979   5.845
 8823TIP3    H126433   2.538   4.916   5.906
 8823TIP3    H226434   2.669   4.980   5.867
 8824TIP3   OH226435   0.460   1.234   0.305
 8824TIP3    H126436   0.421   1.180   0.236
 8824TIP3    H226437   0.426   1.322   0.287
 8825TIP3   OH226438   0.526   1.795   0.977
 8825TIP3    H126439   0.468   1.763   0.908
 8825TIP3    H226440   0.472   1.858   1.026
 8826TIP3   OH226441   6.540   6.140   0.425
 8826TIP3    H126442   6.519   6.047   0.423
 8826TIP3    H226443   6.577   6.154   0.512
 8827TIP3   OH226444   4.266   4.300   3.274
 8827TIP3    H126445   4.175   4.330   3.267
 8827TIP3    H226446   4.267   4.215   3.231
 8828TIP3   OH226447   6.236   0.986   5.106
 8828TIP3    H126448   6.282   1.014   5.027
 8828TIP3    H226449   6.240   0.890   5.104
 8829TIP3   OH226450   2.885   0.589   5.049
 8829TIP3    H126451   2.978   0.596   5.066
 8829TIP3    H226452   2.874   0.502   5.009
 8830TIP3   OH226453   6.131   3.737   2.660
 8830TIP3    H126454   6.090   3.704   2.740
 8830TIP3    H226455   6.057   3.759   2.603
 8831TIP3   OH226456   4.893   1.135   3.625
 8831TIP3    H126457   4.807   1.135   3.667
 8831TIP3    H226458   4.884   1.073   3.552
 8832TIP3   OH226459   4.936   0.376   0.219
 8832TIP3    H126460   4.916   0.448   0.159
 8832TIP3    H226461   5.030   0.363   0.211
 8833TIP3   OH226462   1.921   4.794   4.896
 8833TIP3    H126463   1.832   4.828   4.912
 8833TIP3    H226464   1.912   4.699   4.904
 8834TIP3   OH226465   0.186   4.574   5.213
 8834TIP3    H126466   0.279   4.564   5.195
 8834TIP3    H226467   0.160   4.489   5.250
 8835TIP3   OH226468   4.515   2.507   3.271
 8835TIP3    H126469   4.588   2.569   3.275
 8835TIP3    H226470   4.455   2.546   3.208
 8836TIP3   OH226471   1.449   6.557   0.602
 8836TIP3    H126472   1.449   6.465   0.630
 8836TIP3    H226473   1.512   6.560   0.530
 8837TIP3   OH226474   3.433   4.416   5.835
 8837TIP3    H126475   3.426   4.337   5.781
 8837TIP3    H226476   3.343   4.448   5.842
 8838TIP3   OH226477   2.759   6.277   4.218
 8838TIP3    H126478   2.683   6.306   4.269
 8838TIP3    H226479   2.835   6.308   4.268
 8839TIP3   OH226480   0.301   6.425   1.658
 8839TIP3    H126481   0.339   6.469   1.583
 8839TIP3    H226482   0.332   6.335   1.652
 8840TIP3   OH226483   2.369   6.625   4.912
 8840TIP3    H126484   2.403   6.543   4.946
 8840TIP3    H226485   2.294   6.600   4.858
 8841TIP3   OH226486   3.039   0.246   0.928
 8841TIP3    H126487   3.066   0.337   0.918
 8841TIP3    H226488   3.101   0.197   0.874
 8842TIP3   OH226489   5.357   0.104   3.581
 8842TIP3    H126490   5.403   0.180   3.546
 8842TIP3    H226491   5.399   0.088   3.666
 8843TIP3   OH226492   6.590   6.564   1.118
 8843TIP3    H126493   6.577   6.487   1.174
 8843TIP3    H226494   6.572   6.638   1.175
 8844TIP3   OH226495   4.966   1.295   1.849
 8844TIP3    H126496   4.982   1.389   1.843
 8844TIP3    H226497   5.006   1.259   1.770
 8845TIP3   OH226498   6.092   5.380   4.843
 8845TIP3    H126499   6.006   5.371   4.884
 8845TIP3    H226500   6.148   5.414   4.912
 8846TIP3   OH226501   6.500   2.394   1.334
 8846TIP3    H126502   6.579   2.374   1.284
 8846TIP3    H226503   6.430   2.392   1.268
 8847TIP3   OH226504   5.167   6.486   1.432
 8847TIP3    H126505   5.261   6.503   1.434
 8847TIP3    H226506   5.159   6.392   1.422
 8848TIP3   OH226507   3.185   3.322   4.075
 8848TIP3    H126508   3.091   3.323   4.091
 8848TIP3    H226509   3.219   3.258   4.137
 8849TIP3   OH226510   4.282   1.249   5.560
 8849TIP3    H126511   4.210   1.247   5.623
 8849TIP3    H226512   4.240   1.266   5.476
 8850TIP3   OH226513   1.085   6.734   5.300
 8850TIP3    H126514   1.101   6.680   5.223
 8850TIP3    H226515   1.131   6.689   5.371
 8851TIP3   OH226516   3.136   6.125   0.199
 8851TIP3    H126517   3.222   6.149   0.164
 8851TIP3    H226518   3.105   6.204   0.243
 8852TIP3   OH226519   7.075   2.865   3.375
 8852TIP3    H126520   7.126   2.841   3.452
 8852TIP3    H226521   6.998   2.809   3.378
 8853TIP3   OH226522   6.965   6.425   2.038
 8853TIP3    H126523   6.880   6.432   2.080
 8853TIP3    H226524   6.949   6.451   1.947
 8854TIP3   OH226525   2.462   4.039   1.701
 8854TIP3    H126526   2.498   3.953   1.723
 8854TIP3    H226527   2.527   4.076   1.640
 8855TIP3   OH226528   6.257   3.366   4.077
 8855TIP3    H126529   6.198   3.343   4.005
 8855TIP3    H226530   6.213   3.438   4.121
 8856TIP3   OH226531   0.642   5.517   4.112
 8856TIP3    H126532   0.691   5.592   4.145
 8856TIP3    H226533   0.635   5.534   4.018
 8857TIP3   OH226534   4.676   3.721   2.644
 8857TIP3    H126535   4.759   3.674   2.654
 8857TIP3    H226536   4.623   3.665   2.587
 8858TIP3   OH226537   4.721   2.943   1.059
 8858TIP3    H126538   4.780   2.967   1.131
 8858TIP3    H226539   4.767   2.873   1.013
 8859TIP3   OH226540   4.277   3.376   2.951
 8859TIP3    H126541   4.326   3.399   3.031
 8859TIP3    H226542   4.313   3.435   2.884
 8860TIP3   OH226543   2.512   1.534   5.336
 8860TIP3    H126544   2.458   1.500   5.265
 8860TIP3    H226545   2.512   1.629   5.323
 8861TIP3   OH226546   5.079   5.212   0.979
 8861TIP3    H126547   5.097   5.157   1.055
 8861TIP3    H226548   5.163   5.253   0.959
 8862TIP3   OH226549   2.070   3.003   3.777
 8862TIP3    H126550   2.155   3.047   3.770
 8862TIP3    H226551   2.039   3.024   3.865
 8863TIP3   OH226552   6.130   2.904   4.020
 8863TIP3    H126553   6.064   2.968   4.046
 8863TIP3    H226554   6.129   2.907   3.924
 8864TIP3   OH226555   0.186   5.176   4.954
 8864TIP3    H126556   0.219   5.105   4.899
 8864TIP3    H226557   0.150   5.133   5.031
 8865TIP3   OH226558   0.969   6.558   2.781
 8865TIP3    H126559   0.923   6.494   2.727
 8865TIP3    H226560   0.900   6.618   2.811
 8866TIP3   OH226561   3.591   4.993   1.977
 8866TIP3    H126562   3.684   4.971   1.976
 8866TIP3    H226563   3.551   4.935   1.913
 8867TIP3   OH226564   5.423   0.290   3.855
 8867TIP3    H126565   5.349   0.273   3.796
 8867TIP3    H226566   5.382   0.306   3.940
 8868TIP3   OH226567   3.466   1.950   4.297
 8868TIP3    H126568   3.399   2.006   4.259
 8868TIP3    H226569   3.471   1.977   4.389
 8869TIP3   OH226570   7.037   3.816   0.449
 8869TIP3    H126571   7.075   3.869   0.519
 8869TIP3    H226572   7.072   3.855   0.368
 8870TIP3   OH226573   3.897   5.056   1.083
 8870TIP3    H126574   3.837   5.129   1.097
 8870TIP3    H226575   3.926   5.032   1.171
 8871TIP3   OH226576   6.579   3.097   1.966
 8871TIP3    H126577   6.616   3.185   1.974
 8871TIP3    H226578   6.581   3.062   2.055
 8872TIP3   OH226579   2.433   4.596   3.412
 8872TIP3    H126580   2.401   4.629   3.495
 8872TIP3    H226581   2.427   4.671   3.352
 8873TIP3   OH226582   1.655   2.873   4.218
 8873TIP3    H126583   1.574   2.829   4.192
 8873TIP3    H226584   1.628   2.960   4.246
 8874TIP3   OH226585   5.112   1.604   2.615
 8874TIP3    H126586   5.051   1.657   2.565
 8874TIP3    H226587   5.132   1.656   2.693
 8875TIP3   OH226588   1.122   0.260   5.310
 8875TIP3    H126589   1.052   0.280   5.248
 8875TIP3    H226590   1.076   0.241   5.392
 8876TIP3   OH226591   4.627   5.159   2.790
 8876TIP3    H126592   4.571   5.082   2.795
 8876TIP3    H226593   4.623   5.187   2.699
 8877TIP3   OH226594   0.059   1.384   5.218
 8877TIP3    H126595   0.109   1.431   5.284
 8877TIP3    H226596   0.120   1.370   5.146
 8878TIP3   OH226597   3.948   6.238   1.100
 8878TIP3    H126598   4.006   6.220   1.025
 8878TIP3    H226599   3.875   6.177   1.089
 8879TIP3   OH226600   1.764   3.659   3.831
 8879TIP3    H126601   1.724   3.602   3.765
 8879TIP3    H226602   1.810   3.726   3.782
 8880TIP3   OH226603   5.099   0.102   3.655
 8880TIP3    H126604   5.195   0.108   3.651
 8880TIP3    H226605   5.079   0.015   3.622
 8881TIP3   OH226606   6.551   3.899   5.777
 8881TIP3    H126607   6.551   3.921   5.684
 8881TIP3    H226608   6.574   3.807   5.781
 8882TIP3   OH226609   3.056   0.105   4.422
 8882TIP3    H126610   3.112   0.056   4.482
 8882TIP3    H226611   3.116   0.165   4.377
 8883TIP3   OH226612   6.676   4.957   2.408
 8883TIP3    H126613   6.760   4.917   2.434
 8883TIP3    H226614   6.614   4.927   2.474
 8884TIP3   OH226615   6.008   5.883   1.506
 8884TIP3    H126616   6.080   5.936   1.538
 8884TIP3    H226617   6.036   5.852   1.420
 8885TIP3   OH226618   1.360   5.412   1.152
 8885TIP3    H126619   1.445   5.409   1.195
 8885TIP3    H226620   1.300   5.446   1.219
 8886TIP3   OH226621   6.288   2.014   0.366
 8886TIP3    H126622   6.290   2.105   0.396
 8886TIP3    H226623   6.218   2.011   0.302
 8887TIP3   OH226624   6.699   2.292   4.582
 8887TIP3    H126625   6.718   2.281   4.675
 8887TIP3    H226626   6.675   2.204   4.552
 8888TIP3   OH226627   3.256   2.281   3.618
 8888TIP3    H126628   3.179   2.303   3.669
 8888TIP3    H226629   3.294   2.206   3.662
 8889TIP3   OH226630   2.058   5.204   3.622
 8889TIP3    H126631   2.136   5.228   3.572
 8889TIP3    H226632   2.025   5.125   3.579
 8890TIP3   OH226633   6.455   5.371   4.578
 8890TIP3    H126634   6.362   5.354   4.561
 8890TIP3    H226635   6.495   5.284   4.579
 8891TIP3   OH226636   5.036   4.135   1.101
 8891TIP3    H126637   4.958   4.119   1.048
 8891TIP3    H226638   5.106   4.090   1.054
 8892TIP3   OH226639   2.349   2.369   2.788
 8892TIP3    H126640   2.306   2.321   2.718
 8892TIP3    H226641   2.361   2.305   2.858
 8893TIP3   OH226642   6.424   6.397   5.036
 8893TIP3    H126643   6.421   6.488   5.066
 8893TIP3    H226644   6.358   6.352   5.088
 8894TIP3   OH226645   0.242   4.672   1.377
 8894TIP3    H126646   0.328   4.640   1.402
 8894TIP3    H226647   0.196   4.595   1.344
 8895TIP3   OH226648   3.317   5.568   2.315
 8895TIP3    H126649   3.235   5.524   2.333
 8895TIP3    H226650   3.293   5.640   2.257
 8896TIP3   OH226651   0.193   5.586   2.188
 8896TIP3    H126652   0.270   5.575   2.244
 8896TIP3    H226653   0.143   5.656   2.230
 8897TIP3   OH226654   0.036   2.658   2.132
 8897TIP3    H126655   0.125   2.683   2.156
 8897TIP3    H226656   0.043   2.628   2.042
 8898TIP3   OH226657   5.649   0.002   3.508
 8898TIP3    H126658   5.654   0.098   3.502
 8898TIP3    H226659   5.619  -0.014   3.598
 8899TIP3   OH226660   3.319   4.430   2.288
 8899TIP3    H126661   3.232   4.392   2.273
 8899TIP3    H226662   3.375   4.356   2.309
 8900TIP3   OH226663   6.855   6.473   4.345
 8900TIP3    H126664   6.784   6.459   4.282
 8900TIP3    H226665   6.902   6.550   4.313
 8901TIP3   OH226666   1.696   3.232   4.754
 8901TIP3    H126667   1.711   3.286   4.676
 8901TIP3    H226668   1.699   3.294   4.827
 8902TIP3   OH226669   3.128   4.735   2.543
 8902TIP3    H126670   3.064   4.678   2.586
 8902TIP3    H226671   3.095   4.824   2.557
 8903TIP3   OH226672   2.002   0.195   4.915
 8903TIP3    H126673   2.075   0.175   4.855
 8903TIP3    H226674   1.979   0.286   4.894
 8904TIP3   OH226675   1.091   6.187   4.549
 8904TIP3    H126676   1.137   6.113   4.588
 8904TIP3    H226677   1.003   6.183   4.587
 8905TIP3   OH226678   3.070   1.551   5.392
 8905TIP3    H126679   3.051   1.641   5.365
 8905TIP3    H226680   2.985   1.512   5.410
 8906TIP3   OH226681   5.445   3.342   1.653
 8906TIP3    H126682   5.457   3.318   1.562
 8906TIP3    H226683   5.414   3.262   1.695
 8907TIP3   OH226684   3.943   4.191   3.151
 8907TIP3    H126685   4.006   4.174   3.081
 8907TIP3    H226686   3.959   4.282   3.176
 8908TIP3   OH226687   6.142   1.120   0.644
 8908TIP3    H126688   6.154   1.155   0.733
 8908TIP3    H226689   6.138   1.025   0.656
 8909TIP3   OH226690   6.284   1.337   3.598
 8909TIP3    H126691   6.368   1.381   3.614
 8909TIP3    H226692   6.307   1.245   3.587
 8910TIP3   OH226693   4.062   1.255   2.495
 8910TIP3    H126694   4.033   1.190   2.431
 8910TIP3    H226695   4.003   1.242   2.569
 8911TIP3   OH226696   0.341   1.275   2.368
 8911TIP3    H126697   0.387   1.313   2.293
 8911TIP3    H226698   0.253   1.310   2.363
 8912TIP3   OH226699   6.748   0.385   2.053
 8912TIP3    H126700   6.823   0.367   1.997
 8912TIP3    H226701   6.712   0.467   2.019
 8913TIP3   OH226702   6.833   2.011   0.663
 8913TIP3    H126703   6.897   2.017   0.734
 8913TIP3    H226704   6.778   2.088   0.674
 8914TIP3   OH226705   5.260   1.511   4.276
 8914TIP3    H126706   5.213   1.428   4.285
 8914TIP3    H226707   5.343   1.497   4.321
 8915TIP3   OH226708   6.911   5.474   5.510
 8915TIP3    H126709   6.873   5.440   5.429
 8915TIP3    H226710   6.968   5.404   5.542
 8916TIP3   OH226711   0.950   4.399   5.404
 8916TIP3    H126712   0.907   4.358   5.479
 8916TIP3    H226713   1.041   4.369   5.409
 8917TIP3   OH226714   0.906   2.507   1.846
 8917TIP3    H126715   0.839   2.576   1.851
 8917TIP3    H226716   0.893   2.456   1.925
 8918TIP3   OH226717   4.986   4.918   1.319
 8918TIP3    H126718   5.014   4.829   1.300
 8918TIP3    H226719   4.894   4.921   1.291
 8919TIP3   OH226720   6.780   5.703   2.653
 8919TIP3    H126721   6.856   5.647   2.667
 8919TIP3    H226722   6.802   5.785   2.696
 8920TIP3   OH226723   6.252   5.372   3.130
 8920TIP3    H126724   6.261   5.389   3.224
 8920TIP3    H226725   6.163   5.402   3.108
 8921TIP3   OH226726   3.920   4.562   0.132
 8921TIP3    H126727   3.914   4.655   0.153
 8921TIP3    H226728   3.950   4.560   0.041
 8922TIP3   OH226729   0.229   4.031   0.482
 8922TIP3    H126730   0.228   4.088   0.559
 8922TIP3    H226731   0.313   3.985   0.487
 8923TIP3   OH226732   4.868   3.940   1.798
 8923TIP3    H126733   4.885   3.932   1.892
 8923TIP3    H226734   4.804   4.010   1.791
 8924TIP3   OH226735   4.970   5.926   4.767
 8924TIP3    H126736   5.017   6.004   4.798
 8924TIP3    H226737   4.885   5.959   4.739
 8925TIP3   OH226738   1.599   4.359   0.699
 8925TIP3    H126739   1.694   4.366   0.695
 8925TIP3    H226740   1.581   4.314   0.781
 8926TIP3   OH226741   3.265   6.692   1.797
 8926TIP3    H126742   3.302   6.676   1.885
 8926TIP3    H226743   3.234   6.782   1.800
 8927TIP3   OH226744   6.007   4.113   0.548
 8927TIP3    H126745   6.013   4.208   0.557
 8927TIP3    H226746   6.090   4.080   0.582
 8928TIP3   OH226747   3.955   0.640   0.038
 8928TIP3    H126748   3.966   0.735   0.038
 8928TIP3    H226749   4.030   0.607  -0.011
 8929TIP3   OH226750   1.499   4.946   3.195
 8929TIP3    H126751   1.422   5.004   3.199
 8929TIP3    H226752   1.503   4.906   3.282
 8930TIP3   OH226753   3.040   1.342   1.114
 8930TIP3    H126754   3.122   1.319   1.070
 8930TIP3    H226755   3.039   1.438   1.114
 8931TIP3   OH226756   6.345   3.822   2.810
 8931TIP3    H126757   6.262   3.796   2.771
 8931TIP3    H226758   6.354   3.915   2.787
 8932TIP3   OH226759   4.820   6.619   3.577
 8932TIP3    H126760   4.897   6.668   3.548
 8932TIP3    H226761   4.747   6.658   3.529
 8933TIP3   OH226762   0.312   5.604   3.843
 8933TIP3    H126763   0.270   5.653   3.772
 8933TIP3    H226764   0.306   5.513   3.816
 8934TIP3   OH226765   1.091   1.612   5.849
 8934TIP3    H126766   1.026   1.604   5.779
 8934TIP3    H226767   1.165   1.560   5.819
 8935TIP3   OH226768   0.117   1.502   3.683
 8935TIP3    H126769   0.081   1.422   3.721
 8935TIP3    H226770   0.100   1.570   3.748
 8936TIP3   OH226771   0.771   1.543   5.749
 8936TIP3    H126772   0.827   1.586   5.685
 8936TIP3    H226773   0.688   1.591   5.745
 8937TIP3   OH226774   6.805   0.685   0.478
 8937TIP3    H126775   6.856   0.761   0.505
 8937TIP3    H226776   6.823   0.675   0.385
 8938TIP3   OH226777   5.153   3.609   4.738
 8938TIP3    H126778   5.124   3.551   4.667
 8938TIP3    H226779   5.112   3.572   4.817
 8939TIP3   OH226780   1.424   5.693   3.660
 8939TIP3    H126781   1.340   5.693   3.704
 8939TIP3    H226782   1.477   5.758   3.706
 8940TIP3   OH226783   6.641   4.269   5.699
 8940TIP3    H126784   6.714   4.212   5.723
 8940TIP3    H226785   6.584   4.215   5.644
 8941TIP3   OH226786   3.764   2.343   2.313
 8941TIP3    H126787   3.794   2.292   2.389
 8941TIP3    H226788   3.765   2.434   2.344
 8942TIP3   OH226789   4.132   0.239   5.471
 8942TIP3    H126790   4.055   0.289   5.499
 8942TIP3    H226791   4.114   0.217   5.379
 8943TIP3   OH226792   4.068   1.359   3.286
 8943TIP3    H126793   4.061   1.331   3.377
 8943TIP3    H226794   4.076   1.454   3.291
 8944TIP3   OH226795   1.598   4.869   0.017
 8944TIP3    H126796   1.542   4.796   0.042
 8944TIP3    H226797   1.678   4.858   0.069
 8945TIP3   OH226798   5.865   4.960   3.596
 8945TIP3    H126799   5.928   4.913   3.650
 8945TIP3    H226800   5.918   5.002   3.529
 8946TIP3   OH226801   7.046   3.053   5.816
 8946TIP3    H126802   6.994   2.988   5.768
 8946TIP3    H226803   7.013   3.049   5.906
 8947TIP3   OH226804   5.839   4.286   0.986
 8947TIP3    H126805   5.776   4.224   1.021
 8947TIP3    H226806   5.813   4.299   0.895
 8948TIP3   OH226807   4.747   4.538   0.320
 8948TIP3    H126808   4.697   4.488   0.385
 8948TIP3    H226809   4.803   4.595   0.371
 8949TIP3   OH226810   4.319   5.067   5.270
 8949TIP3    H126811   4.277   5.025   5.345
 8949TIP3    H226812   4.265   5.145   5.254
 8950TIP3   OH226813   4.996   6.761   5.861
 8950TIP3    H126814   5.030   6.783   5.774
 8950TIP3    H226815   4.991   6.666   5.862
 8951TIP3   OH226816   6.460   2.317   1.632
 8951TIP3    H126817   6.431   2.313   1.723
 8951TIP3    H226818   6.504   2.233   1.617
 8952TIP3   OH226819   3.741   6.683   2.166
 8952TIP3    H126820   3.789   6.718   2.091
 8952TIP3    H226821   3.653   6.717   2.156
 8953TIP3   OH226822   6.454   3.041   1.181
 8953TIP3    H126823   6.465   2.981   1.107
 8953TIP3    H226824   6.509   3.116   1.159
 8954TIP3   OH226825   3.885   3.357   2.062
 8954TIP3    H126826   3.903   3.409   1.984
 8954TIP3    H226827   3.791   3.368   2.077
 8955TIP3   OH226828   3.102   2.087   3.845
 8955TIP3    H126829   3.053   2.038   3.779
 8955TIP3    H226830   3.078   2.046   3.928
 8956TIP3   OH226831   4.646   5.497   2.641
 8956TIP3    H126832   4.670   5.416   2.594
 8956TIP3    H226833   4.583   5.468   2.707
 8957TIP3   OH226834   5.950   0.296   3.123
 8957TIP3    H126835   5.909   0.321   3.041
 8957TIP3    H226836   5.999   0.373   3.150
 8958TIP3   OH226837   1.368   4.582   5.343
 8958TIP3    H126838   1.322   4.542   5.269
 8958TIP3    H226839   1.442   4.628   5.303
 8959TIP3   OH226840   4.200   0.070   2.012
 8959TIP3    H126841   4.158   0.032   2.089
 8959TIP3    H226842   4.132   0.069   1.945
 8960TIP3   OH226843   5.057   2.805   4.386
 8960TIP3    H126844   5.108   2.841   4.313
 8960TIP3    H226845   5.018   2.725   4.350
 8961TIP3   OH226846   1.904   6.170   4.290
 8961TIP3    H126847   1.999   6.180   4.285
 8961TIP3    H226848   1.870   6.252   4.254
 8962TIP3   OH226849   5.233   3.184   2.900
 8962TIP3    H126850   5.320   3.166   2.863
 8962TIP3    H226851   5.251   3.232   2.980
 8963TIP3   OH226852   2.002   5.301   2.800
 8963TIP3    H126853   1.942   5.320   2.727
 8963TIP3    H226854   1.977   5.362   2.869
 8964TIP3   OH226855   5.600   0.728   3.481
 8964TIP3    H126856   5.603   0.751   3.574
 8964TIP3    H226857   5.668   0.661   3.471
 8965TIP3   OH226858   0.634   3.952   1.419
 8965TIP3    H126859   0.565   3.992   1.473
 8965TIP3    H226860   0.713   4.001   1.440
 8966TIP3   OH226861   0.248   2.862   2.975
 8966TIP3    H126862   0.172   2.833   3.027
 8966TIP3    H226863   0.231   2.955   2.959
 8967TIP3   OH226864   0.113   6.057   3.727
 8967TIP3    H126865   0.029   6.072   3.682
 8967TIP3    H226866   0.119   6.129   3.790
 8968TIP3   OH226867   7.181   2.238   3.623
 8968TIP3    H126868   7.190   2.143   3.625
 8968TIP3    H226869   7.271   2.270   3.629
 8969TIP3   OH226870   3.459   4.542   1.192
 8969TIP3    H126871   3.506   4.484   1.132
 8969TIP3    H226872   3.368   4.512   1.189
 8970TIP3   OH226873   4.039   3.384   3.563
 8970TIP3    H126874   4.091   3.383   3.644
 8970TIP3    H226875   4.007   3.473   3.556
 8971TIP3   OH226876   5.036   2.566   0.194
 8971TIP3    H126877   4.966   2.526   0.247
 8971TIP3    H226878   5.018   2.536   0.105
 8972TIP3   OH226879   5.473   5.663   5.267
 8972TIP3    H126880   5.531   5.587   5.280
 8972TIP3    H226881   5.514   5.713   5.196
 8973TIP3   OH226882   6.099   5.590   3.631
 8973TIP3    H126883   6.069   5.635   3.552
 8973TIP3    H226884   6.082   5.651   3.702
 8974TIP3   OH226885   1.167   3.379   3.521
 8974TIP3    H126886   1.185   3.472   3.505
 8974TIP3    H226887   1.211   3.334   3.449
 8975TIP3   OH226888   0.566   6.466   4.950
 8975TIP3    H126889   0.609   6.399   4.897
 8975TIP3    H226890   0.476   6.469   4.916
 8976TIP3   OH226891   6.452   0.120   2.531
 8976TIP3    H126892   6.494   0.083   2.608
 8976TIP3    H226893   6.524   0.136   2.469
 8977TIP3   OH226894   3.608   1.264   4.748
 8977TIP3    H126895   3.542   1.243   4.814
 8977TIP3    H226896   3.569   1.336   4.698
 8978TIP3   OH226897   4.648   3.587   4.034
 8978TIP3    H126898   4.638   3.494   4.013
 8978TIP3    H226899   4.732   3.611   3.995
 8979TIP3   OH226900   4.198   2.498   2.356
 8979TIP3    H126901   4.232   2.555   2.425
 8979TIP3    H226902   4.218   2.409   2.386
 8980TIP3   OH226903   1.883   1.776   4.175
 8980TIP3    H126904   1.869   1.699   4.120
 8980TIP3    H226905   1.850   1.750   4.261
 8981TIP3   OH226906   5.576   2.910   3.640
 8981TIP3    H126907   5.590   2.827   3.684
 8981TIP3    H226908   5.490   2.940   3.671
 8982TIP3   OH226909   4.452   2.441   2.732
 8982TIP3    H126910   4.513   2.439   2.658
 8982TIP3    H226911   4.475   2.365   2.785
 8983TIP3   OH226912   5.178   3.865   1.045
 8983TIP3    H126913   5.151   3.855   1.136
 8983TIP3    H226914   5.203   3.777   1.017
 8984TIP3   OH226915   0.959   0.113   1.813
 8984TIP3    H126916   0.940   0.176   1.882
 8984TIP3    H226917   1.055   0.109   1.809
 8985TIP3   OH226918   3.921   1.547   5.925
 8985TIP3    H126919   3.963   1.504   5.851
 8985TIP3    H226920   3.885   1.628   5.889
 8986TIP3   OH226921   2.533   2.686   1.359
 8986TIP3    H126922   2.565   2.714   1.444
 8986TIP3    H226923   2.572   2.748   1.297
 8987TIP3   OH226924   7.073   0.767   4.033
 8987TIP3    H126925   7.133   0.751   4.106
 8987TIP3    H226926   7.100   0.703   3.967
 8988TIP3   OH226927   1.158   3.229   5.220
 8988TIP3    H126928   1.111   3.147   5.204
 8988TIP3    H226929   1.090   3.296   5.214
 8989TIP3   OH226930   3.448   1.077   5.585
 8989TIP3    H126931   3.471   1.062   5.677
 8989TIP3    H226932   3.427   1.170   5.581
 8990TIP3   OH226933   6.375   6.350   4.034
 8990TIP3    H126934   6.385   6.256   4.046
 8990TIP3    H226935   6.305   6.375   4.096
 8991TIP3   OH226936   0.907   3.835   4.612
 8991TIP3    H126937   0.865   3.821   4.527
 8991TIP3    H226938   0.973   3.765   4.618
 8992TIP3   OH226939   3.533   5.508   2.122
 8992TIP3    H126940   3.451   5.492   2.169
 8992TIP3    H226941   3.553   5.425   2.079
 8993TIP3   OH226942   2.610   2.067   2.167
 8993TIP3    H126943   2.623   2.131   2.098
 8993TIP3    H226944   2.519   2.040   2.159
 8994TIP3   OH226945   1.026   4.257   0.224
 8994TIP3    H126946   1.039   4.246   0.318
 8994TIP3    H226947   0.971   4.184   0.198
 8995TIP3   OH226948   2.298   2.711   3.160
 8995TIP3    H126949   2.247   2.671   3.090
 8995TIP3    H226950   2.388   2.683   3.144
 8996TIP3   OH226951   4.395   1.707   4.778
 8996TIP3    H126952   4.371   1.691   4.869
 8996TIP3    H226953   4.454   1.782   4.782
 8997TIP3   OH226954   2.173   2.907   4.643
 8997TIP3    H126955   2.161   2.812   4.652
 8997TIP3    H226956   2.152   2.924   4.551
 8998TIP3   OH226957   0.703   3.627   1.588
 8998TIP3    H126958   0.666   3.697   1.641
 8998TIP3    H226959   0.629   3.570   1.568
 8999TIP3   OH226960   4.244   0.579   1.194
 8999TIP3    H126961   4.328   0.602   1.233
 8999TIP3    H226962   4.196   0.663   1.191
 9000TIP3   OH226963   5.929   5.068   5.542
 9000TIP3    H126964   5.976   5.055   5.624
 9000TIP3    H226965   5.877   5.147   5.556
 9001TIP3   OH226966   3.620   5.790   3.409
 9001TIP3    H126967   3.560   5.738   3.356
 9001TIP3    H226968   3.567   5.821   3.483
 9002TIP3   OH226969   3.785  -0.011   2.634
 9002TIP3    H126970   3.738   0.070   2.614
 9002TIP3    H226971   3.731  -0.054   2.701
 9003TIP3   OH226972   6.828   6.239   2.877
 9003TIP3    H126973   6.734   6.231   2.861
 9003TIP3    H226974   6.869   6.184   2.810
 9004TIP3   OH226975   2.554   4.160   4.452
 9004TIP3    H126976   2.544   4.120   4.366
 9004TIP3    H226977   2.586   4.249   4.433
 9005TIP3   OH226978   4.793   2.751   5.202
 9005TIP3    H126979   4.720   2.795   5.246
 9005TIP3    H226980   4.762   2.739   5.112
 9006TIP3   OH226981   6.598   2.673   1.877
 9006TIP3    H126982   6.612   2.767   1.884
 9006TIP3    H226983   6.659   2.646   1.807
 9007TIP3   OH226984   1.114   2.290   3.495
 9007TIP3    H126985   1.137   2.198   3.505
 9007TIP3    H226986   1.164   2.319   3.419
 9008TIP3   OH226987   1.997   1.394   1.015
 9008TIP3    H126988   1.904   1.410   1.029
 9008TIP3    H226989   2.020   1.328   1.081
 9009TIP3   OH226990   6.639   2.696   3.320
 9009TIP3    H126991   6.569   2.761   3.312
 9009TIP3    H226992   6.593   2.613   3.332
 9010TIP3   OH226993   0.781   6.494   0.900
 9010TIP3    H126994   0.816   6.423   0.845
 9010TIP3    H226995   0.781   6.570   0.843
 9011TIP3   OH226996   6.928   5.231   5.678
 9011TIP3    H126997   6.864   5.277   5.624
 9011TIP3    H226998   6.950   5.153   5.627
 9012TIP3   OH226999   2.323   0.107   5.084
 9012TIP3    H127000   2.384   0.148   5.146
 9012TIP3    H227001   2.377   0.084   5.009
 9013TIP3   OH227002   5.081   2.052   5.517
 9013TIP3    H127003   5.035   2.092   5.443
 9013TIP3    H227004   5.034   1.970   5.532
 9014TIP3   OH227005   0.852   5.399   4.967
 9014TIP3    H127006   0.879   5.311   4.992
 9014TIP3    H227007   0.825   5.392   4.876
 9015TIP3   OH227008   0.911   0.504   3.366
 9015TIP3    H127009   0.970   0.439   3.403
 9015TIP3    H227010   0.851   0.526   3.438
 9016TIP3   OH227011   3.018   4.669   1.174
 9016TIP3    H127012   3.088   4.611   1.205
 9016TIP3    H227013   2.946   4.611   1.152
 9017TIP3   OH227014   0.109   1.623   3.175
 9017TIP3    H127015   0.148   1.705   3.146
 9017TIP3    H227016   0.084   1.639   3.266
 9018TIP3   OH227017   4.424   3.508   3.149
 9018TIP3    H127018   4.511   3.492   3.114
 9018TIP3    H227019   4.413   3.603   3.144
 9019TIP3   OH227020   7.101   3.138   4.303
 9019TIP3    H127021   7.149   3.069   4.258
 9019TIP3    H227022   7.013   3.136   4.263
 9020TIP3   OH227023   4.326   5.965   0.590
 9020TIP3    H127024   4.264   5.970   0.516
 9020TIP3    H227025   4.335   5.872   0.607
 9021TIP3   OH227026   2.915   5.500   2.156
 9021TIP3    H127027   2.837   5.552   2.136
 9021TIP3    H227028   2.903   5.419   2.107
 9022TIP3   OH227029   1.233   3.825   2.649
 9022TIP3    H127030   1.235   3.898   2.588
 9022TIP3    H227031   1.306   3.840   2.709
 9023TIP3   OH227032   1.468   4.869   3.456
 9023TIP3    H127033   1.398   4.920   3.496
 9023TIP3    H227034   1.423   4.795   3.414
 9024TIP3   OH227035   3.561   2.044   5.229
 9024TIP3    H127036   3.502   2.107   5.188
 9024TIP3    H227037   3.556   2.063   5.323
 9025TIP3   OH227038   2.365   1.481   5.113
 9025TIP3    H127039   2.431   1.419   5.081
 9025TIP3    H227040   2.339   1.531   5.035
 9026TIP3   OH227041   2.966   0.809   0.527
 9026TIP3    H127042   2.954   0.789   0.619
 9026TIP3    H227043   2.913   0.744   0.481
 9027TIP3   OH227044   6.141   5.445   0.851
 9027TIP3    H127045   6.084   5.470   0.923
 9027TIP3    H227046   6.120   5.507   0.780
 9028TIP3   OH227047   6.190   5.162   5.187
 9028TIP3    H127048   6.189   5.124   5.275
 9028TIP3    H227049   6.208   5.255   5.202
 9029TIP3   OH227050   3.712   0.241   2.164
 9029TIP3    H127051   3.670   0.209   2.085
 9029TIP3    H227052   3.804   0.216   2.154
 9030TIP3   OH227053   5.390   6.714   0.584
 9030TIP3    H127054   5.476   6.672   0.591
 9030TIP3    H227055   5.410   6.807   0.574
 9031TIP3   OH227056   6.219   2.622   1.342
 9031TIP3    H127057   6.127   2.619   1.316
 9031TIP3    H227058   6.222   2.585   1.430
 9032TIP3   OH227059   1.725   0.156   3.482
 9032TIP3    H127060   1.696   0.122   3.398
 9032TIP3    H227061   1.747   0.248   3.465
 9033TIP3   OH227062   4.235   2.324   5.240
 9033TIP3    H127063   4.270   2.298   5.155
 9033TIP3    H227064   4.212   2.416   5.229
 9034TIP3   OH227065   3.401   4.626   4.951
 9034TIP3    H127066   3.407   4.594   5.041
 9034TIP3    H227067   3.323   4.582   4.916
 9035TIP3   OH227068   0.372   4.045   5.117
 9035TIP3    H127069   0.410   3.957   5.118
 9035TIP3    H227070   0.444   4.102   5.090
 9036TIP3   OH227071   0.302   5.632   2.713
 9036TIP3    H127072   0.311   5.727   2.718
 9036TIP3    H227073   0.337   5.601   2.796
 9037TIP3   OH227074   5.706   5.614   5.478
 9037TIP3    H127075   5.779   5.676   5.483
 9037TIP3    H227076   5.628   5.666   5.495
 9038TIP3   OH227077   2.988   2.193   2.119
 9038TIP3    H127078   3.063   2.138   2.095
 9038TIP3    H227079   3.026   2.280   2.130
 9039TIP3   OH227080   6.222   4.677   5.022
 9039TIP3    H127081   6.161   4.688   5.095
 9039TIP3    H227082   6.291   4.742   5.037
 9040TIP3   OH227083   2.862   3.256   5.874
 9040TIP3    H127084   2.772   3.227   5.859
 9040TIP3    H227085   2.858   3.351   5.869
 9041TIP3   OH227086   4.966   1.120   5.684
 9041TIP3    H127087   5.050   1.160   5.662
 9041TIP3    H227088   4.977   1.089   5.774
 9042TIP3   OH227089   4.777   3.063   0.092
 9042TIP3    H127090   4.773   2.967   0.087
 9042TIP3    H227091   4.864   3.085   0.057
 9043TIP3   OH227092   1.263   1.660   2.766
 9043TIP3    H127093   1.185   1.608   2.746
 9043TIP3    H227094   1.328   1.630   2.703
 9044TIP3   OH227095   4.469   2.253   1.045
 9044TIP3    H127096   4.491   2.314   0.974
 9044TIP3    H227097   4.440   2.173   1.000
 9045TIP3   OH227098   7.117   3.987   3.437
 9045TIP3    H127099   7.202   3.948   3.415
 9045TIP3    H227100   7.115   4.069   3.386
 9046TIP3   OH227101   0.194   2.399   2.444
 9046TIP3    H127102   0.118   2.356   2.485
 9046TIP3    H227103   0.200   2.359   2.357
 9047TIP3   OH227104   0.635   1.457   0.013
 9047TIP3    H127105   0.645   1.402   0.091
 9047TIP3    H227106   0.702   1.524   0.022
 9048TIP3   OH227107   3.680   2.274   3.363
 9048TIP3    H127108   3.708   2.194   3.318
 9048TIP3    H227109   3.715   2.345   3.309
 9049TIP3   OH227110   1.957   4.851   1.849
 9049TIP3    H127111   1.867   4.831   1.824
 9049TIP3    H227112   2.008   4.837   1.769
 9050TIP3   OH227113   5.856   2.496   4.477
 9050TIP3    H127114   5.942   2.523   4.509
 9050TIP3    H227115   5.804   2.482   4.556
 9051TIP3   OH227116   3.120   0.582   5.851
 9051TIP3    H127117   3.070   0.505   5.825
 9051TIP3    H227118   3.070   0.620   5.923
 9052TIP3   OH227119   5.971   3.605   5.740
 9052TIP3    H127120   5.929   3.585   5.824
 9052TIP3    H227121   5.939   3.692   5.717
 9053TIP3   OH227122   2.194   3.928   4.697
 9053TIP3    H127123   2.251   4.004   4.686
 9053TIP3    H227124   2.223   3.889   4.780
 9054TIP3   OH227125   1.086   0.413   3.870
 9054TIP3    H127126   1.089   0.501   3.908
 9054TIP3    H227127   1.013   0.417   3.808
 9055TIP3   OH227128   0.703   0.031   4.298
 9055TIP3    H127129   0.646   0.047   4.222
 9055TIP3    H227130   0.642   0.013   4.370
 9056TIP3   OH227131   4.821   6.167   1.128
 9056TIP3    H127132   4.806   6.073   1.129
 9056TIP3    H227133   4.870   6.184   1.048
 9057TIP3   OH227134   1.197   6.659   2.361
 9057TIP3    H127135   1.292   6.661   2.374
 9057TIP3    H227136   1.184   6.700   2.276
 9058TIP3   OH227137   3.003   4.576   5.049
 9058TIP3    H127138   3.015   4.639   5.120
 9058TIP3    H227139   2.909   4.578   5.030
 9059TIP3   OH227140   3.338   2.238   3.106
 9059TIP3    H127141   3.342   2.301   3.034
 9059TIP3    H227142   3.390   2.279   3.176
 9060TIP3   OH227143   6.920   1.274   5.761
 9060TIP3    H127144   6.976   1.299   5.687
 9060TIP3    H227145   6.884   1.357   5.792
 9061TIP3   OH227146   5.692   4.546   2.327
 9061TIP3    H127147   5.633   4.475   2.353
 9061TIP3    H227148   5.673   4.559   2.234
 9062TIP3   OH227149   3.109   3.935   4.783
 9062TIP3    H127150   3.198   3.905   4.800
 9062TIP3    H227151   3.053   3.862   4.811
 9063TIP3   OH227152   7.127   2.757   3.837
 9063TIP3    H127153   7.087   2.676   3.806
 9063TIP3    H227154   7.221   2.738   3.841
 9064TIP3   OH227155   4.084   0.668   4.147
 9064TIP3    H127156   4.108   0.621   4.068
 9064TIP3    H227157   4.067   0.600   4.212
 9065TIP3   OH227158   7.031   3.937   4.451
 9065TIP3    H127159   6.941   3.970   4.458
 9065TIP3    H227160   7.086   4.015   4.464
 9066TIP3   OH227161   3.582   5.281   4.880
 9066TIP3    H127162   3.579   5.377   4.875
 9066TIP3    H227163   3.673   5.261   4.898
 9067TIP3   OH227164   3.277   1.789   1.842
 9067TIP3    H127165   3.194   1.746   1.862
 9067TIP3    H227166   3.339   1.752   1.904
 9068TIP3   OH227167   6.740   4.531   4.775
 9068TIP3    H127168   6.752   4.624   4.754
 9068TIP3    H227169   6.700   4.495   4.696
 9069TIP3   OH227170   2.287   3.960   5.061
 9069TIP3    H127171   2.244   3.880   5.031
 9069TIP3    H227172   2.377   3.953   5.029
 9070TIP3   OH227173   5.916   0.051   2.094
 9070TIP3    H127174   5.828   0.050   2.132
 9070TIP3    H227175   5.941   0.144   2.094
 9071TIP3   OH227176   5.610   5.918   1.150
 9071TIP3    H127177   5.643   6.004   1.178
 9071TIP3    H227178   5.531   5.938   1.099
 9072TIP3   OH227179   0.413   0.702   1.985
 9072TIP3    H127180   0.337   0.759   1.974
 9072TIP3    H227181   0.477   0.756   2.031
 9073TIP3   OH227182   4.732   5.199   5.010
 9073TIP3    H127183   4.773   5.159   5.088
 9073TIP3    H227184   4.767   5.288   5.008
 9074TIP3   OH227185   5.811   2.417   2.587
 9074TIP3    H127186   5.890   2.362   2.580
 9074TIP3    H227187   5.744   2.358   2.622
 9075TIP3   OH227188   0.807   4.735   5.666
 9075TIP3    H127189   0.808   4.775   5.753
 9075TIP3    H227190   0.715   4.715   5.650
 9076TIP3   OH227191   0.787   6.740   4.617
 9076TIP3    H127192   0.729   6.710   4.687
 9076TIP3    H227193   0.868   6.690   4.630
 9077TIP3   OH227194   1.181   4.975   1.152
 9077TIP3    H127195   1.264   5.017   1.175
 9077TIP3    H227196   1.115   5.024   1.202
 9078TIP3   OH227197   3.906   4.306   0.567
 9078TIP3    H127198   3.967   4.357   0.620
 9078TIP3    H227199   3.956   4.282   0.489
 9079TIP3   OH227200   0.802   4.060   5.347
 9079TIP3    H127201   0.800   4.004   5.269
 9079TIP3    H227202   0.890   4.048   5.383
 9080TIP3   OH227203   2.363   5.588   5.432
 9080TIP3    H127204   2.334   5.555   5.346
 9080TIP3    H227205   2.422   5.520   5.465
 9081TIP3   OH227206   5.359   3.490   4.301
 9081TIP3    H127207   5.443   3.497   4.347
 9081TIP3    H227208   5.335   3.398   4.309
 9082TIP3   OH227209   6.333   1.975   2.958
 9082TIP3    H127210   6.259   1.918   2.982
 9082TIP3    H227211   6.328   2.047   3.020
 9083TIP3   OH227212   6.764   6.108   0.269
 9083TIP3    H127213   6.678   6.108   0.312
 9083TIP3    H227214   6.826   6.091   0.340
 9084TIP3   OH227215   0.123   0.949   5.755
 9084TIP3    H127216   0.215   0.948   5.728
 9084TIP3    H227217   0.118   0.885   5.826
 9085TIP3   OH227218   0.366   1.180   0.843
 9085TIP3    H127219   0.314   1.101   0.827
 9085TIP3    H227220   0.358   1.231   0.763
 9086TIP3   OH227221   3.378   6.264   4.265
 9086TIP3    H127222   3.306   6.246   4.204
 9086TIP3    H227223   3.375   6.359   4.277
 9087TIP3   OH227224   1.422   2.969   3.480
 9087TIP3    H127225   1.337   2.984   3.523
 9087TIP3    H227226   1.485   2.971   3.552
 9088TIP3   OH227227   4.576   3.721   2.106
 9088TIP3    H127228   4.515   3.795   2.108
 9088TIP3    H227229   4.629   3.731   2.185
 9089TIP3   OH227230   0.688   4.651   0.120
 9089TIP3    H127231   0.743   4.691   0.187
 9089TIP3    H227232   0.601   4.646   0.160
 9090TIP3   OH227233   2.559   5.530   0.389
 9090TIP3    H127234   2.601   5.612   0.361
 9090TIP3    H227235   2.553   5.478   0.309
 9091TIP3   OH227236   0.531   5.855   0.783
 9091TIP3    H127237   0.524   5.898   0.869
 9091TIP3    H227238   0.455   5.798   0.779
 9092TIP3   OH227239   0.987   5.326   3.174
 9092TIP3    H127240   0.990   5.413   3.133
 9092TIP3    H227241   1.062   5.280   3.137
 9093TIP3   OH227242   1.019   2.130   1.201
 9093TIP3    H127243   1.077   2.195   1.242
 9093TIP3    H227244   0.938   2.178   1.185
 9094TIP3   OH227245   2.023   1.910   5.404
 9094TIP3    H127246   2.106   1.942   5.370
 9094TIP3    H227247   1.982   1.867   5.329
 9095TIP3   OH227248   1.601   2.547   3.893
 9095TIP3    H127249   1.634   2.516   3.977
 9095TIP3    H227250   1.524   2.493   3.876
 9096TIP3   OH227251   2.929   5.028   4.255
 9096TIP3    H127252   2.838   5.055   4.269
 9096TIP3    H227253   2.966   5.019   4.343
 9097TIP3   OH227254   5.327   4.846   0.196
 9097TIP3    H127255   5.267   4.772   0.187
 9097TIP3    H227256   5.309   4.881   0.283
 9098TIP3   OH227257   1.764   5.541   1.068
 9098TIP3    H127258   1.851   5.507   1.046
 9098TIP3    H227259   1.728   5.571   0.984
 9099TIP3   OH227260   6.534   0.498   0.730
 9099TIP3    H127261   6.568   0.468   0.646
 9099TIP3    H227262   6.485   0.423   0.764
 9100TIP3   OH227263   4.659   1.576   3.448
 9100TIP3    H127264   4.657   1.482   3.468
 9100TIP3    H227265   4.745   1.604   3.478
 9101TIP3   OH227266   5.116   6.689   3.887
 9101TIP3    H127267   5.043   6.751   3.883
 9101TIP3    H227268   5.079   6.612   3.930
 9102TIP3   OH227269   4.283   2.071   5.401
 9102TIP3    H127270   4.263   2.134   5.332
 9102TIP3    H227271   4.375   2.049   5.389
 9103TIP3   OH227272   0.356   0.299   0.223
 9103TIP3    H127273   0.434   0.267   0.177
 9103TIP3    H227274   0.323   0.222   0.269
 9104TIP3   OH227275   3.307   6.411   5.581
 9104TIP3    H127276   3.384   6.369   5.544
 9104TIP3    H227277   3.270   6.461   5.509
 9105TIP3   OH227278   4.886   2.148   1.393
 9105TIP3    H127279   4.798   2.185   1.394
 9105TIP3    H227280   4.897   2.112   1.305
 9106TIP3   OH227281   2.512   6.269   1.504
 9106TIP3    H127282   2.552   6.354   1.525
 9106TIP3    H227283   2.431   6.267   1.555
 9107TIP3   OH227284   6.548   3.802   5.235
 9107TIP3    H127285   6.461   3.796   5.197
 9107TIP3    H227286   6.593   3.869   5.183
 9108TIP3   OH227287   0.160   5.326   0.695
 9108TIP3    H127288   0.120   5.244   0.663
 9108TIP3    H227289   0.088   5.371   0.740
 9109TIP3   OH227290   6.925   1.156   3.217
 9109TIP3    H127291   6.958   1.212   3.286
 9109TIP3    H227292   6.864   1.211   3.168
 9110TIP3   OH227293   2.601   5.444   3.252
 9110TIP3    H127294   2.661   5.517   3.246
 9110TIP3    H227295   2.647   5.371   3.211
 9111TIP3   OH227296   1.209   1.239   4.339
 9111TIP3    H127297   1.262   1.318   4.341
 9111TIP3    H227298   1.225   1.197   4.424
 9112TIP3   OH227299   4.274   4.345   1.891
 9112TIP3    H127300   4.267   4.261   1.845
 9112TIP3    H227301   4.294   4.408   1.823
 9113TIP3   OH227302   6.975   5.276   4.705
 9113TIP3    H127303   7.038   5.204   4.709
 9113TIP3    H227304   6.929   5.263   4.622
 9114TIP3   OH227305   1.526   6.182   5.507
 9114TIP3    H127306   1.543   6.263   5.555
 9114TIP3    H227307   1.456   6.140   5.557
 9115TIP3   OH227308   3.388   6.434   4.929
 9115TIP3    H127309   3.363   6.451   4.838
 9115TIP3    H227310   3.315   6.469   4.980
 9116TIP3   OH227311   5.934   6.312   2.550
 9116TIP3    H127312   5.992   6.317   2.474
 9116TIP3    H227313   5.970   6.376   2.612
 9117TIP3   OH227314   3.434   0.369   4.969
 9117TIP3    H127315   3.439   0.287   5.020
 9117TIP3    H227316   3.348   0.365   4.927
 9118TIP3   OH227317   6.409   6.090   4.095
 9118TIP3    H127318   6.324   6.045   4.100
 9118TIP3    H227319   6.473   6.019   4.087
 9119TIP3   OH227320   1.531   3.776   0.242
 9119TIP3    H127321   1.457   3.715   0.238
 9119TIP3    H227322   1.608   3.720   0.236
 9120TIP3   OH227323   1.742   5.475   1.883
 9120TIP3    H127324   1.808   5.406   1.892
 9120TIP3    H227325   1.684   5.463   1.959
 9121TIP3   OH227326   0.046   3.029   0.237
 9121TIP3    H127327   0.090   2.944   0.230
 9121TIP3    H227328   0.057   3.055   0.328
 9122TIP3   OH227329   5.037   2.918   0.109
 9122TIP3    H127330   5.010   2.848   0.049
 9122TIP3    H227331   5.048   2.994   0.053
 9123TIP3   OH227332   3.298   2.823   4.895
 9123TIP3    H127333   3.205   2.799   4.901
 9123TIP3    H227334   3.344   2.757   4.946
 9124TIP3   OH227335   0.657   6.229   3.248
 9124TIP3    H127336   0.726   6.221   3.315
 9124TIP3    H227337   0.621   6.140   3.242
 9125TIP3   OH227338   5.310   0.578   0.591
 9125TIP3    H127339   5.294   0.579   0.685
 9125TIP3    H227340   5.224   0.595   0.552
 9126TIP3   OH227341   5.011   6.416   1.681
 9126TIP3    H127342   5.097   6.381   1.703
 9126TIP3    H227343   4.983   6.366   1.605
 9127TIP3   OH227344   3.600   3.226   4.262
 9127TIP3    H127345   3.529   3.199   4.203
 9127TIP3    H227346   3.610   3.320   4.246
 9128TIP3   OH227347   1.627   0.840   2.541
 9128TIP3    H127348   1.707   0.787   2.530
 9128TIP3    H227349   1.569   0.784   2.592
 9129TIP3   OH227350   6.241   4.617   2.930
 9129TIP3    H127351   6.206   4.698   2.967
 9129TIP3    H227352   6.164   4.570   2.898
 9130TIP3   OH227353   2.357   5.477   3.150
 9130TIP3    H127354   2.443   5.462   3.188
 9130TIP3    H227355   2.327   5.558   3.190
 9131TIP3   OH227356   4.850   4.557   0.068
 9131TIP3    H127357   4.945   4.548   0.075
 9131TIP3    H227358   4.816   4.515   0.146
 9132TIP3   OH227359   6.017   2.239   2.575
 9132TIP3    H127360   6.058   2.230   2.488
 9132TIP3    H227361   5.967   2.159   2.586
 9133TIP3   OH227362   2.473   3.735   1.657
 9133TIP3    H127363   2.546   3.680   1.683
 9133TIP3    H227364   2.456   3.710   1.566
 9134TIP3   OH227365   1.737   2.452   2.989
 9134TIP3    H127366   1.702   2.527   3.036
 9134TIP3    H227367   1.716   2.377   3.045
 9135TIP3   OH227368   4.353   6.070   3.930
 9135TIP3    H127369   4.365   6.048   4.022
 9135TIP3    H227370   4.263   6.045   3.911
 9136TIP3   OH227371   5.499   3.263   0.759
 9136TIP3    H127372   5.536   3.273   0.672
 9136TIP3    H227373   5.557   3.200   0.803
 9137TIP3   OH227374   3.466   2.527   4.665
 9137TIP3    H127375   3.396   2.534   4.600
 9137TIP3    H227376   3.421   2.502   4.746
 9138TIP3   OH227377   2.446   2.044   5.550
 9138TIP3    H127378   2.476   1.984   5.619
 9138TIP3    H227379   2.458   2.132   5.588
 9139TIP3   OH227380   6.429   3.016   5.368
 9139TIP3    H127381   6.466   2.965   5.297
 9139TIP3    H227382   6.457   2.971   5.448
 9140TIP3   OH227383   4.312   5.569   5.310
 9140TIP3    H127384   4.308   5.651   5.359
 9140TIP3    H227385   4.262   5.507   5.362
 9141TIP3   OH227386   4.400   2.416   1.738
 9141TIP3    H127387   4.381   2.507   1.714
 9141TIP3    H227388   4.438   2.421   1.825
 9142TIP3   OH227389   2.971   2.742   1.936
 9142TIP3    H127390   2.912   2.812   1.908
 9142TIP3    H227391   2.914   2.681   1.985
 9143TIP3   OH227392   1.914   6.405   4.954
 9143TIP3    H127393   1.849   6.367   5.012
 9143TIP3    H227394   1.934   6.336   4.890
 9144TIP3   OH227395   4.106   5.522   2.094
 9144TIP3    H127396   4.145   5.609   2.084
 9144TIP3    H227397   4.046   5.532   2.168
 9145TIP3   OH227398   2.018   4.751   3.742
 9145TIP3    H127399   2.075   4.701   3.801
 9145TIP3    H227400   1.983   4.687   3.681
 9146TIP3   OH227401   1.039   4.221   5.165
 9146TIP3    H127402   0.950   4.185   5.166
 9146TIP3    H227403   1.080   4.182   5.088
 9147TIP3   OH227404   2.125   2.617   2.261
 9147TIP3    H127405   2.103   2.577   2.345
 9147TIP3    H227406   2.064   2.579   2.198
 9148TIP3   OH227407   3.933   4.101   4.769
 9148TIP3    H127408   3.960   4.013   4.794
 9148TIP3    H227409   3.845   4.111   4.808
 9149TIP3   OH227410   6.348   5.505   4.251
 9149TIP3    H127411   6.276   5.443   4.243
 9149TIP3    H227412   6.345   5.534   4.342
 9150TIP3   OH227413   1.289   6.335   0.221
 9150TIP3    H127414   1.217   6.348   0.283
 9150TIP3    H227415   1.306   6.422   0.185
 9151TIP3   OH227416   1.017   4.444   0.458
 9151TIP3    H127417   1.077   4.378   0.493
 9151TIP3    H227418   0.958   4.464   0.531
 9152TIP3   OH227419   2.931   0.149   3.759
 9152TIP3    H127420   2.884   0.195   3.689
 9152TIP3    H227421   2.948   0.062   3.723
 9153TIP3   OH227422   1.260   2.454   2.448
 9153TIP3    H127423   1.281   2.495   2.364
 9153TIP3    H227424   1.257   2.526   2.511
 9154TIP3   OH227425   3.340   6.670   0.478
 9154TIP3    H127426   3.364   6.587   0.519
 9154TIP3    H227427   3.391   6.672   0.396
 9155TIP3   OH227428   4.524   0.212   3.506
 9155TIP3    H127429   4.537   0.296   3.549
 9155TIP3    H227430   4.610   0.190   3.470
 9156TIP3   OH227431   1.666   6.133   3.751
 9156TIP3    H127432   1.660   6.044   3.715
 9156TIP3    H227433   1.688   6.188   3.676
 9157TIP3   OH227434   3.981   1.247   5.424
 9157TIP3    H127435   3.934   1.329   5.407
 9157TIP3    H227436   3.916   1.192   5.468
 9158TIP3   OH227437   3.929   5.444   4.059
 9158TIP3    H127438   4.011   5.492   4.065
 9158TIP3    H227439   3.871   5.489   4.121
 9159TIP3   OH227440   5.900   2.342   0.466
 9159TIP3    H127441   5.921   2.371   0.554
 9159TIP3    H227442   5.925   2.415   0.410
 9160TIP3   OH227443   0.197   4.871   0.617
 9160TIP3    H127444   0.141   4.947   0.630
 9160TIP3    H227445   0.285   4.901   0.642
 9161TIP3   OH227446   5.748   6.403   5.139
 9161TIP3    H127447   5.709   6.325   5.101
 9161TIP3    H227448   5.841   6.381   5.149
 9162TIP3   OH227449   0.530   2.251   0.702
 9162TIP3    H127450   0.512   2.341   0.729
 9162TIP3    H227451   0.443   2.213   0.688
 9163TIP3   OH227452   3.697   0.772   4.212
 9163TIP3    H127453   3.755   0.825   4.266
 9163TIP3    H227454   3.642   0.725   4.275
 9164TIP3   OH227455   6.216   6.306   0.490
 9164TIP3    H127456   6.278   6.364   0.446
 9164TIP3    H227457   6.139   6.360   0.505
 9165TIP3   OH227458   3.405   0.500   1.888
 9165TIP3    H127459   3.412   0.595   1.878
 9165TIP3    H227460   3.373   0.488   1.977
 9166TIP3   OH227461   2.749   1.746   2.649
 9166TIP3    H127462   2.759   1.771   2.557
 9166TIP3    H227463   2.776   1.824   2.698
 9167TIP3   OH227464   5.730   1.179   5.552
 9167TIP3    H127465   5.712   1.228   5.632
 9167TIP3    H227466   5.674   1.102   5.557
 9168TIP3   OH227467   5.900   2.780   0.447
 9168TIP3    H127468   5.906   2.694   0.404
 9168TIP3    H227469   5.991   2.809   0.455
 9169TIP3   OH227470   4.437   3.330   3.920
 9169TIP3    H127471   4.397   3.404   3.964
 9169TIP3    H227472   4.429   3.349   3.827
 9170TIP3   OH227473   3.907   1.554   2.760
 9170TIP3    H127474   3.911   1.469   2.804
 9170TIP3    H227475   3.974   1.607   2.804
 9171TIP3   OH227476   2.029   4.668   3.349
 9171TIP3    H127477   2.104   4.723   3.369
 9171TIP3    H227478   2.016   4.614   3.427
 9172TIP3   OH227479   0.464   3.856   0.417
 9172TIP3    H127480   0.500   3.795   0.353
 9172TIP3    H227481   0.540   3.897   0.458
 9173TIP3   OH227482   6.822   4.385   4.361
 9173TIP3    H127483   6.839   4.319   4.428
 9173TIP3    H227484   6.753   4.347   4.307
 9174TIP3   OH227485   0.625   5.892   4.775
 9174TIP3    H127486   0.652   5.978   4.807
 9174TIP3    H227487   0.572   5.857   4.846
 9175TIP3   OH227488   6.488   5.258   1.474
 9175TIP3    H127489   6.429   5.330   1.452
 9175TIP3    H227490   6.434   5.180   1.470
 9176TIP3   OH227491   3.802   3.599   0.791
 9176TIP3    H127492   3.815   3.645   0.874
 9176TIP3    H227493   3.716   3.557   0.802
 9177TIP3   OH227494   1.134   4.012   3.377
 9177TIP3    H127495   1.135   3.963   3.459
 9177TIP3    H227496   1.226   4.021   3.353
 9178TIP3   OH227497   1.037   2.866   0.169
 9178TIP3    H127498   0.967   2.872   0.104
 9178TIP3    H227499   0.993   2.836   0.249
 9179TIP3   OH227500   6.084   5.776   1.257
 9179TIP3    H127501   6.009   5.788   1.199
 9179TIP3    H227502   6.076   5.686   1.290
 9180TIP3   OH227503   4.475   0.753   3.853
 9180TIP3    H127504   4.507   0.705   3.776
 9180TIP3    H227505   4.435   0.832   3.818
 9181TIP3   OH227506   0.395   3.113   1.808
 9181TIP3    H127507   0.390   3.098   1.714
 9181TIP3    H227508   0.320   3.169   1.828
 9182TIP3   OH227509   6.485   6.419   1.688
 9182TIP3    H127510   6.479   6.495   1.745
 9182TIP3    H227511   6.508   6.454   1.602
 9183TIP3   OH227512   0.130   1.749   0.518
 9183TIP3    H127513   0.157   1.770   0.429
 9183TIP3    H227514   0.082   1.826   0.547
 9184TIP3   OH227515   2.129   4.807   1.622
 9184TIP3    H127516   2.214   4.785   1.584
 9184TIP3    H227517   2.104   4.889   1.580
 9185TIP3   OH227518   1.401   2.003   1.137
 9185TIP3    H127519   1.424   2.081   1.188
 9185TIP3    H227520   1.380   1.937   1.203
 9186TIP3   OH227521   3.100   3.814   2.786
 9186TIP3    H127522   3.168   3.875   2.758
 9186TIP3    H227523   3.018   3.862   2.774
 9187TIP3   OH227524   1.144   0.155   1.393
 9187TIP3    H127525   1.060   0.195   1.416
 9187TIP3    H227526   1.127   0.110   1.310
 9188TIP3   OH227527   0.532   1.815   1.590
 9188TIP3    H127528   0.564   1.820   1.680
 9188TIP3    H227529   0.500   1.903   1.570
 9189TIP3   OH227530   0.404   3.802   3.446
 9189TIP3    H127531   0.477   3.863   3.440
 9189TIP3    H227532   0.442   3.723   3.484
 9190TIP3   OH227533   2.084   4.101   5.745
 9190TIP3    H127534   2.166   4.149   5.732
 9190TIP3    H227535   2.035   4.154   5.808
 9191TIP3   OH227536   4.037   0.361   4.872
 9191TIP3    H127537   3.978   0.356   4.947
 9191TIP3    H227538   4.006   0.291   4.813
 9192TIP3   OH227539   4.537   4.296   2.029
 9192TIP3    H127540   4.542   4.200   2.038
 9192TIP3    H227541   4.507   4.310   1.939
 9193TIP3   OH227542   2.839   5.297   3.717
 9193TIP3    H127543   2.793   5.221   3.752
 9193TIP3    H227544   2.775   5.368   3.722
 9194TIP3   OH227545   4.689   2.438   2.956
 9194TIP3    H127546   4.621   2.378   2.925
 9194TIP3    H227547   4.749   2.446   2.882
 9195TIP3   OH227548   6.629   0.941   2.400
 9195TIP3    H127549   6.710   0.989   2.383
 9195TIP3    H227550   6.584   0.992   2.467
 9196TIP3   OH227551   7.105   6.026   3.012
 9196TIP3    H127552   7.112   6.103   3.068
 9196TIP3    H227553   7.184   6.029   2.957
 9197TIP3   OH227554   4.364   0.866   3.102
 9197TIP3    H127555   4.459   0.876   3.099
 9197TIP3    H227556   4.349   0.772   3.103
 9198TIP3   OH227557   7.060   5.954   5.128
 9198TIP3    H127558   7.018   6.039   5.113
 9198TIP3    H227559   7.013   5.894   5.071
 9199TIP3   OH227560   3.387   5.636   4.897
 9199TIP3    H127561   3.460   5.575   4.893
 9199TIP3    H227562   3.354   5.630   4.986
 9200TIP3   OH227563   5.264   2.901   0.737
 9200TIP3    H127564   5.232   2.966   0.674
 9200TIP3    H227565   5.337   2.944   0.781
 9201TIP3   OH227566   7.176   5.547   3.040
 9201TIP3    H127567   7.255   5.557   3.092
 9201TIP3    H227568   7.119   5.491   3.092
 9202TIP3   OH227569   1.041   0.451   0.083
 9202TIP3    H127570   1.025   0.396   0.160
 9202TIP3    H227571   0.956   0.491   0.064
 9203TIP3   OH227572   6.669   4.461   0.280
 9203TIP3    H127573   6.574   4.463   0.289
 9203TIP3    H227574   6.688   4.521   0.208
 9204TIP3   OH227575   7.047   3.064   0.480
 9204TIP3    H127576   7.028   3.056   0.386
 9204TIP3    H227577   7.136   3.030   0.489
 9205TIP3   OH227578   5.331   4.673   4.840
 9205TIP3    H127579   5.324   4.594   4.786
 9205TIP3    H227580   5.258   4.667   4.901
 9206TIP3   OH227581   1.296   3.134   4.972
 9206TIP3    H127582   1.227   3.144   4.907
 9206TIP3    H227583   1.264   3.181   5.049
 9207TIP3   OH227584   1.239   3.963   4.323
 9207TIP3    H127585   1.248   3.964   4.418
 9207TIP3    H227586   1.248   3.871   4.299
 9208TIP3   OH227587   5.181   2.954   0.363
 9208TIP3    H127588   5.177   2.990   0.275
 9208TIP3    H227589   5.274   2.937   0.378
 9209TIP3   OH227590   2.393   3.118   4.039
 9209TIP3    H127591   2.348   3.184   4.091
 9209TIP3    H227592   2.337   3.105   3.963
 9210TIP3   OH227593   1.781   0.941   0.063
 9210TIP3    H127594   1.850   1.006   0.069
 9210TIP3    H227595   1.782   0.898   0.149
 9211TIP3   OH227596   6.151   3.533   3.464
 9211TIP3    H127597   6.063   3.520   3.499
 9211TIP3    H227598   6.208   3.534   3.541
 9212TIP3   OH227599   2.243   2.188   0.267
 9212TIP3    H127600   2.222   2.260   0.327
 9212TIP3    H227601   2.288   2.124   0.322
 9213TIP3   OH227602   1.766   2.979   0.359
 9213TIP3    H127603   1.849   3.007   0.396
 9213TIP3    H227604   1.721   3.061   0.337
 9214TIP3   OH227605   1.706   2.358   2.736
 9214TIP3    H127606   1.699   2.383   2.828
 9214TIP3    H227607   1.758   2.278   2.736
 9215TIP3   OH227608   0.951   5.961   0.333
 9215TIP3    H127609   0.906   5.974   0.417
 9215TIP3    H227610   0.923   6.035   0.280
 9216TIP3   OH227611   1.268   4.354   0.751
 9216TIP3    H127612   1.353   4.393   0.770
 9216TIP3    H227613   1.264   4.276   0.806
 9217TIP3   OH227614   4.921   5.497   2.901
 9217TIP3    H127615   4.987   5.559   2.871
 9217TIP3    H227616   4.839   5.546   2.898
 9218TIP3   OH227617   6.285   3.652   5.591
 9218TIP3    H127618   6.213   3.639   5.529
 9218TIP3    H227619   6.253   3.718   5.652
 9219TIP3   OH227620   1.176   3.716   2.984
 9219TIP3    H127621   1.134   3.764   3.055
 9219TIP3    H227622   1.268   3.709   3.011
 9220TIP3   OH227623   0.975   6.558   3.870
 9220TIP3    H127624   1.007   6.633   3.822
 9220TIP3    H227625   0.896   6.589   3.914
 9221TIP3   OH227626   1.624   2.971   3.652
 9221TIP3    H127627   1.698   2.987   3.594
 9221TIP3    H227628   1.657   2.908   3.716
 9222TIP3   OH227629   4.372   3.537   2.487
 9222TIP3    H127630   4.318   3.610   2.457
 9222TIP3    H227631   4.455   3.549   2.442
 9223TIP3   OH227632   2.789   2.773   2.345
 9223TIP3    H127633   2.809   2.708   2.279
 9223TIP3    H227634   2.694   2.771   2.353
 9224TIP3   OH227635   4.749   5.695   3.469
 9224TIP3    H127636   4.819   5.747   3.430
 9224TIP3    H227637   4.692   5.672   3.395
 9225TIP3   OH227638   2.045   6.626   5.032
 9225TIP3    H127639   2.033   6.549   4.975
 9225TIP3    H227640   2.066   6.589   5.118
 9226TIP3   OH227641   0.447   1.260   5.698
 9226TIP3    H127642   0.537   1.267   5.730
 9226TIP3    H227643   0.435   1.166   5.681
 9227TIP3   OH227644   6.534   4.044   4.119
 9227TIP3    H127645   6.448   4.037   4.078
 9227TIP3    H227646   6.578   3.963   4.094
 9228TIP3   OH227647   2.309   3.650   5.441
 9228TIP3    H127648   2.337   3.581   5.501
 9228TIP3    H227649   2.216   3.633   5.426
 9229TIP3   OH227650   4.807   5.605   3.894
 9229TIP3    H127651   4.847   5.587   3.808
 9229TIP3    H227652   4.837   5.533   3.949
 9230TIP3   OH227653   3.491   2.962   3.330
 9230TIP3    H127654   3.452   3.032   3.383
 9230TIP3    H227655   3.585   2.975   3.339
 9231TIP3   OH227656   6.266   1.512   1.893
 9231TIP3    H127657   6.299   1.533   1.806
 9231TIP3    H227658   6.255   1.417   1.892
 9232TIP3   OH227659   4.171   1.067   3.224
 9232TIP3    H127660   4.266   1.057   3.226
 9232TIP3    H227661   4.149   1.059   3.131
 9233TIP3   OH227662   0.646   4.743   3.250
 9233TIP3    H127663   0.635   4.713   3.340
 9233TIP3    H227664   0.578   4.809   3.238
 9234TIP3   OH227665   5.116   6.392   4.838
 9234TIP3    H127666   5.079   6.468   4.883
 9234TIP3    H227667   5.208   6.412   4.827
 9235TIP3   OH227668   6.215   3.154   1.244
 9235TIP3    H127669   6.302   3.160   1.205
 9235TIP3    H227670   6.176   3.241   1.229
 9236TIP3   OH227671   2.119   2.251   2.045
 9236TIP3    H127672   2.092   2.333   2.085
 9236TIP3    H227673   2.046   2.226   1.989
 9237TIP3   OH227674   2.371   4.926   4.537
 9237TIP3    H127675   2.387   4.854   4.476
 9237TIP3    H227676   2.453   4.974   4.539
 9238TIP3   OH227677   6.978   1.153   1.975
 9238TIP3    H127678   6.985   1.059   1.959
 9238TIP3    H227679   6.908   1.183   1.917
 9239TIP3   OH227680   5.665   3.250   3.804
 9239TIP3    H127681   5.752   3.223   3.832
 9239TIP3    H227682   5.671   3.345   3.793
 9240TIP3   OH227683   7.195   0.798   4.288
 9240TIP3    H127684   7.115   0.814   4.337
 9240TIP3    H227685   7.265   0.801   4.353
 9241TIP3   OH227686   2.294   0.405   1.887
 9241TIP3    H127687   2.375   0.357   1.901
 9241TIP3    H227688   2.321   0.486   1.845
 9242TIP3   OH227689   1.430   4.882   2.639
 9242TIP3    H127690   1.497   4.815   2.630
 9242TIP3    H227691   1.395   4.869   2.727
 9243TIP3   OH227692   4.764   3.766   0.369
 9243TIP3    H127693   4.756   3.696   0.305
 9243TIP3    H227694   4.691   3.752   0.430
 9244TIP3   OH227695   2.275   1.788   5.855
 9244TIP3    H127696   2.232   1.834   5.783
 9244TIP3    H227697   2.278   1.852   5.926
 9245TIP3   OH227698   4.131   3.664   5.423
 9245TIP3    H127699   4.041   3.636   5.440
 9245TIP3    H227700   4.125   3.719   5.346
 9246TIP3   OH227701   1.509   3.320   3.418
 9246TIP3    H127702   1.509   3.257   3.346
 9246TIP3    H227703   1.490   3.267   3.495
 9247TIP3   OH227704   1.686   2.642   3.180
 9247TIP3    H127705   1.722   2.653   3.268
 9247TIP3    H227706   1.593   2.623   3.195
 9248TIP3   OH227707   6.045   3.311   2.715
 9248TIP3    H127708   5.985   3.353   2.654
 9248TIP3    H227709   6.040   3.218   2.693
 9249TIP3   OH227710   5.212   3.687   5.237
 9249TIP3    H127711   5.305   3.692   5.214
 9249TIP3    H227712   5.173   3.765   5.198
 9250TIP3   OH227713   2.568   1.846   4.788
 9250TIP3    H127714   2.489   1.806   4.823
 9250TIP3    H227715   2.590   1.916   4.850
 9251TIP3   OH227716   3.323   3.842   3.817
 9251TIP3    H127717   3.292   3.794   3.893
 9251TIP3    H227718   3.247   3.848   3.759
 9252TIP3   OH227719   0.560   2.711   0.544
 9252TIP3    H127720   0.585   2.801   0.523
 9252TIP3    H227721   0.626   2.682   0.607
 9253TIP3   OH227722   1.804   2.778   2.195
 9253TIP3    H127723   1.784   2.762   2.103
 9253TIP3    H227724   1.781   2.696   2.239
 9254TIP3   OH227725   5.312   5.624   3.791
 9254TIP3    H127726   5.306   5.533   3.820
 9254TIP3    H227727   5.264   5.673   3.858
 9255TIP3   OH227728   5.728   2.379   4.248
 9255TIP3    H127729   5.795   2.402   4.312
 9255TIP3    H227730   5.721   2.284   4.255
 9256TIP3   OH227731   4.127   4.752   1.953
 9256TIP3    H127732   4.135   4.726   2.045
 9256TIP3    H227733   4.078   4.834   1.955
 9257TIP3   OH227734   1.224   2.655   1.448
 9257TIP3    H127735   1.270   2.685   1.370
 9257TIP3    H227736   1.248   2.719   1.515
 9258TIP3   OH227737   7.105   4.175   5.259
 9258TIP3    H127738   7.076   4.212   5.176
 9258TIP3    H227739   7.159   4.100   5.235
 9259TIP3   OH227740   4.963   4.637   0.448
 9259TIP3    H127741   5.000   4.646   0.361
 9259TIP3    H227742   5.039   4.640   0.507
 9260TIP3   OH227743   4.189   0.309   4.543
 9260TIP3    H127744   4.240   0.232   4.567
 9260TIP3    H227745   4.098   0.283   4.555
 9261TIP3   OH227746   7.031   5.059   5.472
 9261TIP3    H127747   6.997   5.099   5.391
 9261TIP3    H227748   7.021   4.965   5.458
 9262TIP3   OH227749   5.470   5.491   2.855
 9262TIP3    H127750   5.423   5.447   2.926
 9262TIP3    H227751   5.434   5.454   2.775
 9263TIP3   OH227752   1.660   4.942   1.043
 9263TIP3    H127753   1.737   4.999   1.041
 9263TIP3    H227754   1.655   4.907   0.954
 9264TIP3   OH227755   6.001   6.398   4.433
 9264TIP3    H127756   5.953   6.471   4.472
 9264TIP3    H227757   6.049   6.359   4.505
 9265TIP3   OH227758   4.417   1.240   3.129
 9265TIP3    H127759   4.457   1.320   3.094
 9265TIP3    H227760   4.323   1.258   3.130
 9266TIP3   OH227761   4.553   0.149   2.767
 9266TIP3    H127762   4.587   0.185   2.685
 9266TIP3    H227763   4.465   0.118   2.745
 9267TIP3   OH227764   0.752   5.627   0.034
 9267TIP3    H127765   0.772   5.646   0.126
 9267TIP3    H227766   0.659   5.649   0.025
 9268TIP3   OH227767   2.537   0.847   0.639
 9268TIP3    H127768   2.537   0.787   0.565
 9268TIP3    H227769   2.534   0.790   0.716
 9269TIP3   OH227770   5.328   4.393   4.783
 9269TIP3    H127771   5.297   4.426   4.699
 9269TIP3    H227772   5.257   4.339   4.816
 9270TIP3   OH227773   6.942   1.759   3.152
 9270TIP3    H127774   6.857   1.764   3.107
 9270TIP3    H227775   6.933   1.816   3.228
 9271TIP3   OH227776   4.760   4.772   4.659
 9271TIP3    H127777   4.833   4.797   4.714
 9271TIP3    H227778   4.759   4.837   4.588
 9272TIP3   OH227779   0.284   0.420   1.958
 9272TIP3    H127780   0.257   0.512   1.963
 9272TIP3    H227781   0.368   0.422   1.912
 9273TIP3   OH227782   2.321   1.857   5.000
 9273TIP3    H127783   2.287   1.861   5.089
 9273TIP3    H227784   2.302   1.943   4.963
 9274TIP3   OH227785   0.754   5.201   4.468
 9274TIP3    H127786   0.821   5.133   4.469
 9274TIP3    H227787   0.672   5.154   4.450
 9275TIP3   OH227788   3.523   4.938   1.112
 9275TIP3    H127789   3.434   4.913   1.135
 9275TIP3    H227790   3.551   4.997   1.182
 9276TIP3   OH227791   6.109   1.921   4.095
 9276TIP3    H127792   6.087   1.910   4.188
 9276TIP3    H227793   6.043   1.983   4.062
 9277TIP3   OH227794   6.232   0.598   4.072
 9277TIP3    H127795   6.284   0.566   3.998
 9277TIP3    H227796   6.291   0.656   4.120
 9278TIP3   OH227797   4.321   2.741   5.368
 9278TIP3    H127798   4.281   2.773   5.287
 9278TIP3    H227799   4.264   2.670   5.396
 9279TIP3   OH227800   3.550   6.520   3.342
 9279TIP3    H127801   3.500   6.544   3.419
 9279TIP3    H227802   3.627   6.578   3.344
 9280TIP3   OH227803   4.872   5.850   5.189
 9280TIP3    H127804   4.847   5.882   5.275
 9280TIP3    H227805   4.960   5.816   5.201
 9281TIP3   OH227806   2.796   5.160   4.917
 9281TIP3    H127807   2.771   5.103   4.990
 9281TIP3    H227808   2.791   5.105   4.840
 9282TIP3   OH227809   0.656   2.083   5.811
 9282TIP3    H127810   0.656   2.144   5.884
 9282TIP3    H227811   0.612   2.005   5.844
 9283TIP3   OH227812   3.368   4.553   4.346
 9283TIP3    H127813   3.282   4.589   4.368
 9283TIP3    H227814   3.422   4.629   4.327
 9284TIP3   OH227815   3.356   5.480   5.261
 9284TIP3    H127816   3.375   5.430   5.182
 9284TIP3    H227817   3.265   5.507   5.251
 9285TIP3   OH227818   0.814   0.841   3.368
 9285TIP3    H127819   0.878   0.822   3.437
 9285TIP3    H227820   0.859   0.900   3.308
 9286TIP3   OH227821   3.945   5.952   4.784
 9286TIP3    H127822   3.961   5.913   4.871
 9286TIP3    H227823   3.933   6.045   4.801
 9287TIP3   OH227824   6.205   6.114   2.351
 9287TIP3    H127825   6.219   6.047   2.284
 9287TIP3    H227826   6.125   6.159   2.325
 9288TIP3   OH227827   6.418   4.477   3.889
 9288TIP3    H127828   6.408   4.451   3.981
 9288TIP3    H227829   6.498   4.530   3.887
 9289TIP3   OH227830   0.623   2.183   4.085
 9289TIP3    H127831   0.535   2.221   4.091
 9289TIP3    H227832   0.671   2.241   4.026
 9290TIP3   OH227833   6.049   5.454   4.012
 9290TIP3    H127834   6.046   5.385   4.078
 9290TIP3    H227835   5.963   5.496   4.017
 9291TIP3   OH227836   2.187   1.326   2.747
 9291TIP3    H127837   2.276   1.323   2.711
 9291TIP3    H227838   2.145   1.400   2.703
 9292TIP3   OH227839   3.204   0.847   4.000
 9292TIP3    H127840   3.127   0.829   3.946
 9292TIP3    H227841   3.202   0.781   4.069
 9293TIP3   OH227842   3.312   1.359   3.150
 9293TIP3    H127843   3.380   1.343   3.085
 9293TIP3    H227844   3.291   1.272   3.185
 9294TIP3   OH227845   4.048   0.219   5.202
 9294TIP3    H127846   4.107   0.204   5.128
 9294TIP3    H227847   3.966   0.249   5.161
 9295TIP3   OH227848   5.666   3.940   2.177
 9295TIP3    H127849   5.591   3.902   2.224
 9295TIP3    H227850   5.723   3.973   2.246
 9296TIP3   OH227851   1.463   0.780   2.030
 9296TIP3    H127852   1.412   0.730   2.094
 9296TIP3    H227853   1.467   0.724   1.953
 9297TIP3   OH227854   2.527   0.837   5.505
 9297TIP3    H127855   2.579   0.916   5.514
 9297TIP3    H227856   2.438   0.864   5.528
 9298TIP3   OH227857   1.928   2.892   5.745
 9298TIP3    H127858   1.877   2.901   5.826
 9298TIP3    H227859   1.981   2.972   5.742
 9299TIP3   OH227860   2.872   0.512   3.075
 9299TIP3    H127861   2.888   0.599   3.111
 9299TIP3    H227862   2.934   0.505   3.003
 9300TIP3   OH227863   6.757   1.773   2.214
 9300TIP3    H127864   6.687   1.709   2.221
 9300TIP3    H227865   6.724   1.839   2.153
 9301TIP3   OH227866   1.162   0.911   1.866
 9301TIP3    H127867   1.160   0.953   1.952
 9301TIP3    H227868   1.250   0.928   1.833
 9302TIP3   OH227869   0.213   2.703   5.025
 9302TIP3    H127870   0.135   2.745   5.063
 9302TIP3    H227871   0.182   2.620   4.991
 9303TIP3   OH227872   5.834   4.203   5.520
 9303TIP3    H127873   5.810   4.282   5.568
 9303TIP3    H227874   5.775   4.201   5.445
 9304TIP3   OH227875   1.500   4.230   1.978
 9304TIP3    H127876   1.416   4.184   1.979
 9304TIP3    H227877   1.563   4.167   2.012
 9305TIP3   OH227878   3.858   0.657   3.674
 9305TIP3    H127879   3.951   0.642   3.656
 9305TIP3    H227880   3.819   0.669   3.587
 9306TIP3   OH227881   6.151   4.703   4.013
 9306TIP3    H127882   6.232   4.721   3.966
 9306TIP3    H227883   6.119   4.620   3.977
 9307TIP3   OH227884   2.911   4.662   3.689
 9307TIP3    H127885   2.909   4.750   3.727
 9307TIP3    H227886   2.857   4.669   3.610
 9308TIP3   OH227887   6.108   3.538   3.873
 9308TIP3    H127888   6.170   3.577   3.933
 9308TIP3    H227889   6.155   3.533   3.789
 9309TIP3   OH227890   5.228   1.135   0.371
 9309TIP3    H127891   5.287   1.150   0.297
 9309TIP3    H227892   5.151   1.189   0.351
 9310TIP3   OH227893   3.738   2.567   5.679
 9310TIP3    H127894   3.652   2.546   5.716
 9310TIP3    H227895   3.798   2.561   5.753
 9311TIP3   OH227896   5.288   3.094   5.121
 9311TIP3    H127897   5.203   3.104   5.162
 9311TIP3    H227898   5.270   3.091   5.028
 9312TIP3   OH227899   5.343   2.386   5.822
 9312TIP3    H127900   5.394   2.439   5.760
 9312TIP3    H227901   5.310   2.314   5.769
 9313TIP3   OH227902   4.260   4.312   2.582
 9313TIP3    H127903   4.181   4.263   2.557
 9313TIP3    H227904   4.327   4.284   2.520
 9314TIP3   OH227905   1.397   6.092   0.130
 9314TIP3    H127906   1.329   6.029   0.155
 9314TIP3    H227907   1.370   6.174   0.172
 9315TIP3   OH227908   4.295   5.791   3.605
 9315TIP3    H127909   4.389   5.776   3.622
 9315TIP3    H227910   4.291   5.879   3.569
 9316TIP3   OH227911   2.734   0.126   5.841
 9316TIP3    H127912   2.751   0.100   5.932
 9316TIP3    H227913   2.648   0.088   5.822
 9317TIP3   OH227914   1.296   2.200   0.420
 9317TIP3    H127915   1.204   2.198   0.445
 9317TIP3    H227916   1.344   2.192   0.503
 9318TIP3   OH227917   3.919   5.086   3.824
 9318TIP3    H127918   3.851   5.090   3.756
 9318TIP3    H227919   3.879   5.124   3.902
 9319TIP3   OH227920   2.587   4.160   3.855
 9319TIP3    H127921   2.627   4.226   3.911
 9319TIP3    H227922   2.512   4.205   3.816
 9320TIP3   OH227923   6.052   0.151   2.645
 9320TIP3    H127924   6.092   0.236   2.626
 9320TIP3    H227925   6.078   0.096   2.571
 9321TIP3   OH227926   7.118   2.870   2.237
 9321TIP3    H127927   7.168   2.875   2.319
 9321TIP3    H227928   7.146   2.789   2.196
 9322TIP3   OH227929   4.805   5.217   4.351
 9322TIP3    H127930   4.740   5.202   4.283
 9322TIP3    H227931   4.814   5.312   4.355
 9323TIP3   OH227932   3.651   4.585   1.397
 9323TIP3    H127933   3.682   4.497   1.416
 9323TIP3    H227934   3.580   4.572   1.334
 9324TIP3   OH227935   6.216   1.046   0.400
 9324TIP3    H127936   6.177   1.087   0.477
 9324TIP3    H227937   6.154   1.066   0.329
 9325TIP3   OH227938   6.630   3.913   4.400
 9325TIP3    H127939   6.642   3.879   4.489
 9325TIP3    H227940   6.672   3.847   4.344
 9326TIP3   OH227941   4.470   3.035   0.524
 9326TIP3    H127942   4.431   3.111   0.482
 9326TIP3    H227943   4.453   3.048   0.617
 9327TIP3   OH227944   1.988   2.246   4.232
 9327TIP3    H127945   1.943   2.172   4.273
 9327TIP3    H227946   1.952   2.250   4.143
 9328TIP3   OH227947   6.342   3.416   5.748
 9328TIP3    H127948   6.325   3.492   5.692
 9328TIP3    H227949   6.272   3.354   5.726
 9329TIP3   OH227950   1.187   6.694   0.723
 9329TIP3    H127951   1.217   6.743   0.800
 9329TIP3    H227952   1.265   6.684   0.669
 9330TIP3   OH227953   3.234   2.307   0.847
 9330TIP3    H127954   3.224   2.227   0.898
 9330TIP3    H227955   3.265   2.277   0.762
 9331TIP3   OH227956   6.749   0.087   0.834
 9331TIP3    H127957   6.823   0.028   0.820
 9331TIP3    H227958   6.787   0.164   0.877
 9332TIP3   OH227959   2.606   5.158   5.634
 9332TIP3    H127960   2.580   5.093   5.700
 9332TIP3    H227961   2.580   5.119   5.551
 9333TIP3   OH227962   3.816   4.987   0.337
 9333TIP3    H127963   3.764   4.933   0.396
 9333TIP3    H227964   3.894   5.009   0.386
 9334TIP3   OH227965   2.375   1.120   4.922
 9334TIP3    H127966   2.416   1.202   4.950
 9334TIP3    H227967   2.389   1.117   4.827
 9335TIP3   OH227968   1.695   1.096   4.997
 9335TIP3    H127969   1.645   1.081   4.917
 9335TIP3    H227970   1.717   1.190   4.994
 9336TIP3   OH227971   0.189   5.443   0.301
 9336TIP3    H127972   0.228   5.480   0.222
 9336TIP3    H227973   0.177   5.351   0.281
 9337TIP3   OH227974   2.658   2.944   3.643
 9337TIP3    H127975   2.578   2.907   3.678
 9337TIP3    H227976   2.630   2.995   3.567
 9338TIP3   OH227977   0.876   6.222   2.951
 9338TIP3    H127978   0.792   6.219   2.905
 9338TIP3    H227979   0.935   6.268   2.892
 9339TIP3   OH227980   7.202   6.170   4.960
 9339TIP3    H127981   7.129   6.223   4.989
 9339TIP3    H227982   7.220   6.199   4.871
 9340TIP3   OH227983   0.321   5.807   0.559
 9340TIP3    H127984   0.291   5.824   0.469
 9340TIP3    H227985   0.327   5.711   0.564
 9341TIP3   OH227986   2.488   1.637   2.683
 9341TIP3    H127987   2.578   1.671   2.686
 9341TIP3    H227988   2.479   1.599   2.596
 9342TIP3   OH227989   5.983   1.637   0.428
 9342TIP3    H127990   5.931   1.709   0.392
 9342TIP3    H227991   6.071   1.653   0.394
 9343TIP3   OH227992   1.271   6.519   3.047
 9343TIP3    H127993   1.183   6.504   3.081
 9343TIP3    H227994   1.321   6.550   3.123
 9344TIP3   OH227995   3.993   2.739   4.524
 9344TIP3    H127996   3.910   2.735   4.571
 9344TIP3    H227997   4.046   2.802   4.574
 9345TIP3   OH227998   3.113   0.220   2.485
 9345TIP3    H127999   3.038   0.203   2.428
 9345TIP3    H228000   3.075   0.244   2.569
 9346TIP3   OH228001   2.885   3.340   2.763
 9346TIP3    H128002   2.888   3.430   2.797
 9346TIP3    H228003   2.884   3.285   2.841
 9347TIP3   OH228004   1.809   3.821   4.943
 9347TIP3    H128005   1.727   3.776   4.966
 9347TIP3    H228006   1.819   3.805   4.849
 9348TIP3   OH228007   0.587   5.737   4.476
 9348TIP3    H128008   0.575   5.785   4.394
 9348TIP3    H228009   0.509   5.758   4.528
 9349TIP3   OH228010   2.154   4.175   0.339
 9349TIP3    H128011   2.107   4.141   0.262
 9349TIP3    H228012   2.166   4.098   0.394
 9350TIP3   OH228013   2.213   0.558   2.517
 9350TIP3    H128014   2.183   0.493   2.581
 9350TIP3    H228015   2.280   0.608   2.563
 9351TIP3   OH228016   3.894   4.697   0.698
 9351TIP3    H128017   3.878   4.660   0.611
 9351TIP3    H228018   3.854   4.784   0.695
 9352TIP3   OH228019   5.268   6.614   2.111
 9352TIP3    H128020   5.311   6.617   2.197
 9352TIP3    H228021   5.316   6.548   2.062
 9353TIP3   OH228022   2.525   3.349   4.643
 9353TIP3    H128023   2.566   3.264   4.626
 9353TIP3    H228024   2.487   3.375   4.559
 9354TIP3   OH228025   6.836   5.033   4.928
 9354TIP3    H128026   6.831   4.939   4.915
 9354TIP3    H228027   6.809   5.071   4.845
 9355TIP3   OH228028   5.758   4.659   1.090
 9355TIP3    H128029   5.699   4.594   1.129
 9355TIP3    H228030   5.750   4.644   0.996
 9356TIP3   OH228031   4.764   0.537   5.394
 9356TIP3    H128032   4.766   0.631   5.373
 9356TIP3    H228033   4.825   0.527   5.466
 9357TIP3   OH228034   4.865   1.786   4.943
 9357TIP3    H128035   4.817   1.838   5.006
 9357TIP3    H228036   4.805   1.775   4.870
 9358TIP3   OH228037   2.836   3.646   0.014
 9358TIP3    H128038   2.851   3.625  -0.078
 9358TIP3    H228039   2.837   3.741   0.017
 9359TIP3   OH228040   3.663   2.391   4.545
 9359TIP3    H128041   3.607   2.448   4.597
 9359TIP3    H228042   3.638   2.303   4.571
 9360TIP3   OH228043   1.333   6.669   4.441
 9360TIP3    H128044   1.256   6.719   4.467
 9360TIP3    H228045   1.310   6.630   4.357
 9361TIP3   OH228046   4.187   5.179   3.194
 9361TIP3    H128047   4.112   5.230   3.165
 9361TIP3    H228048   4.162   5.146   3.281
 9362TIP3   OH228049   6.646   2.724   0.785
 9362TIP3    H128050   6.718   2.742   0.845
 9362TIP3    H228051   6.665   2.777   0.708
 9363TIP3   OH228052   4.521   3.002   3.240
 9363TIP3    H128053   4.580   3.017   3.166
 9363TIP3    H228054   4.473   2.923   3.217
 9364TIP3   OH228055   2.640   4.421   4.531
 9364TIP3    H128056   2.655   4.410   4.625
 9364TIP3    H228057   2.549   4.450   4.524
 9365TIP3   OH228058   0.933   0.247   2.071
 9365TIP3    H128059   0.846   0.208   2.077
 9365TIP3    H228060   0.983   0.204   2.141
 9366TIP3   OH228061   2.635   6.487   1.600
 9366TIP3    H128062   2.725   6.490   1.568
 9366TIP3    H228063   2.643   6.468   1.694
 9367TIP3   OH228064   3.715   1.449   2.266
 9367TIP3    H128065   3.625   1.421   2.286
 9367TIP3    H228066   3.746   1.489   2.347
 9368TIP3   OH228067   3.851   3.156   5.803
 9368TIP3    H128068   3.766   3.124   5.773
 9368TIP3    H228069   3.876   3.095   5.873
 9369TIP3   OH228070   3.520   5.123   2.821
 9369TIP3    H128071   3.484   5.048   2.867
 9369TIP3    H228072   3.556   5.086   2.740
 9370TIP3   OH228073   0.780   6.648   5.808
 9370TIP3    H128074   0.824   6.603   5.735
 9370TIP3    H228075   0.777   6.583   5.878
 9371TIP3   OH228076   3.661   0.519   3.839
 9371TIP3    H128077   3.740   0.501   3.889
 9371TIP3    H228078   3.693   0.553   3.755
 9372TIP3   OH228079   5.939   5.075   0.174
 9372TIP3    H128080   6.013   5.120   0.215
 9372TIP3    H228081   5.978   5.000   0.130
 9373TIP3   OH228082   3.681   3.450   4.753
 9373TIP3    H128083   3.603   3.398   4.733
 9373TIP3    H228084   3.712   3.480   4.668
 9374TIP3   OH228085   1.549   1.012   3.083
 9374TIP3    H128086   1.557   0.990   2.990
 9374TIP3    H228087   1.639   1.032   3.111
 9375TIP3   OH228088   0.625   3.237   4.436
 9375TIP3    H128089   0.708   3.201   4.406
 9375TIP3    H228090   0.634   3.240   4.532
 9376TIP3   OH228091   1.462   3.184   1.342
 9376TIP3    H128092   1.410   3.259   1.370
 9376TIP3    H228093   1.547   3.196   1.386
 9377TIP3   OH228094   5.912   5.632   1.659
 9377TIP3    H128095   5.849   5.689   1.703
 9377TIP3    H228096   5.970   5.692   1.611
 9378TIP3   OH228097   2.623   1.271   3.544
 9378TIP3    H128098   2.561   1.308   3.482
 9378TIP3    H228099   2.621   1.330   3.619
 9379TIP3   OH228100   6.945   5.417   3.176
 9379TIP3    H128101   6.961   5.357   3.249
 9379TIP3    H228102   6.867   5.381   3.133
 9380TIP3   OH228103   5.008   2.092   5.033
 9380TIP3    H128104   4.982   2.042   5.110
 9380TIP3    H228105   5.047   2.172   5.068
 9381TIP3   OH228106   2.601   2.607   3.279
 9381TIP3    H128107   2.580   2.538   3.217
 9381TIP3    H228108   2.695   2.621   3.269
 9382TIP3   OH228109   3.785   0.499   4.130
 9382TIP3    H128110   3.867   0.493   4.081
 9382TIP3    H228111   3.775   0.593   4.148
 9383TIP3   OH228112   6.870   1.435   4.480
 9383TIP3    H128113   6.776   1.424   4.496
 9383TIP3    H228114   6.881   1.529   4.467
 9384TIP3   OH228115   1.965   6.208   3.344
 9384TIP3    H128116   1.892   6.154   3.374
 9384TIP3    H228117   2.036   6.145   3.328
 9385TIP3   OH228118   4.573   6.088   4.564
 9385TIP3    H128119   4.507   6.022   4.581
 9385TIP3    H228120   4.628   6.089   4.642
 9386TIP3   OH228121   2.258   1.750   1.858
 9386TIP3    H128122   2.340   1.732   1.903
 9386TIP3    H228123   2.247   1.845   1.866
 9387TIP3   OH228124   4.209   0.538   2.774
 9387TIP3    H128125   4.289   0.504   2.813
 9387TIP3    H228126   4.149   0.550   2.848
 9388TIP3   OH228127   0.346   2.562   1.652
 9388TIP3    H128128   0.416   2.519   1.602
 9388TIP3    H228129   0.381   2.649   1.672
 9389TIP3   OH228130   2.833   4.617   4.730
 9389TIP3    H128131   2.794   4.530   4.739
 9389TIP3    H228132   2.908   4.603   4.671
 9390TIP3   OH228133   5.475   2.761   1.166
 9390TIP3    H128134   5.384   2.791   1.165
 9390TIP3    H228135   5.491   2.741   1.258
 9391TIP3   OH228136   4.571   5.134   5.377
 9391TIP3    H128137   4.497   5.086   5.338
 9391TIP3    H228138   4.549   5.226   5.365
 9392TIP3   OH228139   6.337   3.327   4.427
 9392TIP3    H128140   6.358   3.234   4.440
 9392TIP3    H228141   6.271   3.346   4.494
 9393TIP3   OH228142   5.393   2.805   5.909
 9393TIP3    H128143   5.417   2.819   5.817
 9393TIP3    H228144   5.315   2.859   5.922
 9394TIP3   OH228145   0.128   2.647   1.812
 9394TIP3    H128146   0.189   2.593   1.762
 9394TIP3    H228147   0.176   2.729   1.827
 9395TIP3   OH228148   3.936   3.030   3.120
 9395TIP3    H128149   4.013   3.086   3.114
 9395TIP3    H228150   3.867   3.088   3.154
 9396TIP3   OH228151   1.715   2.259   4.992
 9396TIP3    H128152   1.795   2.266   4.941
 9396TIP3    H228153   1.736   2.301   5.076
 9397TIP3   OH228154   0.229   2.139   0.657
 9397TIP3    H128155   0.217   2.157   0.751
 9397TIP3    H228156   0.141   2.142   0.621
 9398TIP3   OH228157   2.309   4.547   0.817
 9398TIP3    H128158   2.270   4.633   0.798
 9398TIP3    H228159   2.363   4.561   0.894
 9399TIP3   OH228160   0.724   5.587   2.742
 9399TIP3    H128161   0.755   5.640   2.669
 9399TIP3    H228162   0.696   5.651   2.807
 9400TIP3   OH228163   6.468   5.041   4.535
 9400TIP3    H128164   6.421   5.078   4.460
 9400TIP3    H228165   6.400   5.001   4.589
 9401TIP3   OH228166   4.408   5.494   3.236
 9401TIP3    H128167   4.387   5.471   3.327
 9401TIP3    H228168   4.323   5.520   3.198
 9402TIP3   OH228169   2.991   0.194   1.408
 9402TIP3    H128170   3.049   0.165   1.338
 9402TIP3    H228171   3.047   0.245   1.467
 9403TIP3   OH228172   5.491   6.432   0.813
 9403TIP3    H128173   5.445   6.360   0.769
 9403TIP3    H228174   5.432   6.507   0.803
 9404TIP3   OH228175   0.217   0.053   3.441
 9404TIP3    H128176   0.292   0.004   3.408
 9404TIP3    H228177   0.182   0.098   3.364
 9405TIP3   OH228178   1.869   3.324   3.321
 9405TIP3    H128179   1.806   3.295   3.255
 9405TIP3    H228180   1.931   3.378   3.272
 9406TIP3   OH228181   7.065   5.995   1.972
 9406TIP3    H128182   7.049   6.049   1.894
 9406TIP3    H228183   7.088   6.058   2.040
 9407TIP3   OH228184   0.998   6.737   4.997
 9407TIP3    H128185   0.969   6.646   5.003
 9407TIP3    H228186   1.090   6.732   4.972
 9408TIP3   OH228187   6.753   5.045   4.648
 9408TIP3    H128188   6.783   5.124   4.601
 9408TIP3    H228189   6.658   5.048   4.640
 9409TIP3   OH228190   0.019   5.421   0.058
 9409TIP3    H128191  -0.011   5.361   0.127
 9409TIP3    H228192   0.104   5.387   0.033
 9410TIP3   OH228193   4.099   0.043   3.168
 9410TIP3    H128194   4.084   0.093   3.248
 9410TIP3    H228195   4.186   0.005   3.179
 9411TIP3   OH228196   2.592   4.850   2.432
 9411TIP3    H128197   2.621   4.808   2.513
 9411TIP3    H228198   2.541   4.784   2.387
 9412TIP3   OH228199   0.674   5.072   3.270
 9412TIP3    H128200   0.740   5.126   3.312
 9412TIP3    H228201   0.613   5.049   3.340
 9413TIP3   OH228202   1.340   1.479   4.388
 9413TIP3    H128203   1.372   1.540   4.321
 9413TIP3    H228204   1.292   1.535   4.449
 9414TIP3   OH228205   5.191   1.481   5.875
 9414TIP3    H128206   5.252   1.421   5.831
 9414TIP3    H228207   5.131   1.508   5.805
 9415TIP3   OH228208   5.655   2.900   1.868
 9415TIP3    H128209   5.602   2.969   1.828
 9415TIP3    H228210   5.597   2.858   1.931
 9416TIP3   OH228211   1.771   1.344   3.697
 9416TIP3    H128212   1.772   1.398   3.618
 9416TIP3    H228213   1.738   1.259   3.669
 9417TIP3   OH228214   3.045   0.734   1.585
 9417TIP3    H128215   3.082   0.803   1.640
 9417TIP3    H228216   3.076   0.755   1.497
 9418TIP3   OH228217   3.495   5.156   0.657
 9418TIP3    H128218   3.500   5.156   0.752
 9418TIP3    H228219   3.581   5.188   0.629
 9419TIP3   OH228220   0.147   1.821   0.956
 9419TIP3    H128221   0.196   1.847   0.878
 9419TIP3    H228222   0.062   1.865   0.947
 9420TIP3   OH228223   6.687   6.138   1.534
 9420TIP3    H128224   6.608   6.151   1.587
 9420TIP3    H228225   6.756   6.184   1.583
 9421TIP3   OH228226   6.102   0.393   4.805
 9421TIP3    H128227   6.159   0.332   4.852
 9421TIP3    H228228   6.036   0.420   4.869
 9422TIP3   OH228229   1.102   1.376   1.428
 9422TIP3    H128230   1.160   1.407   1.358
 9422TIP3    H228231   1.134   1.422   1.507
 9423TIP3   OH228232   3.625   3.501   4.193
 9423TIP3    H128233   3.671   3.497   4.109
 9423TIP3    H228234   3.555   3.565   4.179
 9424TIP3   OH228235   6.380   1.510   3.073
 9424TIP3    H128236   6.349   1.423   3.099
 9424TIP3    H228237   6.431   1.540   3.148
 9425TIP3   OH228238   0.788   5.893   5.101
 9425TIP3    H128239   0.880   5.914   5.110
 9425TIP3    H228240   0.784   5.830   5.029
 9426TIP3   OH228241   5.795   5.460   5.248
 9426TIP3    H128242   5.873   5.413   5.277
 9426TIP3    H228243   5.761   5.501   5.328
 9427TIP3   OH228244   6.318   4.266   1.891
 9427TIP3    H128245   6.355   4.284   1.804
 9427TIP3    H228246   6.375   4.313   1.951
 9428TIP3   OH228247   1.662   2.169   3.055
 9428TIP3    H128248   1.677   2.098   2.991
 9428TIP3    H228249   1.573   2.153   3.086
 9429TIP3   OH228250   3.312   6.421   2.315
 9429TIP3    H128251   3.398   6.441   2.276
 9429TIP3    H228252   3.269   6.507   2.321
 9430TIP3   OH228253   3.177   6.608   4.260
 9430TIP3    H128254   3.131   6.545   4.315
 9430TIP3    H228255   3.246   6.643   4.316
 9431TIP3   OH228256   6.575   4.807   5.038
 9431TIP3    H128257   6.532   4.808   4.953
 9431TIP3    H228258   6.528   4.872   5.090
 9432TIP3   OH228259   2.681   2.538   0.777
 9432TIP3    H128260   2.775   2.553   0.768
 9432TIP3    H228261   2.665   2.455   0.731
 9433TIP3   OH228262   4.797   3.836   4.951
 9433TIP3    H128263   4.761   3.903   5.008
 9433TIP3    H228264   4.801   3.878   4.865
 9434TIP3   OH228265   3.744   5.192   4.327
 9434TIP3    H128266   3.834   5.167   4.345
 9434TIP3    H228267   3.737   5.282   4.360
 9435TIP3   OH228268   5.019   6.677   2.267
 9435TIP3    H128269   4.998   6.770   2.262
 9435TIP3    H228270   5.079   6.663   2.194
 9436TIP3   OH228271   1.958   1.246   1.988
 9436TIP3    H128272   2.031   1.301   2.016
 9436TIP3    H228273   1.966   1.240   1.893
 9437TIP3   OH228274   5.680   5.786   1.775
 9437TIP3    H128275   5.660   5.879   1.763
 9437TIP3    H228276   5.605   5.741   1.738
 9438TIP3   OH228277   6.724   1.459   3.813
 9438TIP3    H128278   6.772   1.541   3.800
 9438TIP3    H228279   6.792   1.395   3.834
 9439TIP3   OH228280   5.125   0.559   3.088
 9439TIP3    H128281   5.193   0.589   3.149
 9439TIP3    H228282   5.056   0.624   3.096
 9440TIP3   OH228283   2.232   1.870   5.242
 9440TIP3    H128284   2.318   1.857   5.283
 9440TIP3    H228285   2.187   1.786   5.253
 9441TIP3   OH228286   0.919   6.115   1.894
 9441TIP3    H128287   0.931   6.063   1.974
 9441TIP3    H228288   0.844   6.073   1.851
 9442TIP3   OH228289   1.796   4.142   5.682
 9442TIP3    H128290   1.752   4.141   5.597
 9442TIP3    H228291   1.807   4.050   5.705
 9443TIP3   OH228292   3.120   5.871   0.958
 9443TIP3    H128293   3.198   5.823   0.985
 9443TIP3    H228294   3.107   5.847   0.866
 9444TIP3   OH228295   2.460   3.528   4.996
 9444TIP3    H128296   2.457   3.434   4.980
 9444TIP3    H228297   2.488   3.536   5.088
 9445TIP3   OH228298   5.163   4.087   2.989
 9445TIP3    H128299   5.216   4.139   2.928
 9445TIP3    H228300   5.082   4.137   2.998
 9446TIP3   OH228301   5.289   2.416   2.826
 9446TIP3    H128302   5.199   2.416   2.858
 9446TIP3    H228303   5.334   2.480   2.882
 9447TIP3   OH228304   0.347   6.127   1.414
 9447TIP3    H128305   0.433   6.145   1.375
 9447TIP3    H228306   0.297   6.084   1.345
 9448TIP3   OH228307   2.356   4.329   4.886
 9448TIP3    H128308   2.297   4.346   4.959
 9448TIP3    H228309   2.434   4.292   4.926
 9449TIP3   OH228310   3.367   1.770   5.820
 9449TIP3    H128311   3.431   1.747   5.887
 9449TIP3    H228312   3.315   1.691   5.809
 9450TIP3   OH228313   0.089   0.538   4.931
 9450TIP3    H128314   0.038   0.522   4.852
 9450TIP3    H228315   0.026   0.526   5.003
 9451TIP3   OH228316   5.192   2.288   2.476
 9451TIP3    H128317   5.188   2.353   2.546
 9451TIP3    H228318   5.106   2.291   2.435
 9452TIP3   OH228319   3.439   3.422   3.475
 9452TIP3    H128320   3.481   3.488   3.530
 9452TIP3    H228321   3.480   3.340   3.500
 9453TIP3   OH228322   5.727   1.968   3.400
 9453TIP3    H128323   5.689   1.904   3.340
 9453TIP3    H228324   5.663   1.975   3.471
 9454TIP3   OH228325  -0.014   5.232   5.838
 9454TIP3    H128326  -0.003   5.162   5.774
 9454TIP3    H228327   0.074   5.248   5.871
 9455TIP3   OH228328   2.027   4.500   0.983
 9455TIP3    H128329   2.085   4.576   0.984
 9455TIP3    H228330   1.957   4.524   0.922
 9456TIP3   OH228331   0.947   0.937   2.335
 9456TIP3    H128332   0.918   0.846   2.330
 9456TIP3    H228333   1.038   0.935   2.307
 9457TIP3   OH228334   7.029   1.723   1.216
 9457TIP3    H128335   7.099   1.786   1.232
 9457TIP3    H228336   7.016   1.725   1.121
 9458TIP3   OH228337   2.167   2.165   2.329
 9458TIP3    H128338   2.168   2.183   2.235
 9458TIP3    H228339   2.230   2.093   2.339
 9459TIP3   OH228340   3.992   5.732   5.844
 9459TIP3    H128341   3.993   5.743   5.749
 9459TIP3    H228342   3.930   5.661   5.860
 9460TIP3   OH228343   2.203   4.334   5.162
 9460TIP3    H128344   2.172   4.252   5.199
 9460TIP3    H228345   2.125   4.390   5.158
 9461TIP3   OH228346   5.743   4.595   1.671
 9461TIP3    H128347   5.712   4.648   1.745
 9461TIP3    H228348   5.804   4.532   1.711
 9462TIP3   OH228349   3.467   4.582   1.670
 9462TIP3    H128350   3.517   4.565   1.590
 9462TIP3    H228351   3.453   4.495   1.708
 9463TIP3   OH228352   3.803   2.836   5.750
 9463TIP3    H128353   3.751   2.858   5.827
 9463TIP3    H228354   3.762   2.758   5.714
 9464TIP3   OH228355   3.022   1.163   4.086
 9464TIP3    H128356   3.091   1.184   4.149
 9464TIP3    H228357   2.980   1.246   4.068
 9465TIP3   OH228358   0.928   1.269   2.388
 9465TIP3    H128359   0.838   1.239   2.403
 9465TIP3    H228360   0.928   1.360   2.419
 9466TIP3   OH228361   4.368   0.001   3.609
 9466TIP3    H128362   4.407   0.028   3.692
 9466TIP3    H228363   4.430   0.031   3.542
 9467TIP3   OH228364   3.017   0.855   3.720
 9467TIP3    H128365   2.994   0.933   3.668
 9467TIP3    H228366   3.038   0.788   3.655
 9468TIP3   OH228367   3.188   4.130   4.073
 9468TIP3    H128368   3.104   4.152   4.031
 9468TIP3    H228369   3.195   4.193   4.145
 9469TIP3   OH228370   6.998   6.289   1.110
 9469TIP3    H128371   6.940   6.252   1.176
 9469TIP3    H228372   6.975   6.382   1.108
 9470TIP3   OH228373   4.308   6.370   5.146
 9470TIP3    H128374   4.330   6.278   5.162
 9470TIP3    H228375   4.234   6.367   5.085
 9471TIP3   OH228376   5.914   6.253   3.255
 9471TIP3    H128377   5.860   6.183   3.218
 9471TIP3    H228378   6.003   6.219   3.252
 9472TIP3   OH228379   4.627   0.166   1.175
 9472TIP3    H128380   4.635   0.162   1.270
 9472TIP3    H228381   4.589   0.252   1.157
 9473TIP3   OH228382   0.231   3.269   2.484
 9473TIP3    H128383   0.163   3.267   2.552
 9473TIP3    H228384   0.312   3.288   2.532
 9474TIP3   OH228385   3.949   4.749   2.684
 9474TIP3    H128386   3.982   4.792   2.763
 9474TIP3    H228387   4.026   4.705   2.647
 9475TIP3   OH228388   0.114   3.541   4.750
 9475TIP3    H128389   0.059   3.478   4.704
 9475TIP3    H228390   0.121   3.506   4.839
 9476TIP3   OH228391   2.991   6.061   1.080
 9476TIP3    H128392   2.911   6.077   1.030
 9476TIP3    H228393   3.042   6.001   1.026
 9477TIP3   OH228394   6.749   4.398   5.300
 9477TIP3    H128395   6.741   4.329   5.234
 9477TIP3    H228396   6.824   4.451   5.271
 9478TIP3   OH228397   2.232   5.914   1.064
 9478TIP3    H128398   2.151   5.866   1.076
 9478TIP3    H228399   2.265   5.885   0.979
 9479TIP3   OH228400   4.467   0.665   1.324
 9479TIP3    H128401   4.541   0.696   1.272
 9479TIP3    H228402   4.487   0.692   1.413
 9480TIP3   OH228403   3.015   6.009   3.197
 9480TIP3    H128404   3.007   6.029   3.104
 9480TIP3    H228405   2.991   5.916   3.204
 9481TIP3   OH228406   6.473   6.621   5.184
 9481TIP3    H128407   6.481   6.697   5.125
 9481TIP3    H228408   6.561   6.611   5.221
 9482TIP3   OH228409   0.045   5.002   5.153
 9482TIP3    H128410   0.071   4.910   5.153
 9482TIP3    H228411   0.089   5.041   5.228
 9483TIP3   OH228412   2.774   6.271   4.513
 9483TIP3    H128413   2.723   6.190   4.513
 9483TIP3    H228414   2.731   6.326   4.580
 9484TIP3   OH228415   6.232   4.861   1.642
 9484TIP3    H128416   6.195   4.834   1.558
 9484TIP3    H228417   6.162   4.845   1.705
 9485TIP3   OH228418   3.130   3.658   0.885
 9485TIP3    H128419   3.062   3.591   0.894
 9485TIP3    H228420   3.084   3.734   0.848
 9486TIP3   OH228421   0.071   4.345   4.616
 9486TIP3    H128422   0.097   4.280   4.682
 9486TIP3    H228423  -0.016   4.374   4.644
 9487TIP3   OH228424   7.056   2.034   4.539
 9487TIP3    H128425   7.095   1.989   4.614
 9487TIP3    H228426   7.006   1.966   4.494
 9488TIP3   OH228427   2.823   4.701   1.777
 9488TIP3    H128428   2.873   4.676   1.700
 9488TIP3    H228429   2.866   4.780   1.810
 9489TIP3   OH228430   5.089   5.958   5.872
 9489TIP3    H128431   5.068   5.970   5.779
 9489TIP3    H228432   5.035   6.023   5.917
 9490TIP3   OH228433   6.383   3.959   0.297
 9490TIP3    H128434   6.445   3.921   0.360
 9490TIP3    H228435   6.438   3.996   0.228
 9491TIP3   OH228436   4.801   0.216   4.882
 9491TIP3    H128437   4.895   0.218   4.902
 9491TIP3    H228438   4.774   0.308   4.882
 9492TIP3   OH228439   2.931   0.689   5.558
 9492TIP3    H128440   2.998   0.753   5.582
 9492TIP3    H228441   2.978   0.625   5.504
 9493TIP3   OH228442   1.940   1.730   0.647
 9493TIP3    H128443   1.853   1.693   0.661
 9493TIP3    H228444   1.949   1.796   0.716
 9494TIP3   OH228445   2.677   2.725   4.780
 9494TIP3    H128446   2.594   2.681   4.762
 9494TIP3    H228447   2.735   2.698   4.710
 9495TIP3   OH228448   5.475   2.524   1.033
 9495TIP3    H128449   5.457   2.469   1.110
 9495TIP3    H228450   5.471   2.613   1.066
 9496TIP3   OH228451   3.856   5.931   1.073
 9496TIP3    H128452   3.828   5.871   1.141
 9496TIP3    H228453   3.909   5.878   1.014
 9497TIP3   OH228454   6.675   3.583   0.535
 9497TIP3    H128455   6.686   3.608   0.443
 9497TIP3    H228456   6.765   3.574   0.568
 9498TIP3   OH228457   4.802   2.209   0.120
 9498TIP3    H128458   4.884   2.180   0.078
 9498TIP3    H228459   4.826   2.291   0.163
 9499TIP3   OH228460   1.374   4.642   3.336
 9499TIP3    H128461   1.330   4.612   3.256
 9499TIP3    H228462   1.307   4.633   3.404
 9500TIP3   OH228463   0.485   6.598   5.719
 9500TIP3    H128464   0.523   6.511   5.706
 9500TIP3    H228465   0.559   6.653   5.744
 9501TIP3   OH228466   6.688   2.441   4.342
 9501TIP3    H128467   6.698   2.372   4.277
 9501TIP3    H228468   6.678   2.394   4.425
 9502TIP3   OH228469   3.217   0.735   2.795
 9502TIP3    H128470   3.155   0.806   2.780
 9502TIP3    H228471   3.219   0.687   2.712
 9503TIP3   OH228472   2.993   1.936   0.963
 9503TIP3    H128473   3.077   1.950   0.919
 9503TIP3    H228474   3.016   1.915   1.053
 9504TIP3   OH228475   1.650   4.016   0.731
 9504TIP3    H128476   1.568   3.968   0.716
 9504TIP3    H228477   1.719   3.953   0.714
 9505TIP3   OH228478   1.377   5.400   1.475
 9505TIP3    H128479   1.358   5.487   1.511
 9505TIP3    H228480   1.470   5.387   1.493
 9506TIP3   OH228481   0.278   0.698   5.146
 9506TIP3    H128482   0.285   0.729   5.056
 9506TIP3    H228483   0.187   0.715   5.170
 9507TIP3   OH228484   5.269   4.785   5.739
 9507TIP3    H128485   5.272   4.766   5.833
 9507TIP3    H228486   5.358   4.766   5.708
 9508TIP3   OH228487   1.478   0.815   3.747
 9508TIP3    H128488   1.464   0.883   3.680
 9508TIP3    H228489   1.391   0.779   3.762
 9509TIP3   OH228490   0.392   2.230   1.938
 9509TIP3    H128491   0.479   2.214   1.975
 9509TIP3    H228492   0.341   2.153   1.962
 9510TIP3   OH228493   1.487   1.519   3.183
 9510TIP3    H128494   1.567   1.466   3.181
 9510TIP3    H228495   1.484   1.560   3.096
 9511TIP3   OH228496   6.509   5.091   5.381
 9511TIP3    H128497   6.483   5.002   5.403
 9511TIP3    H228498   6.573   5.080   5.310
 9512TIP3   OH228499   6.981   1.897   1.458
 9512TIP3    H128500   6.965   1.803   1.450
 9512TIP3    H228501   7.062   1.911   1.409
 9513TIP3   OH228502   6.801   4.113   2.561
 9513TIP3    H128503   6.715   4.081   2.588
 9513TIP3    H228504   6.854   4.112   2.640
 9514TIP3   OH228505   0.764   0.599   0.593
 9514TIP3    H128506   0.816   0.597   0.513
 9514TIP3    H228507   0.681   0.639   0.567
 9515TIP3   OH228508   0.389   2.485   0.203
 9515TIP3    H128509   0.410   2.551   0.137
 9515TIP3    H228510   0.390   2.532   0.286
 9516TIP3   OH228511   5.822   1.037   2.249
 9516TIP3    H128512   5.852   1.041   2.340
 9516TIP3    H228513   5.846   1.123   2.213
 9517TIP3   OH228514   4.975   4.377   0.727
 9517TIP3    H128515   4.929   4.384   0.811
 9517TIP3    H228516   4.910   4.344   0.666
 9518TIP3   OH228517   6.792   6.476   3.756
 9518TIP3    H128518   6.745   6.406   3.801
 9518TIP3    H228519   6.724   6.532   3.721
 9519TIP3   OH228520   4.987   2.325   1.618
 9519TIP3    H128521   5.042   2.330   1.696
 9519TIP3    H228522   4.947   2.238   1.622
 9520TIP3   OH228523   3.098   4.843   5.047
 9520TIP3    H128524   3.108   4.801   4.962
 9520TIP3    H228525   3.065   4.931   5.027
 9521TIP3   OH228526   6.756   4.548   1.331
 9521TIP3    H128527   6.825   4.610   1.356
 9521TIP3    H228528   6.795   4.462   1.344
 9522TIP3   OH228529   1.328   2.387   4.808
 9522TIP3    H128530   1.354   2.377   4.899
 9522TIP3    H228531   1.233   2.391   4.810
 9523TIP3   OH228532   2.723   1.065   1.757
 9523TIP3    H128533   2.738   1.098   1.846
 9523TIP3    H228534   2.633   1.032   1.758
 9524TIP3   OH228535   4.555   5.288   1.167
 9524TIP3    H128536   4.517   5.375   1.176
 9524TIP3    H228537   4.646   5.304   1.144
 9525TIP3   OH228538   1.743   3.485   1.245
 9525TIP3    H128539   1.754   3.408   1.300
 9525TIP3    H228540   1.770   3.457   1.158
 9526TIP3   OH228541   6.324   6.248   4.791
 9526TIP3    H128542   6.353   6.311   4.857
 9526TIP3    H228543   6.371   6.274   4.711
 9527TIP3   OH228544   2.391   0.666   0.091
 9527TIP3    H128545   2.381   0.588   0.146
 9527TIP3    H228546   2.478   0.699   0.113
 9528TIP3   OH228547   4.918   2.629   2.326
 9528TIP3    H128548   4.837   2.645   2.373
 9528TIP3    H228549   4.911   2.683   2.247
 9529TIP3   OH228550   6.010   1.821   0.168
 9529TIP3    H128551   6.045   1.906   0.140
 9529TIP3    H228552   5.951   1.842   0.241
 9530TIP3   OH228553   1.342   5.294   3.678
 9530TIP3    H128554   1.394   5.371   3.698
 9530TIP3    H228555   1.254   5.329   3.660
 9531TIP3   OH228556   1.739   6.346   3.555
 9531TIP3    H128557   1.724   6.293   3.477
 9531TIP3    H228558   1.676   6.418   3.548
 9532TIP3   OH228559   6.086   5.190   1.534
 9532TIP3    H128560   6.049   5.161   1.450
 9532TIP3    H228561   6.140   5.116   1.563
 9533TIP3   OH228562   7.007   0.413   3.589
 9533TIP3    H128563   7.004   0.332   3.641
 9533TIP3    H228564   7.025   0.384   3.500
 9534TIP3   OH228565   3.271   5.981   2.551
 9534TIP3    H128566   3.290   5.958   2.460
 9534TIP3    H228567   3.319   6.063   2.565
 9535TIP3   OH228568   4.276   2.732   4.848
 9535TIP3    H128569   4.222   2.811   4.853
 9535TIP3    H228570   4.358   2.761   4.809
 9536TIP3   OH228571   3.792   1.751   4.875
 9536TIP3    H128572   3.737   1.808   4.928
 9536TIP3    H228573   3.797   1.669   4.924
 9537TIP3   OH228574   0.274   3.818   4.270
 9537TIP3    H128575   0.311   3.809   4.183
 9537TIP3    H228576   0.209   3.749   4.277
 9538TIP3   OH228577   3.103   2.551   1.293
 9538TIP3    H128578   3.035   2.489   1.320
 9538TIP3    H228579   3.075   2.635   1.328
 9539TIP3   OH228580   3.995   4.965   1.683
 9539TIP3    H128581   3.946   5.025   1.739
 9539TIP3    H228582   3.975   4.878   1.718
 9540TIP3   OH228583   1.315   6.298   2.257
 9540TIP3    H128584   1.328   6.352   2.179
 9540TIP3    H228585   1.354   6.214   2.235
 9541TIP3   OH228586   2.289   1.237   2.026
 9541TIP3    H128587   2.331   1.317   2.057
 9541TIP3    H228588   2.330   1.220   1.942
 9542TIP3   OH228589   5.331   6.428   4.277
 9542TIP3    H128590   5.282   6.348   4.257
 9542TIP3    H228591   5.284   6.497   4.230
 9543TIP3   OH228592   2.908   4.085   3.677
 9543TIP3    H128593   2.888   4.067   3.586
 9543TIP3    H228594   2.915   4.181   3.681
 9544TIP3   OH228595   1.704   4.155   5.422
 9544TIP3    H128596   1.696   4.060   5.413
 9544TIP3    H228597   1.684   4.189   5.335
 9545TIP3   OH228598   5.606   5.611   3.765
 9545TIP3    H128599   5.513   5.611   3.788
 9545TIP3    H228600   5.611   5.559   3.685
 9546TIP3   OH228601   5.353   1.314   5.108
 9546TIP3    H128602   5.355   1.291   5.015
 9546TIP3    H228603   5.370   1.232   5.154
 9547TIP3   OH228604   0.350   6.145   1.672
 9547TIP3    H128605   0.420   6.092   1.708
 9547TIP3    H228606   0.350   6.124   1.578
 9548TIP3   OH228607   2.626   0.750   0.203
 9548TIP3    H128608   2.656   0.842   0.204
 9548TIP3    H228609   2.705   0.700   0.182
 9549TIP3   OH228610   6.751   5.326   3.005
 9549TIP3    H128611   6.663   5.364   3.010
 9549TIP3    H228612   6.778   5.340   2.914
 9550TIP3   OH228613   2.908   0.913   5.007
 9550TIP3    H128614   2.954   0.871   5.080
 9550TIP3    H228615   2.868   0.840   4.959
 9551TIP3   OH228616   3.884   1.305   4.996
 9551TIP3    H128617   3.964   1.355   4.984
 9551TIP3    H228618   3.912   1.227   5.045
 9552TIP3   OH228619   3.343   0.609   4.112
 9552TIP3    H128620   3.351   0.672   4.183
 9552TIP3    H228621   3.249   0.600   4.098
 9553TIP3   OH228622   6.867   2.846   0.910
 9553TIP3    H128623   6.943   2.787   0.908
 9553TIP3    H228624   6.894   2.923   0.862
 9554TIP3   OH228625   7.078   0.855   1.783
 9554TIP3    H128626   7.119   0.781   1.739
 9554TIP3    H228627   7.134   0.873   1.858
 9555TIP3   OH228628   6.454   0.400   1.647
 9555TIP3    H128629   6.484   0.331   1.706
 9555TIP3    H228630   6.373   0.433   1.687
 9556TIP3   OH228631   1.500   5.593   5.661
 9556TIP3    H128632   1.562   5.583   5.588
 9556TIP3    H228633   1.509   5.512   5.711
 9557TIP3   OH228634   0.822   3.541   2.000
 9557TIP3    H128635   0.891   3.483   1.968
 9557TIP3    H228636   0.856   3.574   2.083
 9558TIP3   OH228637   2.970   1.597   1.457
 9558TIP3    H128638   2.966   1.640   1.542
 9558TIP3    H228639   2.960   1.669   1.394
 9559TIP3   OH228640   4.707   0.266   1.845
 9559TIP3    H128641   4.748   0.179   1.846
 9559TIP3    H228642   4.624   0.254   1.891
 9560TIP3   OH228643   4.666   0.856   1.398
 9560TIP3    H128644   4.691   0.905   1.320
 9560TIP3    H228645   4.684   0.915   1.470
 9561TIP3   OH228646   7.183   5.602   2.492
 9561TIP3    H128647   7.239   5.643   2.427
 9561TIP3    H228648   7.096   5.600   2.451
 9562TIP3   OH228649   2.072   2.753   0.625
 9562TIP3    H128650   2.124   2.823   0.663
 9562TIP3    H228651   2.093   2.676   0.678
 9563TIP3   OH228652   5.103   3.884   3.154
 9563TIP3    H128653   5.124   3.960   3.101
 9563TIP3    H228654   5.032   3.841   3.106
 9564TIP3   OH228655   6.969   2.636   5.751
 9564TIP3    H128656   6.962   2.713   5.695
 9564TIP3    H228657   6.954   2.670   5.840
 9565TIP3   OH228658   2.441   6.320   4.705
 9565TIP3    H128659   2.445   6.254   4.636
 9565TIP3    H228660   2.351   6.353   4.702
 9566TIP3   OH228661   2.635   3.845   5.557
 9566TIP3    H128662   2.562   3.842   5.496
 9566TIP3    H228663   2.665   3.936   5.553
 9567TIP3   OH228664   2.940   2.718   1.479
 9567TIP3    H128665   2.891   2.760   1.409
 9567TIP3    H228666   2.912   2.627   1.477
 9568TIP3   OH228667   7.104   0.946   5.540
 9568TIP3    H128668   7.049   0.955   5.618
 9568TIP3    H228669   7.131   0.854   5.541
 9569TIP3   OH228670   0.227   2.781   2.402
 9569TIP3    H128671   0.235   2.735   2.318
 9569TIP3    H228672   0.209   2.872   2.378
 9570TIP3   OH228673   1.130   4.431   5.838
 9570TIP3    H128674   1.039   4.451   5.816
 9570TIP3    H228675   1.179   4.454   5.759
 9571TIP3   OH228676   7.139   3.619   2.815
 9571TIP3    H128677   7.051   3.614   2.776
 9571TIP3    H228678   7.136   3.698   2.870
 9572TIP3   OH228679   3.577   3.371   2.856
 9572TIP3    H128680   3.597   3.313   2.930
 9572TIP3    H228681   3.606   3.457   2.885
 9573TIP3   OH228682   3.590   4.009   0.795
 9573TIP3    H128683   3.536   4.025   0.873
 9573TIP3    H228684   3.662   4.072   0.802
 9574TIP3   OH228685   6.196   0.584   0.829
 9574TIP3    H128686   6.182   0.556   0.738
 9574TIP3    H228687   6.109   0.577   0.869
 9575TIP3   OH228688   5.601   0.294   5.321
 9575TIP3    H128689   5.533   0.282   5.387
 9575TIP3    H228690   5.675   0.241   5.353
 9576TIP3   OH228691   4.223   6.541   2.386
 9576TIP3    H128692   4.299   6.579   2.342
 9576TIP3    H228693   4.151   6.552   2.323
 9577TIP3   OH228694   2.663   6.209   2.207
 9577TIP3    H128695   2.737   6.247   2.255
 9577TIP3    H228696   2.704   6.157   2.138
 9578TIP3   OH228697   5.750   1.170   3.454
 9578TIP3    H128698   5.657   1.194   3.454
 9578TIP3    H228699   5.796   1.252   3.438
 9579TIP3   OH228700   6.963   5.482   4.316
 9579TIP3    H128701   6.929   5.545   4.253
 9579TIP3    H228702   6.978   5.533   4.396
 9580TIP3   OH228703   1.758   0.008   4.970
 9580TIP3    H128704   1.726   0.098   4.971
 9580TIP3    H228705   1.853   0.016   4.973
 9581TIP3   OH228706   4.417   1.743   3.103
 9581TIP3    H128707   4.489   1.803   3.089
 9581TIP3    H228708   4.416   1.728   3.197
 9582TIP3   OH228709   5.408   0.461  -0.016
 9582TIP3    H128710   5.485   0.434   0.033
 9582TIP3    H228711   5.355   0.508   0.048
 9583TIP3   OH228712   1.766   1.302   4.219
 9583TIP3    H128713   1.854   1.266   4.209
 9583TIP3    H228714   1.722   1.242   4.280
 9584TIP3   OH228715   2.623   2.614   3.888
 9584TIP3    H128716   2.690   2.675   3.857
 9584TIP3    H228717   2.609   2.638   3.980
 9585TIP3   OH228718   5.522   4.670   3.216
 9585TIP3    H128719   5.540   4.660   3.122
 9585TIP3    H228720   5.426   4.665   3.222
 9586TIP3   OH228721   0.774   6.325   5.811
 9586TIP3    H128722   0.727   6.365   5.884
 9586TIP3    H228723   0.705   6.302   5.749
 9587TIP3   OH228724   4.542   1.400   5.054
 9587TIP3    H128725   4.557   1.403   4.959
 9587TIP3    H228726   4.495   1.317   5.068
 9588TIP3   OH228727   3.625   5.440   5.736
 9588TIP3    H128728   3.669   5.358   5.718
 9588TIP3    H228729   3.598   5.472   5.650
 9589TIP3   OH228730   0.309   5.594   4.979
 9589TIP3    H128731   0.258   5.539   4.919
 9589TIP3    H228732   0.246   5.655   5.015
 9590TIP3   OH228733   4.306   3.854   4.012
 9590TIP3    H128734   4.214   3.831   4.022
 9590TIP3    H228735   4.313   3.888   3.923
 9591TIP3   OH228736   5.767   3.227   1.408
 9591TIP3    H128737   5.833   3.160   1.391
 9591TIP3    H228738   5.790   3.262   1.494
 9592TIP3   OH228739   1.029   4.098   4.187
 9592TIP3    H128740   1.096   4.043   4.227
 9592TIP3    H228741   1.038   4.182   4.231
 9593TIP3   OH228742   1.071   3.521   3.799
 9593TIP3    H128743   1.052   3.613   3.816
 9593TIP3    H228744   1.078   3.516   3.703
 9594TIP3   OH228745   3.598   5.025   2.550
 9594TIP3    H128746   3.532   4.987   2.492
 9594TIP3    H228747   3.677   4.973   2.533
 9595TIP3   OH228748   4.176   5.564   1.439
 9595TIP3    H128749   4.250   5.615   1.406
 9595TIP3    H228750   4.139   5.523   1.360
 9596TIP3   OH228751   1.942   5.158   0.793
 9596TIP3    H128752   1.914   5.207   0.716
 9596TIP3    H228753   1.884   5.188   0.863
 9597TIP3   OH228754   6.293   6.788   5.438
 9597TIP3    H128755   6.290   6.838   5.357
 9597TIP3    H228756   6.240   6.710   5.420
 9598TIP3   OH228757   7.146   0.459   2.670
 9598TIP3    H128758   7.085   0.386   2.664
 9598TIP3    H228759   7.164   0.468   2.764
 9599TIP3   OH228760   6.033   1.768   4.627
 9599TIP3    H128761   5.940   1.762   4.608
 9599TIP3    H228762   6.037   1.807   4.715
 9600TIP3   OH228763   6.906   3.321   2.028
 9600TIP3    H128764   6.879   3.315   2.120
 9600TIP3    H228765   6.824   3.313   1.979
 9601TIP3   OH228766   5.016   0.130   2.093
 9601TIP3    H128767   5.029   0.166   2.005
 9601TIP3    H228768   5.068   0.187   2.150
 9602TIP3   OH228769   3.590   3.631   0.993
 9602TIP3    H128770   3.632   3.701   1.043
 9602TIP3    H228771   3.498   3.658   0.986
 9603TIP3   OH228772   3.178   2.097   2.362
 9603TIP3    H128773   3.244   2.083   2.295
 9603TIP3    H228774   3.226   2.139   2.434
 9604TIP3   OH228775   4.396   6.446   3.428
 9604TIP3    H128776   4.304   6.456   3.403
 9604TIP3    H228777   4.403   6.356   3.460
 9605TIP3   OH228778   4.849   2.168   1.829
 9605TIP3    H128779   4.903   2.232   1.875
 9605TIP3    H228780   4.777   2.150   1.889
 9606TIP3   OH228781   7.015   0.775   2.849
 9606TIP3    H128782   6.966   0.827   2.913
 9606TIP3    H228783   6.964   0.694   2.840
 9607TIP3   OH228784   6.024   1.140   1.115
 9607TIP3    H128785   5.975   1.209   1.160
 9607TIP3    H228786   5.960   1.072   1.098
 9608TIP3   OH228787   2.024   0.022   5.461
 9608TIP3    H128788   2.046  -0.005   5.371
 9608TIP3    H228789   2.087   0.091   5.481
 9609TIP3   OH228790   2.868   2.284   5.694
 9609TIP3    H128791   2.900   2.227   5.624
 9609TIP3    H228792   2.804   2.231   5.740
 9610TIP3   OH228793   1.538   3.925   1.771
 9610TIP3    H128794   1.523   3.991   1.704
 9610TIP3    H228795   1.588   3.972   1.839
 9611TIP3   OH228796   1.965   3.296   5.363
 9611TIP3    H128797   2.046   3.262   5.401
 9611TIP3    H228798   1.900   3.282   5.432
 9612TIP3   OH228799   5.594   1.055   3.966
 9612TIP3    H128800   5.663   1.041   3.901
 9612TIP3    H228801   5.586   0.971   4.011
 9613TIP3   OH228802   0.437   4.171   4.554
 9613TIP3    H128803   0.379   4.209   4.620
 9613TIP3    H228804   0.414   4.078   4.553
 9614TIP3   OH228805   5.474   1.284   3.419
 9614TIP3    H128806   5.406   1.220   3.438
 9614TIP3    H228807   5.494   1.324   3.504
 9615TIP3   OH228808   0.874   5.183   3.792
 9615TIP3    H128809   0.954   5.211   3.836
 9615TIP3    H228810   0.806   5.187   3.860
 9616TIP3   OH228811   5.365   5.035   2.926
 9616TIP3    H128812   5.313   4.955   2.918
 9616TIP3    H228813   5.437   5.023   2.864
 9617TIP3   OH228814   2.620   6.032   5.854
 9617TIP3    H128815   2.663   5.990   5.779
 9617TIP3    H228816   2.636   6.125   5.843
 9618TIP3   OH228817   0.796   5.389   5.713
 9618TIP3    H128818   0.764   5.325   5.650
 9618TIP3    H228819   0.853   5.339   5.772
 9619TIP3   OH228820   4.361   1.923   1.387
 9619TIP3    H128821   4.380   2.015   1.402
 9619TIP3    H228822   4.267   1.921   1.370
 9620TIP3   OH228823   0.185   3.880   5.356
 9620TIP3    H128824   0.144   3.928   5.284
 9620TIP3    H228825   0.158   3.789   5.341
 9621TIP3   OH228826   4.430   6.113   5.185
 9621TIP3    H128827   4.440   6.025   5.149
 9621TIP3    H228828   4.516   6.135   5.219
 9622TIP3   OH228829   3.635   5.722   5.830
 9622TIP3    H128830   3.555   5.673   5.848
 9622TIP3    H228831   3.663   5.756   5.915
 9623TIP3   OH228832   6.555   2.050   5.523
 9623TIP3    H128833   6.607   1.974   5.500
 9623TIP3    H228834   6.534   2.038   5.616
 9624TIP3   OH228835   3.952   2.359   3.554
 9624TIP3    H128836   3.870   2.407   3.539
 9624TIP3    H228837   3.924   2.269   3.572
 9625TIP3   OH228838   4.914   0.658   1.432
 9625TIP3    H128839   4.855   0.723   1.393
 9625TIP3    H228840   4.903   0.669   1.526
 9626TIP3   OH228841   5.271   2.697   4.901
 9626TIP3    H128842   5.189   2.658   4.929
 9626TIP3    H228843   5.302   2.746   4.977
 9627TIP3   OH228844   6.209   0.705   3.546
 9627TIP3    H128845   6.217   0.624   3.595
 9627TIP3    H228846   6.178   0.769   3.610
 9628TIP3   OH228847   1.569   3.688   5.006
 9628TIP3    H128848   1.552   3.647   5.091
 9628TIP3    H228849   1.514   3.639   4.945
 9629TIP3   OH228850   2.047   0.654   5.899
 9629TIP3    H128851   2.056   0.570   5.944
 9629TIP3    H228852   2.114   0.651   5.830
 9630TIP3   OH228853   6.080   0.814   4.561
 9630TIP3    H128854   6.029   0.747   4.606
 9630TIP3    H228855   6.105   0.875   4.630
 9631TIP3   OH228856   0.691   0.113   2.808
 9631TIP3    H128857   0.771   0.065   2.784
 9631TIP3    H228858   0.706   0.202   2.779
 9632TIP3   OH228859   4.425   5.122   0.121
 9632TIP3    H128860   4.512   5.114   0.081
 9632TIP3    H228861   4.373   5.167   0.054
 9633TIP3   OH228862   0.885   3.230   2.183
 9633TIP3    H128863   0.819   3.277   2.234
 9633TIP3    H228864   0.881   3.269   2.096
 9634TIP3   OH228865   1.599   1.044   1.978
 9634TIP3    H128866   1.583   0.953   2.004
 9634TIP3    H228867   1.626   1.088   2.058
 9635TIP3   OH228868   5.092   0.994   4.224
 9635TIP3    H128869   5.103   0.963   4.134
 9635TIP3    H228870   5.023   1.061   4.218
 9636TIP3   OH228871   0.633   3.759   0.229
 9636TIP3    H128872   0.634   3.767   0.134
 9636TIP3    H228873   0.701   3.819   0.259
 9637TIP3   OH228874   3.340   2.882   0.565
 9637TIP3    H128875   3.291   2.840   0.495
 9637TIP3    H228876   3.428   2.896   0.530
 9638TIP3   OH228877   7.198   6.751   3.402
 9638TIP3    H128878   7.283   6.713   3.381
 9638TIP3    H228879   7.173   6.800   3.324
 9639TIP3   OH228880   1.587   4.676   1.493
 9639TIP3    H128881   1.590   4.594   1.444
 9639TIP3    H228882   1.627   4.656   1.577
 9640TIP3   OH228883   1.615   3.545   3.268
 9640TIP3    H128884   1.655   3.486   3.203
 9640TIP3    H228885   1.555   3.489   3.317
 9641TIP3   OH228886   1.855   0.734   0.955
 9641TIP3    H128887   1.839   0.649   0.913
 9641TIP3    H228888   1.778   0.787   0.932
 9642TIP3   OH228889   1.411   4.426   2.766
 9642TIP3    H128890   1.497   4.403   2.730
 9642TIP3    H228891   1.417   4.401   2.858
 9643TIP3   OH228892   1.079   5.857   5.112
 9643TIP3    H128893   1.103   5.879   5.202
 9643TIP3    H228894   1.161   5.864   5.063
 9644TIP3   OH228895   6.127   6.387   4.158
 9644TIP3    H128896   6.067   6.370   4.230
 9644TIP3    H228897   6.094   6.334   4.086
 9645TIP3   OH228898   2.408   4.325   0.317
 9645TIP3    H128899   2.332   4.268   0.318
 9645TIP3    H228900   2.413   4.357   0.227
 9646TIP3   OH228901   3.340   5.281   5.017
 9646TIP3    H128902   3.287   5.323   4.949
 9646TIP3    H228903   3.423   5.262   4.974
 9647TIP3   OH228904   0.236   1.677   4.488
 9647TIP3    H128905   0.179   1.706   4.559
 9647TIP3    H228906   0.321   1.717   4.507
 9648TIP3   OH228907   5.041   2.823   4.009
 9648TIP3    H128908   5.026   2.885   3.938
 9648TIP3    H228909   4.954   2.799   4.040
 9649TIP3   OH228910   1.829   2.510   4.616
 9649TIP3    H128911   1.815   2.508   4.522
 9649TIP3    H228912   1.759   2.456   4.653
 9650TIP3   OH228913   0.923   2.267   4.184
 9650TIP3    H128914   0.867   2.202   4.227
 9650TIP3    H228915   1.001   2.218   4.158
 9651TIP3   OH228916   4.951   5.893   0.224
 9651TIP3    H128917   4.946   5.798   0.220
 9651TIP3    H228918   4.898   5.923   0.150
 9652TIP3   OH228919   7.111   1.948   0.899
 9652TIP3    H128920   7.070   1.862   0.912
 9652TIP3    H228921   7.038   2.010   0.905
 9653TIP3   OH228922   3.164   5.598   4.299
 9653TIP3    H128923   3.153   5.672   4.359
 9653TIP3    H228924   3.079   5.589   4.257
 9654TIP3   OH228925   6.647   3.523   5.269
 9654TIP3    H128926   6.608   3.611   5.271
 9654TIP3    H228927   6.729   3.532   5.318
 9655TIP3   OH228928   4.796   5.055   3.469
 9655TIP3    H128929   4.730   5.034   3.403
 9655TIP3    H228930   4.845   5.129   3.433
 9656TIP3   OH228931   1.211   0.700   3.737
 9656TIP3    H128932   1.247   0.659   3.815
 9656TIP3    H228933   1.219   0.633   3.669
 9657TIP3   OH228934   5.833   0.318   1.385
 9657TIP3    H128935   5.816   0.382   1.455
 9657TIP3    H228936   5.909   0.269   1.417
 9658TIP3   OH228937   4.783   4.241   2.603
 9658TIP3    H128938   4.809   4.205   2.688
 9658TIP3    H228939   4.847   4.206   2.541
 9659TIP3   OH228940   5.775   0.506   4.486
 9659TIP3    H128941   5.849   0.553   4.525
 9659TIP3    H228942   5.726   0.472   4.560
 9660TIP3   OH228943   4.476   1.220   2.464
 9660TIP3    H128944   4.403   1.278   2.484
 9660TIP3    H228945   4.551   1.262   2.506
 9661TIP3   OH228946   2.382   5.471   1.978
 9661TIP3    H128947   2.445   5.482   2.049
 9661TIP3    H228948   2.378   5.376   1.963
 9662TIP3   OH228949   3.349   2.173   4.842
 9662TIP3    H128950   3.334   2.268   4.843
 9662TIP3    H228951   3.370   2.154   4.750
 9663TIP3   OH228952   2.167   5.310   0.852
 9663TIP3    H128953   2.232   5.256   0.897
 9663TIP3    H228954   2.099   5.247   0.826
 9664TIP3   OH228955   4.620   1.038   2.229
 9664TIP3    H128956   4.683   1.106   2.207
 9664TIP3    H228957   4.646   0.963   2.175
 9665TIP3   OH228958   4.861   4.475   5.356
 9665TIP3    H128959   4.783   4.530   5.369
 9665TIP3    H228960   4.841   4.394   5.402
 9666TIP3   OH228961   0.062   0.427   3.743
 9666TIP3    H128962   0.093   0.356   3.687
 9666TIP3    H228963  -0.030   0.438   3.718
 9667TIP3   OH228964   4.613   6.310   3.054
 9667TIP3    H128965   4.582   6.389   3.098
 9667TIP3    H228966   4.542   6.247   3.064
 9668TIP3   OH228967   5.471   3.604   2.241
 9668TIP3    H128968   5.432   3.691   2.235
 9668TIP3    H228969   5.531   3.600   2.166
 9669TIP3   OH228970   1.028   1.918   2.008
 9669TIP3    H128971   1.111   1.873   1.996
 9669TIP3    H228972   0.965   1.847   2.024
 9670TIP3   OH228973   2.744   0.226   3.581
 9670TIP3    H128974   2.682   0.208   3.652
 9670TIP3    H228975   2.706   0.301   3.535
 9671TIP3   OH228976   0.776   4.893   1.989
 9671TIP3    H128977   0.748   4.967   1.934
 9671TIP3    H228978   0.871   4.896   1.987
 9672TIP3   OH228979   4.813   5.339   4.039
 9672TIP3    H128980   4.723   5.343   4.006
 9672TIP3    H228981   4.831   5.246   4.051
 9673TIP3   OH228982   5.408   3.474   2.892
 9673TIP3    H128983   5.447   3.562   2.893
 9673TIP3    H228984   5.426   3.439   2.980
 9674TIP3   OH228985   3.136   2.720   4.235
 9674TIP3    H128986   3.099   2.796   4.279
 9674TIP3    H228987   3.140   2.745   4.143
 9675TIP3   OH228988   4.897   5.386   4.826
 9675TIP3    H128989   4.857   5.355   4.745
 9675TIP3    H228990   4.985   5.415   4.800
 9676TIP3   OH228991   6.054   4.893   1.402
 9676TIP3    H128992   5.969   4.893   1.446
 9676TIP3    H228993   6.052   4.815   1.347
 9677TIP3   OH228994   4.955   2.881   3.209
 9677TIP3    H128995   4.998   2.858   3.127
 9677TIP3    H228996   5.027   2.894   3.271
 9678TIP3   OH228997   0.220   0.393   5.384
 9678TIP3    H128998   0.133   0.429   5.370
 9678TIP3    H228999   0.226   0.380   5.478
 9679TIP3   OH229000   0.565   3.473   0.077
 9679TIP3    H129001   0.574   3.489   0.171
 9679TIP3    H229002   0.653   3.454   0.047
 9680TIP3   OH229003   6.393   3.602   4.372
 9680TIP3    H129004   6.419   3.510   4.367
 9680TIP3    H229005   6.460   3.648   4.322
 9681TIP3   OH229006   3.786   4.034   0.457
 9681TIP3    H129007   3.799   3.944   0.489
 9681TIP3    H229008   3.823   4.089   0.526
 9682TIP3   OH229009   0.983   0.863   3.569
 9682TIP3    H129010   1.045   0.928   3.534
 9682TIP3    H229011   1.037   0.806   3.624
 9683TIP3   OH229012   1.944   2.293   1.095
 9683TIP3    H129013   1.975   2.257   1.012
 9683TIP3    H229014   1.995   2.373   1.108
 9684TIP3   OH229015   0.892   1.626   0.737
 9684TIP3    H129016   0.828   1.660   0.674
 9684TIP3    H229017   0.902   1.534   0.713
 9685TIP3   OH229018   6.154   5.208   1.113
 9685TIP3    H129019   6.190   5.189   1.200
 9685TIP3    H229020   6.068   5.248   1.131
 9686TIP3   OH229021   4.487   2.429   0.814
 9686TIP3    H129022   4.448   2.507   0.776
 9686TIP3    H229023   4.581   2.437   0.795
 9687TIP3   OH229024   4.892   2.392   5.165
 9687TIP3    H129025   4.849   2.412   5.082
 9687TIP3    H229026   4.840   2.438   5.231
 9688TIP3   OH229027   5.747   0.043   5.144
 9688TIP3    H129028   5.797  -0.002   5.212
 9688TIP3    H229029   5.808   0.107   5.108
 9689TIP3   OH229030   5.293   0.207   1.812
 9689TIP3    H129031   5.198   0.207   1.825
 9689TIP3    H229032   5.330   0.211   1.900
 9690TIP3   OH229033   0.111   5.637   0.728
 9690TIP3    H129034   0.183   5.622   0.790
 9690TIP3    H229035   0.152   5.627   0.642
 9691TIP3   OH229036   2.253   6.304   5.088
 9691TIP3    H129037   2.332   6.269   5.047
 9691TIP3    H229038   2.186   6.238   5.071
 9692TIP3   OH229039   0.786   6.705   1.526
 9692TIP3    H129040   0.752   6.616   1.532
 9692TIP3    H229041   0.773   6.742   1.614
 9693TIP3   OH229042   3.149   3.825   1.814
 9693TIP3    H129043   3.244   3.812   1.826
 9693TIP3    H229044   3.134   3.914   1.847
 9694TIP3   OH229045   2.645   3.177   4.145
 9694TIP3    H129046   2.706   3.130   4.088
 9694TIP3    H229047   2.559   3.158   4.108
 9695TIP3   OH229048   5.123   1.635   1.100
 9695TIP3    H129049   5.210   1.652   1.065
 9695TIP3    H229050   5.073   1.601   1.025
 9696TIP3   OH229051   5.700   0.161  -0.032
 9696TIP3    H129052   5.686   0.087   0.027
 9696TIP3    H229053   5.670   0.237   0.018
 9697TIP3   OH229054   4.728   5.918   0.999
 9697TIP3    H129055   4.706   5.876   0.916
 9697TIP3    H229056   4.759   5.846   1.054
 9698TIP3   OH229057   3.980   1.392   3.652
 9698TIP3    H129058   3.885   1.395   3.637
 9698TIP3    H229059   4.004   1.301   3.636
 9699TIP3   OH229060   0.242   6.283   3.036
 9699TIP3    H129061   0.277   6.207   3.082
 9699TIP3    H229062   0.158   6.301   3.079
 9700TIP3   OH229063   3.853   2.595   0.070
 9700TIP3    H129064   3.925   2.658   0.080
 9700TIP3    H229065   3.794   2.636   0.007
 9701TIP3   OH229066   1.402   1.566   5.081
 9701TIP3    H129067   1.322   1.584   5.032
 9701TIP3    H229068   1.462   1.636   5.056
 9702TIP3   OH229069   6.343   4.912   5.148
 9702TIP3    H129070   6.321   4.892   5.239
 9702TIP3    H229071   6.353   5.007   5.146
 9703TIP3   OH229072   4.253   5.126   0.603
 9703TIP3    H129073   4.348   5.114   0.608
 9703TIP3    H229074   4.240   5.194   0.537
 9704TIP3   OH229075   6.537   3.370   3.129
 9704TIP3    H129076   6.517   3.455   3.089
 9704TIP3    H229077   6.626   3.350   3.102
 9705TIP3   OH229078   0.649   3.462   1.287
 9705TIP3    H129079   0.577   3.497   1.340
 9705TIP3    H229080   0.625   3.371   1.272
 9706TIP3   OH229081   7.059   0.361   5.820
 9706TIP3    H129082   7.142   0.318   5.838
 9706TIP3    H229083   7.006   0.347   5.898
 9707TIP3   OH229084   3.732   4.404   3.038
 9707TIP3    H129085   3.772   4.489   3.059
 9707TIP3    H229086   3.790   4.339   3.077
 9708TIP3   OH229087   6.601   5.076   4.060
 9708TIP3    H129088   6.522   5.070   4.114
 9708TIP3    H229089   6.634   5.165   4.076
 9709TIP3   OH229090   6.361   3.683   0.967
 9709TIP3    H129091   6.314   3.640   1.039
 9709TIP3    H229092   6.451   3.652   0.976
 9710TIP3   OH229093   4.171   2.529   1.993
 9710TIP3    H129094   4.126   2.449   1.969
 9710TIP3    H229095   4.138   2.550   2.080
 9711TIP3   OH229096   1.132   5.269   4.703
 9711TIP3    H129097   1.227   5.273   4.718
 9711TIP3    H229098   1.124   5.263   4.607
 9712TIP3   OH229099   4.826   3.628   5.262
 9712TIP3    H129100   4.816   3.623   5.358
 9712TIP3    H229101   4.744   3.592   5.228
 9713TIP3   OH229102   3.907   2.907   1.923
 9713TIP3    H129103   3.896   2.902   2.018
 9713TIP3    H229104   3.853   2.981   1.896
 9714TIP3   OH229105   0.618   5.136   1.183
 9714TIP3    H129106   0.544   5.130   1.123
 9714TIP3    H229107   0.598   5.075   1.253
 9715TIP3   OH229108   1.169   0.675   2.755
 9715TIP3    H129109   1.074   0.668   2.739
 9715TIP3    H229110   1.204   0.710   2.673
 9716TIP3   OH229111   2.254   3.541   5.877
 9716TIP3    H129112   2.343   3.574   5.875
 9716TIP3    H229113   2.206   3.602   5.933
 9717TIP3   OH229114   0.700   3.414   2.266
 9717TIP3    H129115   0.607   3.427   2.248
 9717TIP3    H229116   0.740   3.500   2.248
 9718TIP3   OH229117   0.786   5.696   4.927
 9718TIP3    H129118   0.784   5.602   4.944
 9718TIP3    H229119   0.696   5.717   4.902
 9719TIP3   OH229120   3.417   2.072   0.360
 9719TIP3    H129121   3.470   1.995   0.380
 9719TIP3    H229122   3.349   2.039   0.301
 9720TIP3   OH229123   4.266   1.742   2.471
 9720TIP3    H129124   4.206   1.802   2.515
 9720TIP3    H229125   4.209   1.678   2.428
 9721TIP3   OH229126   5.853   3.725   4.589
 9721TIP3    H129127   5.783   3.779   4.550
 9721TIP3    H229128   5.832   3.636   4.562
 9722TIP3   OH229129   6.827   4.745   1.532
 9722TIP3    H129130   6.842   4.775   1.621
 9722TIP3    H229131   6.745   4.696   1.537
 9723TIP3   OH229132   1.510   4.944   3.811
 9723TIP3    H129133   1.440   4.896   3.854
 9723TIP3    H229134   1.470   4.978   3.731
 9724TIP3   OH229135   3.707   5.781   1.739
 9724TIP3    H129136   3.774   5.840   1.772
 9724TIP3    H229137   3.736   5.694   1.768
 9725TIP3   OH229138   5.754   1.335   3.227
 9725TIP3    H129139   5.770   1.405   3.290
 9725TIP3    H229140   5.828   1.275   3.237
 9726TIP3   OH229141   5.587   3.756   0.754
 9726TIP3    H129142   5.602   3.851   0.753
 9726TIP3    H229143   5.497   3.746   0.724
 9727TIP3   OH229144   3.677   3.130   3.897
 9727TIP3    H129145   3.695   3.037   3.904
 9727TIP3    H229146   3.588   3.140   3.931
 9728TIP3   OH229147   1.522   1.448   4.180
 9728TIP3    H129148   1.468   1.430   4.103
 9728TIP3    H229149   1.595   1.386   4.172
 9729TIP3   OH229150   2.365   6.646   3.196
 9729TIP3    H129151   2.450   6.613   3.166
 9729TIP3    H229152   2.354   6.606   3.283
 9730TIP3   OH229153   4.088   0.595   3.528
 9730TIP3    H129154   4.098   0.528   3.460
 9730TIP3    H229155   4.078   0.677   3.480
 9731TIP3   OH229156   5.331   0.360   4.280
 9731TIP3    H129157   5.240   0.347   4.253
 9731TIP3    H229158   5.326   0.418   4.356
 9732TIP3   OH229159   0.641   4.583   4.379
 9732TIP3    H129160   0.677   4.539   4.303
 9732TIP3    H229161   0.625   4.673   4.350
 9733TIP3   OH229162   4.922   4.181   2.346
 9733TIP3    H129163   4.827   4.189   2.354
 9733TIP3    H229164   4.946   4.242   2.276
 9734TIP3   OH229165   5.812   2.588   1.507
 9734TIP3    H129166   5.775   2.563   1.423
 9734TIP3    H229167   5.738   2.623   1.557
 9735TIP3   OH229168   2.068   1.422   3.491
 9735TIP3    H129169   1.981   1.396   3.458
 9735TIP3    H229170   2.053   1.505   3.535
 9736TIP3   OH229171   0.228   6.538   5.828
 9736TIP3    H129172   0.150   6.581   5.795
 9736TIP3    H229173   0.296   6.558   5.763
 9737TIP3   OH229174   1.931   4.579   4.328
 9737TIP3    H129175   1.932   4.674   4.325
 9737TIP3    H229176   2.015   4.553   4.289
 9738TIP3   OH229177   1.360   4.779   2.235
 9738TIP3    H129178   1.446   4.788   2.194
 9738TIP3    H229179   1.313   4.716   2.179
 9739TIP3   OH229180   0.030   6.411   4.434
 9739TIP3    H129181   0.040   6.479   4.368
 9739TIP3    H229182  -0.038   6.353   4.399
 9740TIP3   OH229183   1.938   6.263   2.698
 9740TIP3    H129184   1.993   6.252   2.620
 9740TIP3    H229185   1.859   6.306   2.665
 9741TIP3   OH229186   1.544   1.564   2.719
 9741TIP3    H129187   1.565   1.478   2.755
 9741TIP3    H229188   1.510   1.613   2.793
 9742TIP3   OH229189   4.607   2.353   0.423
 9742TIP3    H129190   4.542   2.334   0.356
 9742TIP3    H229191   4.557   2.386   0.497
 9743TIP3   OH229192   4.165   6.124   0.956
 9743TIP3    H129193   4.224   6.100   1.028
 9743TIP3    H229194   4.114   6.044   0.940
 9744TIP3   OH229195   3.262   5.858   3.820
 9744TIP3    H129196   3.260   5.941   3.772
 9744TIP3    H229197   3.209   5.873   3.898
 9745TIP3   OH229198   5.798   2.834   3.367
 9745TIP3    H129199   5.705   2.853   3.382
 9745TIP3    H229200   5.829   2.908   3.314
 9746TIP3   OH229201   5.654   2.288   2.271
 9746TIP3    H129202   5.617   2.364   2.315
 9746TIP3    H229203   5.611   2.213   2.313
 9747TIP3   OH229204   1.929   6.382   0.283
 9747TIP3    H129205   1.961   6.328   0.356
 9747TIP3    H229206   1.892   6.319   0.221
 9748TIP3   OH229207   2.443   0.110   5.468
 9748TIP3    H129208   2.480   0.088   5.553
 9748TIP3    H229209   2.512   0.090   5.405
 9749TIP3   OH229210   1.414   1.946   5.557
 9749TIP3    H129211   1.451   2.013   5.499
 9749TIP3    H229212   1.359   1.893   5.500
   7.20840   6.79615   5.88562   0.00000   0.00000  -2.40280   0.00000  -2.40280  -3.39807
