Title t=  77.00000 step= 38500
19927
    1ASP      N    1   2.284   0.639   2.825
    1ASP    HT1    2   2.302   0.611   2.923
    1ASP    HT2    3   2.335   0.574   2.762
    1ASP    HT3    4   2.183   0.631   2.801
    1ASP     CA    5   2.340   0.773   2.793
    1ASP     HA    6   2.446   0.761   2.809
    1ASP     CB    7   2.309   0.809   2.638
    1ASP    HB1    8   2.206   0.851   2.628
    1ASP    HB2    9   2.317   0.715   2.580
    1ASP     CG   10   2.404   0.905   2.585
    1ASP    OD1   11   2.499   0.936   2.660
    1ASP    OD2   12   2.392   0.951   2.463
    1ASP      C   13   2.290   0.878   2.898
    1ASP      O   14   2.207   0.847   2.983
    2ALA      N   15   2.339   1.001   2.887
    2ALA     HN   16   2.401   1.022   2.812
    2ALA     CA   17   2.296   1.110   2.969
    2ALA     HA   18   2.279   1.081   3.072
    2ALA     CB   19   2.393   1.225   2.950
    2ALA    HB1   20   2.400   1.243   2.841
    2ALA    HB2   21   2.491   1.189   2.989
    2ALA    HB3   22   2.361   1.317   3.003
    2ALA      C   23   2.159   1.146   2.924
    2ALA      O   24   2.124   1.139   2.804
    3ASP      N   25   2.066   1.182   3.020
    3ASP     HN   26   2.081   1.173   3.119
    3ASP     CA   27   1.938   1.221   2.972
    3ASP     HA   28   1.902   1.150   2.900
    3ASP     CB   29   1.844   1.245   3.093
    3ASP    HB1   30   1.741   1.280   3.070
    3ASP    HB2   31   1.888   1.325   3.156
    3ASP     CG   32   1.834   1.128   3.181
    3ASP    OD1   33   1.856   1.013   3.136
    3ASP    OD2   34   1.786   1.149   3.297
    3ASP      C   35   1.935   1.347   2.894
    3ASP      O   36   2.018   1.434   2.916
    4GLY      N   37   1.841   1.359   2.806
    4GLY     HN   38   1.773   1.286   2.804
    4GLY     CA   39   1.816   1.472   2.715
    4GLY    HA1   40   1.777   1.442   2.620
    4GLY    HA2   41   1.910   1.526   2.705
    4GLY      C   42   1.706   1.566   2.768
    4GLY      O   43   1.667   1.558   2.887
    5PRO      N   44   1.653   1.658   2.686
    5PRO     CD   45   1.722   1.692   2.554
    5PRO    HD1   46   1.710   1.607   2.483
    5PRO    HD2   47   1.832   1.699   2.560
    5PRO     CA   48   1.528   1.734   2.711
    5PRO     HA   49   1.540   1.808   2.787
    5PRO     CB   50   1.514   1.806   2.575
    5PRO    HB1   51   1.457   1.902   2.585
    5PRO    HB2   52   1.449   1.742   2.511
    5PRO     CG   53   1.653   1.817   2.510
    5PRO    HG1   54   1.646   1.826   2.400
    5PRO    HG2   55   1.719   1.901   2.540
    5PRO      C   56   1.402   1.652   2.754
    5PRO      O   57   1.388   1.537   2.716
    6GLY      N   58   1.316   1.713   2.838
    6GLY     HN   59   1.322   1.811   2.856
    6GLY     CA   60   1.216   1.633   2.907
    6GLY    HA1   61   1.191   1.672   3.005
    6GLY    HA2   62   1.255   1.532   2.912
    6GLY      C   63   1.087   1.612   2.837
    6GLY      O   64   1.075   1.593   2.716
    7ASP      N   65   0.972   1.615   2.910
    7ASP     HN   66   0.985   1.608   3.008
    7ASP     CA   67   0.835   1.595   2.863
    7ASP     HA   68   0.846   1.496   2.821
    7ASP     CB   69   0.741   1.598   2.987
    7ASP    HB1   70   0.641   1.577   2.943
    7ASP    HB2   71   0.746   1.702   3.027
    7ASP     CG   72   0.766   1.501   3.101
    7ASP    OD1   73   0.881   1.461   3.127
    7ASP    OD2   74   0.676   1.482   3.185
    7ASP      C   75   0.793   1.701   2.757
    7ASP      O   76   0.820   1.822   2.770
    8PRO      N   77   0.732   1.661   2.647
    8PRO     CD   78   0.719   1.519   2.607
    8PRO    HD1   79   0.650   1.463   2.673
    8PRO    HD2   80   0.820   1.472   2.603
    8PRO     CA   81   0.648   1.742   2.562
    8PRO     HA   82   0.716   1.779   2.486
    8PRO     CB   83   0.555   1.637   2.499
    8PRO    HB1   84   0.501   1.664   2.406
    8PRO    HB2   85   0.474   1.621   2.574
    8PRO     CG   86   0.645   1.518   2.475
    8PRO    HG1   87   0.602   1.420   2.448
    8PRO    HG2   88   0.716   1.542   2.392
    8PRO      C   89   0.567   1.849   2.630
    8PRO      O   90   0.498   1.821   2.723
    9ASP      N   91   0.587   1.978   2.584
    9ASP     HN   92   0.639   2.012   2.506
    9ASP     CA   93   0.528   2.091   2.656
    9ASP     HA   94   0.553   2.082   2.761
    9ASP     CB   95   0.595   2.219   2.610
    9ASP    HB1   96   0.542   2.307   2.654
    9ASP    HB2   97   0.592   2.225   2.499
    9ASP     CG   98   0.740   2.225   2.654
    9ASP    OD1   99   0.772   2.206   2.771
    9ASP    OD2  100   0.825   2.261   2.565
    9ASP      C  101   0.374   2.110   2.631
    9ASP      O  102   0.302   2.046   2.556
   10ALA      N  103   0.316   2.192   2.724
   10ALA     HN  104   0.374   2.236   2.791
   10ALA     CA  105   0.185   2.241   2.715
   10ALA     HA  106   0.123   2.176   2.656
   10ALA     CB  107   0.109   2.251   2.840
   10ALA    HB1  108   0.175   2.314   2.904
   10ALA    HB2  109   0.092   2.158   2.897
   10ALA    HB3  110   0.012   2.303   2.850
   10ALA      C  111   0.182   2.371   2.636
   10ALA      O  112   0.289   2.432   2.620
   11GLY      N  113   0.063   2.423   2.590
   11GLY     HN  114  -0.015   2.362   2.602
   11GLY     CA  115   0.041   2.549   2.518
   11GLY    HA1  116   0.134   2.602   2.506
   11GLY    HA2  117  -0.033   2.605   2.573
   11GLY      C  118   6.329   2.524   2.370
   11GLY    OT1  119   0.048   2.436   2.301
   11GLY    OT2  120   6.231   2.596   2.330
   12SOD    SOD  121   5.560   2.570   4.886
   13SOD    SOD  122   2.185   5.196   0.115
   14SOD    SOD  123   0.961   0.021   3.037
   15SOD    SOD  124   0.007   1.316   0.972
   16SOD    SOD  125   1.484   3.100   2.577
   17SOD    SOD  126   3.011   3.061   4.054
   18SOD    SOD  127   1.896   2.953   1.549
   19SOD    SOD  128   4.443   5.049   4.450
   20SOD    SOD  129   0.250   4.834   1.833
   21SOD    SOD  130   4.295   3.574   2.945
   22SOD    SOD  131   0.656   2.012   1.973
   23SOD    SOD  132   2.296   4.953   1.328
   24SOD    SOD  133   3.081   0.156   3.191
   25SOD    SOD  134   0.748   0.547   1.565
   26SOD    SOD  135   1.143   4.261   1.830
   27SOD    SOD  136   6.154   3.461   3.761
   28SOD    SOD  137   2.919   0.036   4.081
   29SOD    SOD  138   5.699   2.727   0.346
   30SOD    SOD  139   2.023   1.473   4.061
   31SOD    SOD  140   3.240   3.424   0.747
   32SOD    SOD  141   4.803   0.400   0.311
   33SOD    SOD  142   5.310   0.688   4.179
   34CLA    CLA  143   1.852   2.416   3.825
   35CLA    CLA  144   0.962   1.566   1.269
   36CLA    CLA  145   6.091   5.539   2.128
   37CLA    CLA  146   3.131   3.304   3.321
   38CLA    CLA  147   3.475   2.434   4.640
   39CLA    CLA  148   3.338   5.908   1.289
   40CLA    CLA  149   4.409   3.761   0.070
   41CLA    CLA  150   4.596   3.820   5.011
   42CLA    CLA  151   0.413   3.301   0.491
   43CLA    CLA  152   4.856   4.363   2.875
   44CLA    CLA  153   0.678   4.239   4.490
   45CLA    CLA  154   0.425   2.695   3.819
   46CLA    CLA  155   5.326   0.337   0.314
   47CLA    CLA  156   5.970   1.813   1.964
   48CLA    CLA  157   3.533   0.689   4.478
   49CLA    CLA  158   6.072   2.967   1.500
   50CLA    CLA  159   4.973   0.283   4.084
   51CLA    CLA  160   0.451   2.766   0.151
   52TIP3   OH2  161   6.175   2.565   1.095
   52TIP3    H1  162   6.216   2.648   1.071
   52TIP3    H2  163   6.247   2.511   1.127
   53TIP3   OH2  164   4.863   0.214   4.370
   53TIP3    H1  165   4.887   0.262   4.291
   53TIP3    H2  166   4.946   0.196   4.413
   54TIP3   OH2  167   0.625   0.821   2.243
   54TIP3    H1  168   0.599   0.732   2.219
   54TIP3    H2  169   0.696   0.842   2.181
   55TIP3   OH2  170   4.168   3.026   1.525
   55TIP3    H1  171   4.177   3.102   1.467
   55TIP3    H2  172   4.127   3.060   1.604
   56TIP3   OH2  173   6.135   5.014   0.421
   56TIP3    H1  174   6.176   5.092   0.383
   56TIP3    H2  175   6.115   5.040   0.511
   57TIP3   OH2  176   2.815   3.336   2.187
   57TIP3    H1  177   2.719   3.344   2.183
   57TIP3    H2  178   2.844   3.355   2.098
   58TIP3   OH2  179   4.485   5.608   1.144
   58TIP3    H1  180   4.507   5.661   1.068
   58TIP3    H2  181   4.548   5.636   1.211
   59TIP3   OH2  182   3.604   4.711   4.294
   59TIP3    H1  183   3.586   4.796   4.254
   59TIP3    H2  184   3.530   4.656   4.267
   60TIP3   OH2  185   5.031   1.569   0.871
   60TIP3    H1  186   5.042   1.662   0.852
   60TIP3    H2  187   5.120   1.533   0.870
   61TIP3   OH2  188   5.398   3.363   4.120
   61TIP3    H1  189   5.360   3.374   4.207
   61TIP3    H2  190   5.355   3.285   4.085
   62TIP3   OH2  191   2.605   0.284   3.721
   62TIP3    H1  192   2.685   0.234   3.739
   62TIP3    H2  193   2.534   0.227   3.751
   63TIP3   OH2  194   2.053   3.947   1.791
   63TIP3    H1  195   2.047   4.013   1.722
   63TIP3    H2  196   1.966   3.906   1.793
   64TIP3   OH2  197   2.529   2.371   0.323
   64TIP3    H1  198   2.566   2.410   0.403
   64TIP3    H2  199   2.463   2.434   0.295
   65TIP3   OH2  200   5.356   2.487   0.748
   65TIP3    H1  201   5.407   2.564   0.770
   65TIP3    H2  202   5.268   2.520   0.732
   66TIP3   OH2  203   1.443   0.893   0.113
   66TIP3    H1  204   1.505   0.956   0.150
   66TIP3    H2  205   1.472   0.880   0.023
   67TIP3   OH2  206   1.069   1.960   1.140
   67TIP3    H1  207   1.158   1.966   1.105
   67TIP3    H2  208   1.041   1.871   1.116
   68TIP3   OH2  209   1.868   3.310   1.214
   68TIP3    H1  210   1.938   3.347   1.159
   68TIP3    H2  211   1.799   3.377   1.212
   69TIP3   OH2  212   4.585   1.236   0.093
   69TIP3    H1  213   4.530   1.275   0.026
   69TIP3    H2  214   4.582   1.297   0.166
   70TIP3   OH2  215   2.009   3.133   2.843
   70TIP3    H1  216   1.963   3.049   2.838
   70TIP3    H2  217   2.089   3.120   2.792
   71TIP3   OH2  218   0.545   5.168   2.788
   71TIP3    H1  219   0.636   5.142   2.788
   71TIP3    H2  220   0.519   5.166   2.880
   72TIP3   OH2  221   1.661   2.424   2.423
   72TIP3    H1  222   1.592   2.487   2.444
   72TIP3    H2  223   1.724   2.434   2.494
   73TIP3   OH2  224   3.087   2.660   3.336
   73TIP3    H1  225   3.084   2.572   3.372
   73TIP3    H2  226   3.102   2.648   3.243
   74TIP3   OH2  227   0.998   1.054   1.908
   74TIP3    H1  228   1.071   1.005   1.946
   74TIP3    H2  229   1.004   1.141   1.949
   75TIP3   OH2  230   0.798   3.407   4.390
   75TIP3    H1  231   0.820   3.482   4.335
   75TIP3    H2  232   0.876   3.393   4.444
   76TIP3   OH2  233   2.698   2.858   3.884
   76TIP3    H1  234   2.702   2.784   3.825
   76TIP3    H2  235   2.657   2.928   3.833
   77TIP3   OH2  236   1.403   4.580   2.646
   77TIP3    H1  237   1.380   4.647   2.709
   77TIP3    H2  238   1.419   4.502   2.698
   78TIP3   OH2  239   3.227   2.194   3.609
   78TIP3    H1  240   3.274   2.273   3.582
   78TIP3    H2  241   3.169   2.224   3.679
   79TIP3   OH2  242   0.276   3.328   3.849
   79TIP3    H1  243   0.339   3.281   3.903
   79TIP3    H2  244   0.315   3.327   3.761
   80TIP3   OH2  245   1.148   0.628   1.001
   80TIP3    H1  246   1.223   0.684   1.016
   80TIP3    H2  247   1.126   0.641   0.908
   81TIP3   OH2  248   3.223   4.457   1.417
   81TIP3    H1  249   3.237   4.437   1.509
   81TIP3    H2  250   3.183   4.544   1.416
   82TIP3   OH2  251   3.729   1.529   3.043
   82TIP3    H1  252   3.656   1.467   3.036
   82TIP3    H2  253   3.776   1.520   2.960
   83TIP3   OH2  254   3.742   3.578   2.467
   83TIP3    H1  255   3.667   3.637   2.471
   83TIP3    H2  256   3.793   3.608   2.392
   84TIP3   OH2  257   5.877   5.888   3.761
   84TIP3    H1  258   5.850   5.833   3.834
   84TIP3    H2  259   5.829   5.970   3.772
   85TIP3   OH2  260   1.308   0.111   0.638
   85TIP3    H1  261   1.235   0.164   0.671
   85TIP3    H2  262   1.294   0.025   0.676
   86TIP3   OH2  263   3.161   1.492   4.484
   86TIP3    H1  264   3.162   1.586   4.501
   86TIP3    H2  265   3.252   1.464   4.493
   87TIP3   OH2  266   3.724   4.463   1.312
   87TIP3    H1  267   3.656   4.400   1.336
   87TIP3    H2  268   3.783   4.413   1.256
   88TIP3   OH2  269   2.169   0.920   2.328
   88TIP3    H1  270   2.247   0.928   2.383
   88TIP3    H2  271   2.159   1.006   2.288
   89TIP3   OH2  272   1.763   3.673   2.761
   89TIP3    H1  273   1.751   3.605   2.695
   89TIP3    H2  274   1.675   3.706   2.779
   90TIP3   OH2  275   4.895   5.507   1.177
   90TIP3    H1  276   4.949   5.439   1.136
   90TIP3    H2  277   4.842   5.542   1.105
   91TIP3   OH2  278   1.969   3.822   3.135
   91TIP3    H1  279   1.876   3.810   3.151
   91TIP3    H2  280   1.976   3.912   3.103
   92TIP3   OH2  281   0.811   0.160   2.868
   92TIP3    H1  282   0.724   0.200   2.872
   92TIP3    H2  283   0.856   0.209   2.799
   93TIP3   OH2  284   1.027   4.958   3.227
   93TIP3    H1  285   1.098   5.004   3.270
   93TIP3    H2  286   0.986   5.023   3.170
   94TIP3   OH2  287   2.368   0.986   0.833
   94TIP3    H1  288   2.404   0.912   0.785
   94TIP3    H2  289   2.351   1.052   0.766
   95TIP3   OH2  290   6.246   1.288   4.182
   95TIP3    H1  291   6.295   1.256   4.258
   95TIP3    H2  292   6.314   1.311   4.118
   96TIP3   OH2  293   5.493   5.905   1.646
   96TIP3    H1  294   5.480   5.956   1.566
   96TIP3    H2  295   5.552   5.958   1.700
   97TIP3   OH2  296   1.739   5.477   4.822
   97TIP3    H1  297   1.658   5.428   4.832
   97TIP3    H2  298   1.771   5.490   4.911
   98TIP3   OH2  299   4.349   0.841   4.745
   98TIP3    H1  300   4.328   0.778   4.676
   98TIP3    H2  301   4.415   0.797   4.799
   99TIP3   OH2  302   4.432   2.366   1.085
   99TIP3    H1  303   4.487   2.314   1.144
   99TIP3    H2  304   4.345   2.326   1.093
  100TIP3   OH2  305   5.778   4.818   1.454
  100TIP3    H1  306   5.688   4.837   1.430
  100TIP3    H2  307   5.772   4.744   1.514
  101TIP3   OH2  308   0.431   5.861   2.722
  101TIP3    H1  309   0.490   5.900   2.657
  101TIP3    H2  310   0.348   5.852   2.677
  102TIP3   OH2  311   6.271   2.388   3.566
  102TIP3    H1  312   6.321   2.307   3.570
  102TIP3    H2  313   6.337   2.456   3.555
  103TIP3   OH2  314   1.026   0.432   3.139
  103TIP3    H1  315   0.995   0.467   3.056
  103TIP3    H2  316   1.041   0.510   3.193
  104TIP3   OH2  317   1.171   0.885   2.324
  104TIP3    H1  318   1.082   0.917   2.314
  104TIP3    H2  319   1.186   0.884   2.419
  105TIP3   OH2  320   1.776   0.208   2.840
  105TIP3    H1  321   1.758   0.169   2.754
  105TIP3    H2  322   1.796   0.134   2.897
  106TIP3   OH2  323   1.545   4.788   0.634
  106TIP3    H1  324   1.582   4.702   0.652
  106TIP3    H2  325   1.451   4.778   0.651
  107TIP3   OH2  326   3.252   5.881   3.733
  107TIP3    H1  327   3.276   5.893   3.641
  107TIP3    H2  328   3.176   5.823   3.731
  108TIP3   OH2  329   5.002   0.157   3.637
  108TIP3    H1  330   5.022   0.209   3.560
  108TIP3    H2  331   4.957   0.217   3.696
  109TIP3   OH2  332   2.750   0.594   2.711
  109TIP3    H1  333   2.754   0.572   2.804
  109TIP3    H2  334   2.833   0.640   2.693
  110TIP3   OH2  335   0.456   2.232   3.993
  110TIP3    H1  336   0.430   2.322   3.974
  110TIP3    H2  337   0.521   2.211   3.926
  111TIP3   OH2  338   1.112   3.631   1.293
  111TIP3    H1  339   1.131   3.558   1.235
  111TIP3    H2  340   1.132   3.599   1.381
  112TIP3   OH2  341   2.859   2.751   2.690
  112TIP3    H1  342   2.949   2.784   2.695
  112TIP3    H2  343   2.847   2.701   2.771
  113TIP3   OH2  344   2.328   3.703   2.206
  113TIP3    H1  345   2.401   3.687   2.266
  113TIP3    H2  346   2.297   3.615   2.183
  114TIP3   OH2  347   3.783   5.327   4.605
  114TIP3    H1  348   3.713   5.319   4.669
  114TIP3    H2  349   3.857   5.281   4.643
  115TIP3   OH2  350   6.182   3.758   3.206
  115TIP3    H1  351   6.178   3.852   3.189
  115TIP3    H2  352   6.231   3.750   3.287
  116TIP3   OH2  353   1.124   0.982   3.047
  116TIP3    H1  354   1.204   0.969   3.098
  116TIP3    H2  355   1.053   0.964   3.108
  117TIP3   OH2  356   4.102   1.702   1.639
  117TIP3    H1  357   4.089   1.659   1.555
  117TIP3    H2  358   4.197   1.704   1.651
  118TIP3   OH2  359   5.169   5.536   2.294
  118TIP3    H1  360   5.174   5.441   2.300
  118TIP3    H2  361   5.075   5.556   2.294
  119TIP3   OH2  362   5.821   3.229   3.797
  119TIP3    H1  363   5.754   3.168   3.764
  119TIP3    H2  364   5.794   3.247   3.887
  120TIP3   OH2  365   2.655   2.515   1.711
  120TIP3    H1  366   2.645   2.501   1.617
  120TIP3    H2  367   2.749   2.508   1.728
  121TIP3   OH2  368   1.290   4.755   0.685
  121TIP3    H1  369   1.207   4.708   0.678
  121TIP3    H2  370   1.265   4.847   0.690
  122TIP3   OH2  371   2.617   4.329   1.152
  122TIP3    H1  372   2.577   4.407   1.190
  122TIP3    H2  373   2.705   4.326   1.190
  123TIP3   OH2  374   2.307   1.670   2.158
  123TIP3    H1  375   2.339   1.757   2.136
  123TIP3    H2  376   2.301   1.669   2.253
  124TIP3   OH2  377   6.148   1.184   3.763
  124TIP3    H1  378   6.089   1.249   3.802
  124TIP3    H2  379   6.217   1.173   3.829
  125TIP3   OH2  380   3.722   0.671   1.229
  125TIP3    H1  381   3.722   0.765   1.212
  125TIP3    H2  382   3.685   0.662   1.316
  126TIP3   OH2  383   1.184   0.785   0.116
  126TIP3    H1  384   1.265   0.834   0.128
  126TIP3    H2  385   1.208   0.714   0.056
  127TIP3   OH2  386   4.103   1.558   1.404
  127TIP3    H1  387   4.112   1.464   1.423
  127TIP3    H2  388   4.175   1.578   1.345
  128TIP3   OH2  389   0.054   1.098   2.976
  128TIP3    H1  390   0.124   1.152   2.939
  128TIP3    H2  391   0.033   1.036   2.907
  129TIP3   OH2  392   5.676   3.750   4.628
  129TIP3    H1  393   5.654   3.795   4.547
  129TIP3    H2  394   5.767   3.775   4.645
  130TIP3   OH2  395   1.563   3.716   1.458
  130TIP3    H1  396   1.507   3.771   1.513
  130TIP3    H2  397   1.616   3.666   1.520
  131TIP3   OH2  398   1.389   5.680   3.066
  131TIP3    H1  399   1.324   5.624   3.023
  131TIP3    H2  400   1.472   5.657   3.024
  132TIP3   OH2  401   0.845   3.541   0.052
  132TIP3    H1  402   0.753   3.549   0.028
  132TIP3    H2  403   0.884   3.625   0.026
  133TIP3   OH2  404   1.211   1.975   5.065
  133TIP3    H1  405   1.185   1.907   5.003
  133TIP3    H2  406   1.166   2.054   5.034
  134TIP3   OH2  407   2.786   1.471   4.525
  134TIP3    H1  408   2.847   1.415   4.477
  134TIP3    H2  409   2.701   1.451   4.488
  135TIP3   OH2  410   4.432   4.950   3.513
  135TIP3    H1  411   4.442   5.005   3.435
  135TIP3    H2  412   4.351   4.980   3.553
  136TIP3   OH2  413   0.054   4.261   2.166
  136TIP3    H1  414   0.048   4.346   2.123
  136TIP3    H2  415   0.147   4.238   2.160
  137TIP3   OH2  416   4.024   1.527   0.896
  137TIP3    H1  417   3.958   1.521   0.966
  137TIP3    H2  418   4.019   1.618   0.866
  138TIP3   OH2  419   1.950   2.988   3.873
  138TIP3    H1  420   1.883   2.934   3.915
  138TIP3    H2  421   1.994   2.929   3.812
  139TIP3   OH2  422   3.378   5.502   4.286
  139TIP3    H1  423   3.347   5.412   4.295
  139TIP3    H2  424   3.313   5.554   4.333
  140TIP3   OH2  425   1.661   1.406   3.344
  140TIP3    H1  426   1.707   1.331   3.306
  140TIP3    H2  427   1.724   1.444   3.405
  141TIP3   OH2  428   4.915   2.529   4.157
  141TIP3    H1  429   4.923   2.446   4.109
  141TIP3    H2  430   4.822   2.551   4.151
  142TIP3   OH2  431   2.519   1.045   4.253
  142TIP3    H1  432   2.540   1.001   4.335
  142TIP3    H2  433   2.430   1.077   4.265
  143TIP3   OH2  434   5.268   5.874   4.167
  143TIP3    H1  435   5.236   5.788   4.141
  143TIP3    H2  436   5.194   5.915   4.212
  144TIP3   OH2  437   1.233   5.751   1.286
  144TIP3    H1  438   1.215   5.845   1.296
  144TIP3    H2  439   1.256   5.722   1.374
  145TIP3   OH2  440   4.495   0.889   2.337
  145TIP3    H1  441   4.430   0.823   2.314
  145TIP3    H2  442   4.444   0.962   2.372
  146TIP3   OH2  443   6.070   4.601   0.344
  146TIP3    H1  444   6.135   4.640   0.402
  146TIP3    H2  445   6.111   4.521   0.311
  147TIP3   OH2  446   1.269   5.474   5.016
  147TIP3    H1  447   1.282   5.565   5.043
  147TIP3    H2  448   1.305   5.422   5.089
  148TIP3   OH2  449   1.165   5.550   3.990
  148TIP3    H1  450   1.160   5.462   4.028
  148TIP3    H2  451   1.232   5.543   3.921
  149TIP3   OH2  452   1.269   2.116   3.084
  149TIP3    H1  453   1.222   2.185   3.037
  149TIP3    H2  454   1.356   2.153   3.101
  150TIP3   OH2  455   4.369   2.628   0.318
  150TIP3    H1  456   4.299   2.693   0.305
  150TIP3    H2  457   4.344   2.582   0.397
  151TIP3   OH2  458   4.448   3.669   3.839
  151TIP3    H1  459   4.419   3.597   3.895
  151TIP3    H2  460   4.537   3.689   3.869
  152TIP3   OH2  461   5.447   5.903   4.352
  152TIP3    H1  462   5.463   5.996   4.335
  152TIP3    H2  463   5.371   5.882   4.297
  153TIP3   OH2  464   5.774   4.919   0.859
  153TIP3    H1  465   5.755   4.954   0.946
  153TIP3    H2  466   5.809   4.831   0.876
  154TIP3   OH2  467   6.130   3.620   3.583
  154TIP3    H1  468   6.198   3.664   3.531
  154TIP3    H2  469   6.087   3.691   3.631
  155TIP3   OH2  470   5.562   4.415   0.155
  155TIP3    H1  471   5.571   4.475   0.081
  155TIP3    H2  472   5.468   4.396   0.159
  156TIP3   OH2  473   5.149   0.419   3.179
  156TIP3    H1  474   5.150   0.470   3.260
  156TIP3    H2  475   5.105   0.476   3.115
  157TIP3   OH2  476   1.979   3.239   4.250
  157TIP3    H1  477   1.909   3.248   4.316
  157TIP3    H2  478   2.049   3.192   4.296
  158TIP3   OH2  479   5.944   2.425   4.097
  158TIP3    H1  480   5.992   2.354   4.055
  158TIP3    H2  481   5.860   2.386   4.121
  159TIP3   OH2  482   5.964   1.714   1.331
  159TIP3    H1  483   5.961   1.733   1.238
  159TIP3    H2  484   6.030   1.645   1.339
  160TIP3   OH2  485   0.334   1.125   0.781
  160TIP3    H1  486   0.402   1.150   0.718
  160TIP3    H2  487   0.374   1.055   0.833
  161TIP3   OH2  488   1.391   2.540   2.937
  161TIP3    H1  489   1.452   2.584   2.997
  161TIP3    H2  490   1.354   2.611   2.884
  162TIP3   OH2  491   5.198   5.566   4.966
  162TIP3    H1  492   5.185   5.598   4.876
  162TIP3    H2  493   5.241   5.481   4.955
  163TIP3   OH2  494   3.465   2.088   4.406
  163TIP3    H1  495   3.521   2.163   4.384
  163TIP3    H2  496   3.393   2.126   4.456
  164TIP3   OH2  497   4.006   5.899   3.600
  164TIP3    H1  498   4.079   5.911   3.662
  164TIP3    H2  499   3.928   5.921   3.651
  165TIP3   OH2  500   3.110   1.380   5.023
  165TIP3    H1  501   3.041   1.317   5.001
  165TIP3    H2  502   3.110   1.382   5.119
  166TIP3   OH2  503   4.060   0.026   3.417
  166TIP3    H1  504   4.089   0.022   3.326
  166TIP3    H2  505   4.116   0.092   3.458
  167TIP3   OH2  506   0.333   2.461   2.335
  167TIP3    H1  507   0.341   2.468   2.430
  167TIP3    H2  508   0.239   2.469   2.319
  168TIP3   OH2  509   1.115   2.591   4.943
  168TIP3    H1  510   1.159   2.675   4.926
  168TIP3    H2  511   1.059   2.609   5.019
  169TIP3   OH2  512   0.756   5.915   2.173
  169TIP3    H1  513   0.709   5.917   2.089
  169TIP3    H2  514   0.753   6.006   2.204
  170TIP3   OH2  515   1.403   0.176   4.502
  170TIP3    H1  516   1.486   0.158   4.457
  170TIP3    H2  517   1.430   0.203   4.590
  171TIP3   OH2  518   5.443   0.433   2.869
  171TIP3    H1  519   5.524   0.484   2.865
  171TIP3    H2  520   5.374   0.495   2.847
  172TIP3   OH2  521   3.932   0.982   5.162
  172TIP3    H1  522   3.984   0.940   5.095
  172TIP3    H2  523   3.935   0.922   5.237
  173TIP3   OH2  524   3.447   1.427   0.320
  173TIP3    H1  525   3.399   1.376   0.255
  173TIP3    H2  526   3.386   1.498   0.344
  174TIP3   OH2  527   1.100   3.505   4.691
  174TIP3    H1  528   1.151   3.430   4.723
  174TIP3    H2  529   1.036   3.466   4.631
  175TIP3   OH2  530   5.457   5.425   1.287
  175TIP3    H1  531   5.401   5.419   1.364
  175TIP3    H2  532   5.479   5.518   1.281
  176TIP3   OH2  533   0.477   5.598   1.680
  176TIP3    H1  534   0.511   5.552   1.757
  176TIP3    H2  535   0.525   5.561   1.606
  177TIP3   OH2  536   6.011   4.920   2.024
  177TIP3    H1  537   5.945   4.914   1.956
  177TIP3    H2  538   6.007   4.836   2.070
  178TIP3   OH2  539   2.759   4.937   2.737
  178TIP3    H1  540   2.705   4.932   2.816
  178TIP3    H2  541   2.831   4.877   2.754
  179TIP3   OH2  542   3.104   2.557   1.335
  179TIP3    H1  543   3.175   2.503   1.370
  179TIP3    H2  544   3.052   2.497   1.282
  180TIP3   OH2  545   5.001   3.900   2.834
  180TIP3    H1  546   5.003   3.877   2.927
  180TIP3    H2  547   5.084   3.867   2.800
  181TIP3   OH2  548   6.015   4.073   1.708
  181TIP3    H1  549   5.954   4.087   1.635
  181TIP3    H2  550   5.992   4.141   1.771
  182TIP3   OH2  551   4.747   2.658   0.576
  182TIP3    H1  552   4.793   2.585   0.619
  182TIP3    H2  553   4.682   2.615   0.521
  183TIP3   OH2  554   0.312   0.800   2.887
  183TIP3    H1  555   0.367   0.744   2.832
  183TIP3    H2  556   0.314   0.885   2.844
  184TIP3   OH2  557   4.245   4.218   2.446
  184TIP3    H1  558   4.305   4.146   2.425
  184TIP3    H2  559   4.202   4.190   2.526
  185TIP3   OH2  560   3.867   1.301   3.114
  185TIP3    H1  561   3.932   1.297   3.185
  185TIP3    H2  562   3.808   1.371   3.140
  186TIP3   OH2  563   4.355   4.008   1.333
  186TIP3    H1  564   4.348   3.969   1.420
  186TIP3    H2  565   4.267   4.037   1.311
  187TIP3   OH2  566   2.870   3.256   0.215
  187TIP3    H1  567   2.904   3.173   0.183
  187TIP3    H2  568   2.775   3.244   0.218
  188TIP3   OH2  569   4.128   4.859   2.804
  188TIP3    H1  570   4.069   4.905   2.863
  188TIP3    H2  571   4.155   4.925   2.740
  189TIP3   OH2  572   3.126   0.272   2.527
  189TIP3    H1  573   3.200   0.332   2.532
  189TIP3    H2  574   3.069   0.297   2.599
  190TIP3   OH2  575   6.216   1.253   1.491
  190TIP3    H1  576   6.218   1.310   1.415
  190TIP3    H2  577   6.123   1.244   1.512
  191TIP3   OH2  578   3.547   5.615   3.616
  191TIP3    H1  579   3.582   5.643   3.701
  191TIP3    H2  580   3.573   5.523   3.609
  192TIP3   OH2  581   3.677   1.719   0.635
  192TIP3    H1  582   3.733   1.663   0.581
  192TIP3    H2  583   3.659   1.666   0.713
  193TIP3   OH2  584   5.527   3.080   1.713
  193TIP3    H1  585   5.599   3.139   1.735
  193TIP3    H2  586   5.449   3.123   1.749
  194TIP3   OH2  587   5.725   5.403   2.484
  194TIP3    H1  588   5.750   5.447   2.403
  194TIP3    H2  589   5.807   5.397   2.534
  195TIP3   OH2  590   5.436   0.497   3.187
  195TIP3    H1  591   5.416   0.578   3.141
  195TIP3    H2  592   5.355   0.446   3.184
  196TIP3   OH2  593   4.534   0.674   1.381
  196TIP3    H1  594   4.453   0.657   1.334
  196TIP3    H2  595   4.578   0.742   1.329
  197TIP3   OH2  596   3.503   2.507   2.083
  197TIP3    H1  597   3.454   2.503   2.165
  197TIP3    H2  598   3.585   2.550   2.106
  198TIP3   OH2  599   4.676   0.322   0.479
  198TIP3    H1  600   4.607   0.256   0.471
  198TIP3    H2  601   4.649   0.377   0.553
  199TIP3   OH2  602   2.152   5.088   3.969
  199TIP3    H1  603   2.148   5.151   4.042
  199TIP3    H2  604   2.102   5.013   4.000
  200TIP3   OH2  605   1.452   1.085   1.060
  200TIP3    H1  606   1.536   1.081   1.016
  200TIP3    H2  607   1.473   1.087   1.153
  201TIP3   OH2  608   0.663   3.476   2.398
  201TIP3    H1  609   0.664   3.569   2.420
  201TIP3    H2  610   0.590   3.466   2.336
  202TIP3   OH2  611   4.678   1.762   1.482
  202TIP3    H1  612   4.683   1.727   1.571
  202TIP3    H2  613   4.763   1.743   1.443
  203TIP3   OH2  614   5.499   4.519   2.204
  203TIP3    H1  615   5.530   4.582   2.139
  203TIP3    H2  616   5.440   4.462   2.155
  204TIP3   OH2  617   4.346   3.459   4.345
  204TIP3    H1  618   4.334   3.517   4.420
  204TIP3    H2  619   4.259   3.423   4.328
  205TIP3   OH2  620   3.736   2.648   2.171
  205TIP3    H1  621   3.746   2.568   2.223
  205TIP3    H2  622   3.730   2.718   2.235
  206TIP3   OH2  623   1.602   1.931   0.133
  206TIP3    H1  624   1.567   2.020   0.142
  206TIP3    H2  625   1.592   1.892   0.219
  207TIP3   OH2  626   4.705   4.960   5.037
  207TIP3    H1  627   4.646   4.892   5.069
  207TIP3    H2  628   4.789   4.941   5.079
  208TIP3   OH2  629   5.728   1.441   1.097
  208TIP3    H1  630   5.670   1.410   1.027
  208TIP3    H2  631   5.678   1.510   1.141
  209TIP3   OH2  632   4.031   0.228   4.185
  209TIP3    H1  633   3.994   0.209   4.098
  209TIP3    H2  634   3.974   0.182   4.246
  210TIP3   OH2  635   3.964   4.039   0.858
  210TIP3    H1  636   3.879   4.058   0.897
  210TIP3    H2  637   3.978   4.109   0.795
  211TIP3   OH2  638   0.590   4.432   4.713
  211TIP3    H1  639   0.609   4.364   4.649
  211TIP3    H2  640   0.506   4.406   4.752
  212TIP3   OH2  641   5.555   2.739   4.722
  212TIP3    H1  642   5.605   2.820   4.733
  212TIP3    H2  643   5.585   2.704   4.638
  213TIP3   OH2  644   0.211   3.241   2.115
  213TIP3    H1  645   0.234   3.163   2.064
  213TIP3    H2  646   0.271   3.239   2.190
  214TIP3   OH2  647   1.605   1.528   4.472
  214TIP3    H1  648   1.633   1.439   4.447
  214TIP3    H2  649   1.510   1.528   4.458
  215TIP3   OH2  650   1.952   1.807   1.046
  215TIP3    H1  651   1.960   1.838   1.136
  215TIP3    H2  652   2.038   1.824   1.007
  216TIP3   OH2  653   3.706   0.177   4.607
  216TIP3    H1  654   3.671   0.099   4.650
  216TIP3    H2  655   3.629   0.230   4.586
  217TIP3   OH2  656   2.766   0.423   3.256
  217TIP3    H1  657   2.694   0.390   3.311
  217TIP3    H2  658   2.763   0.518   3.269
  218TIP3   OH2  659   5.371   1.297   3.128
  218TIP3    H1  660   5.312   1.227   3.101
  218TIP3    H2  661   5.456   1.253   3.140
  219TIP3   OH2  662   2.226   5.007   0.246
  219TIP3    H1  663   2.157   4.945   0.269
  219TIP3    H2  664   2.307   4.960   0.263
  220TIP3   OH2  665   2.429   5.098   2.021
  220TIP3    H1  666   2.489   5.127   1.952
  220TIP3    H2  667   2.474   5.122   2.103
  221TIP3   OH2  668   3.425   3.252   0.424
  221TIP3    H1  669   3.384   3.221   0.343
  221TIP3    H2  670   3.491   3.186   0.444
  222TIP3   OH2  671   0.953   5.301   4.631
  222TIP3    H1  672   0.966   5.385   4.587
  222TIP3    H2  673   1.034   5.254   4.618
  223TIP3   OH2  674   1.973   2.810   1.130
  223TIP3    H1  675   2.008   2.784   1.045
  223TIP3    H2  676   1.962   2.905   1.123
  224TIP3   OH2  677   5.708   1.844   2.839
  224TIP3    H1  678   5.718   1.929   2.883
  224TIP3    H2  679   5.616   1.821   2.851
  225TIP3   OH2  680   5.022   4.407   4.445
  225TIP3    H1  681   5.081   4.464   4.396
  225TIP3    H2  682   4.935   4.446   4.432
  226TIP3   OH2  683   5.091   5.377   1.039
  226TIP3    H1  684   5.155   5.322   1.084
  226TIP3    H2  685   5.084   5.339   0.952
  227TIP3   OH2  686   6.133   2.111   2.149
  227TIP3    H1  687   6.083   2.105   2.067
  227TIP3    H2  688   6.192   2.185   2.135
  228TIP3   OH2  689   0.347   4.704   4.698
  228TIP3    H1  690   0.367   4.768   4.630
  228TIP3    H2  691   0.433   4.676   4.730
  229TIP3   OH2  692   5.442   0.493   4.182
  229TIP3    H1  693   5.538   0.498   4.188
  229TIP3    H2  694   5.425   0.403   4.154
  230TIP3   OH2  695   0.155   4.206   3.475
  230TIP3    H1  696   0.122   4.196   3.564
  230TIP3    H2  697   0.079   4.189   3.419
  231TIP3   OH2  698   4.065   1.676   3.486
  231TIP3    H1  699   3.983   1.707   3.524
  231TIP3    H2  700   4.042   1.651   3.397
  232TIP3   OH2  701   1.066   5.395   3.314
  232TIP3    H1  702   0.988   5.438   3.278
  232TIP3    H2  703   1.128   5.467   3.330
  233TIP3   OH2  704   1.653   1.038   0.174
  233TIP3    H1  705   1.607   1.122   0.178
  233TIP3    H2  706   1.744   1.062   0.158
  234TIP3   OH2  707   5.478   3.804   2.307
  234TIP3    H1  708   5.387   3.800   2.337
  234TIP3    H2  709   5.474   3.774   2.216
  235TIP3   OH2  710   3.673   3.373   0.654
  235TIP3    H1  711   3.620   3.395   0.577
  235TIP3    H2  712   3.739   3.442   0.659
  236TIP3   OH2  713   6.323   4.022   3.683
  236TIP3    H1  714   6.239   3.981   3.662
  236TIP3    H2  715   6.383   3.948   3.695
  237TIP3   OH2  716   3.382   3.111   3.325
  237TIP3    H1  717   3.306   3.166   3.304
  237TIP3    H2  718   3.426   3.097   3.241
  238TIP3   OH2  719   1.230   2.375   3.282
  238TIP3    H1  720   1.143   2.335   3.280
  238TIP3    H2  721   1.290   2.302   3.268
  239TIP3   OH2  722   0.596   0.487   2.930
  239TIP3    H1  723   0.502   0.501   2.936
  239TIP3    H2  724   0.608   0.439   2.847
  240TIP3   OH2  725   2.842   3.955   3.340
  240TIP3    H1  726   2.881   3.903   3.411
  240TIP3    H2  727   2.823   4.040   3.381
  241TIP3   OH2  728   0.346   5.096   1.280
  241TIP3    H1  729   0.333   5.002   1.269
  241TIP3    H2  730   0.359   5.108   1.374
  242TIP3   OH2  731   3.236   2.432   0.089
  242TIP3    H1  732   3.224   2.471   0.175
  242TIP3    H2  733   3.330   2.415   0.083
  243TIP3   OH2  734   5.203   5.036   4.479
  243TIP3    H1  735   5.275   4.976   4.498
  243TIP3    H2  736   5.174   5.067   4.565
  244TIP3   OH2  737   0.005   2.684   0.659
  244TIP3    H1  738  -0.039   2.606   0.694
  244TIP3    H2  739   0.072   2.649   0.601
  245TIP3   OH2  740   4.116   0.663   4.042
  245TIP3    H1  741   4.195   0.626   4.081
  245TIP3    H2  742   4.048   0.600   4.062
  246TIP3   OH2  743   2.706   1.315   1.678
  246TIP3    H1  744   2.617   1.343   1.699
  246TIP3    H2  745   2.755   1.329   1.759
  247TIP3   OH2  746   6.051   4.588   2.367
  247TIP3    H1  747   5.971   4.549   2.404
  247TIP3    H2  748   6.121   4.553   2.421
  248TIP3   OH2  749   1.113   3.164   0.251
  248TIP3    H1  750   1.068   3.192   0.171
  248TIP3    H2  751   1.093   3.071   0.259
  249TIP3   OH2  752   1.147   5.119   4.668
  249TIP3    H1  753   1.181   5.096   4.754
  249TIP3    H2  754   1.140   5.036   4.621
  250TIP3   OH2  755   3.148   2.826   2.614
  250TIP3    H1  756   3.163   2.806   2.522
  250TIP3    H2  757   3.147   2.922   2.618
  251TIP3   OH2  758   1.405   3.620   2.750
  251TIP3    H1  759   1.393   3.664   2.666
  251TIP3    H2  760   1.443   3.535   2.728
  252TIP3   OH2  761   1.607   5.578   2.923
  252TIP3    H1  762   1.680   5.523   2.951
  252TIP3    H2  763   1.620   5.589   2.829
  253TIP3   OH2  764   0.479   0.036   3.937
  253TIP3    H1  765   0.426  -0.038   3.906
  253TIP3    H2  766   0.569   0.002   3.937
  254TIP3   OH2  767   0.380   3.326   3.589
  254TIP3    H1  768   0.358   3.399   3.531
  254TIP3    H2  769   0.466   3.297   3.560
  255TIP3   OH2  770   0.541   1.567   4.337
  255TIP3    H1  771   0.512   1.601   4.253
  255TIP3    H2  772   0.629   1.603   4.349
  256TIP3   OH2  773   2.842   5.366   3.705
  256TIP3    H1  774   2.845   5.311   3.783
  256TIP3    H2  775   2.750   5.366   3.679
  257TIP3   OH2  776   3.532   1.414   1.190
  257TIP3    H1  777   3.465   1.383   1.128
  257TIP3    H2  778   3.512   1.507   1.201
  258TIP3   OH2  779   4.274   1.512   3.226
  258TIP3    H1  780   4.296   1.497   3.134
  258TIP3    H2  781   4.356   1.540   3.266
  259TIP3   OH2  782   6.223   3.648   5.022
  259TIP3    H1  783   6.141   3.619   4.981
  259TIP3    H2  784   6.252   3.721   4.968
  260TIP3   OH2  785   2.103   4.573   1.443
  260TIP3    H1  786   2.132   4.657   1.479
  260TIP3    H2  787   2.010   4.586   1.425
  261TIP3   OH2  788   1.564   4.641   2.279
  261TIP3    H1  789   1.542   4.561   2.327
  261TIP3    H2  790   1.602   4.611   2.197
  262TIP3   OH2  791   4.822   3.598   2.107
  262TIP3    H1  792   4.875   3.623   2.182
  262TIP3    H2  793   4.826   3.502   2.105
  263TIP3   OH2  794   3.834   0.853   3.686
  263TIP3    H1  795   3.883   0.916   3.634
  263TIP3    H2  796   3.887   0.839   3.764
  264TIP3   OH2  797   3.610   0.350   3.028
  264TIP3    H1  798   3.528   0.387   3.061
  264TIP3    H2  799   3.608   0.368   2.934
  265TIP3   OH2  800   1.271   0.892   4.073
  265TIP3    H1  801   1.324   0.970   4.087
  265TIP3    H2  802   1.267   0.850   4.159
  266TIP3   OH2  803   5.136   4.274   3.634
  266TIP3    H1  804   5.072   4.291   3.565
  266TIP3    H2  805   5.102   4.198   3.681
  267TIP3   OH2  806   1.100   0.238   0.775
  267TIP3    H1  807   1.050   0.319   0.783
  267TIP3    H2  808   1.040   0.175   0.735
  268TIP3   OH2  809   5.522   2.441   0.199
  268TIP3    H1  810   5.490   2.522   0.240
  268TIP3    H2  811   5.502   2.373   0.264
  269TIP3   OH2  812   4.575   5.574   0.296
  269TIP3    H1  813   4.487   5.568   0.259
  269TIP3    H2  814   4.623   5.502   0.257
  270TIP3   OH2  815   3.240   0.804   0.137
  270TIP3    H1  816   3.272   0.820   0.048
  270TIP3    H2  817   3.279   0.874   0.189
  271TIP3   OH2  818   1.937   5.479   1.625
  271TIP3    H1  819   1.986   5.549   1.668
  271TIP3    H2  820   1.924   5.510   1.536
  272TIP3   OH2  821   1.892   2.771   4.602
  272TIP3    H1  822   1.981   2.737   4.598
  272TIP3    H2  823   1.837   2.692   4.603
  273TIP3   OH2  824   0.563   1.971   3.752
  273TIP3    H1  825   0.492   1.911   3.775
  273TIP3    H2  826   0.606   1.990   3.835
  274TIP3   OH2  827   4.638   1.708   4.180
  274TIP3    H1  828   4.635   1.746   4.268
  274TIP3    H2  829   4.556   1.736   4.139
  275TIP3   OH2  830   3.238   2.573   4.500
  275TIP3    H1  831   3.182   2.533   4.566
  275TIP3    H2  832   3.325   2.536   4.517
  276TIP3   OH2  833   1.990   0.661   2.831
  276TIP3    H1  834   1.956   0.740   2.873
  276TIP3    H2  835   1.919   0.597   2.838
  277TIP3   OH2  836   1.879   2.196   4.709
  277TIP3    H1  837   1.793   2.155   4.713
  277TIP3    H2  838   1.918   2.163   4.628
  278TIP3   OH2  839   6.264   3.046   2.955
  278TIP3    H1  840   6.260   3.009   2.867
  278TIP3    H2  841   6.338   3.003   2.997
  279TIP3   OH2  842   3.673   5.604   0.474
  279TIP3    H1  843   3.707   5.631   0.560
  279TIP3    H2  844   3.695   5.511   0.468
  280TIP3   OH2  845   1.136   2.244   2.034
  280TIP3    H1  846   1.221   2.269   2.070
  280TIP3    H2  847   1.075   2.310   2.067
  281TIP3   OH2  848   6.020   1.368   4.445
  281TIP3    H1  849   6.028   1.460   4.419
  281TIP3    H2  850   6.088   1.323   4.395
  282TIP3   OH2  851   1.926   2.641   4.944
  282TIP3    H1  852   1.882   2.688   4.873
  282TIP3    H2  853   1.984   2.579   4.899
  283TIP3   OH2  854   5.451   5.377   3.379
  283TIP3    H1  855   5.446   5.282   3.389
  283TIP3    H2  856   5.401   5.412   3.453
  284TIP3   OH2  857   1.324   5.791   5.056
  284TIP3    H1  858   1.240   5.818   5.017
  284TIP3    H2  859   1.333   5.845   5.134
  285TIP3   OH2  860   2.672   3.210   1.065
  285TIP3    H1  861   2.629   3.197   0.980
  285TIP3    H2  862   2.739   3.276   1.048
  286TIP3   OH2  863   0.379   4.244   1.522
  286TIP3    H1  864   0.416   4.156   1.513
  286TIP3    H2  865   0.395   4.286   1.438
  287TIP3   OH2  866   5.875   5.447   1.936
  287TIP3    H1  867   5.787   5.463   1.971
  287TIP3    H2  868   5.934   5.475   2.006
  288TIP3   OH2  869   3.613   0.274   4.060
  288TIP3    H1  870   3.597   0.199   4.003
  288TIP3    H2  871   3.651   0.340   4.002
  289TIP3   OH2  872   1.122   0.472   3.998
  289TIP3    H1  873   1.189   0.418   3.956
  289TIP3    H2  874   1.039   0.433   3.970
  290TIP3   OH2  875   2.453   5.786   2.965
  290TIP3    H1  876   2.465   5.828   2.880
  290TIP3    H2  877   2.374   5.733   2.956
  291TIP3   OH2  878   2.742   1.009   2.587
  291TIP3    H1  879   2.650   0.993   2.609
  291TIP3    H2  880   2.757   0.959   2.507
  292TIP3   OH2  881   5.119   3.775   1.123
  292TIP3    H1  882   5.064   3.798   1.048
  292TIP3    H2  883   5.092   3.686   1.147
  293TIP3   OH2  884   5.663   1.151   2.844
  293TIP3    H1  885   5.627   1.239   2.844
  293TIP3    H2  886   5.757   1.163   2.828
  294TIP3   OH2  887   0.110   2.953   0.791
  294TIP3    H1  888   0.071   3.038   0.809
  294TIP3    H2  889   0.049   2.910   0.731
  295TIP3   OH2  890   3.514   1.892   1.921
  295TIP3    H1  891   3.422   1.905   1.900
  295TIP3    H2  892   3.513   1.832   1.996
  296TIP3   OH2  893   4.782   1.061   1.119
  296TIP3    H1  894   4.741   1.127   1.063
  296TIP3    H2  895   4.872   1.091   1.130
  297TIP3   OH2  896   1.945   1.424   4.903
  297TIP3    H1  897   1.936   1.372   4.823
  297TIP3    H2  898   1.869   1.483   4.901
  298TIP3   OH2  899   4.398   1.727   0.016
  298TIP3    H1  900   4.393   1.762   0.105
  298TIP3    H2  901   4.420   1.802  -0.039
  299TIP3   OH2  902   4.015   2.490   0.450
  299TIP3    H1  903   4.017   2.420   0.384
  299TIP3    H2  904   4.042   2.568   0.402
  300TIP3   OH2  905   0.742   1.579   3.994
  300TIP3    H1  906   0.672   1.632   4.031
  300TIP3    H2  907   0.708   1.489   3.994
  301TIP3   OH2  908   2.489   1.129   1.815
  301TIP3    H1  909   2.504   1.213   1.859
  301TIP3    H2  910   2.420   1.147   1.751
  302TIP3   OH2  911   6.109   2.994   3.361
  302TIP3    H1  912   6.066   3.018   3.279
  302TIP3    H2  913   6.122   2.900   3.354
  303TIP3   OH2  914   4.224   3.617   3.525
  303TIP3    H1  915   4.183   3.688   3.575
  303TIP3    H2  916   4.318   3.633   3.533
  304TIP3   OH2  917   2.547   1.657   4.838
  304TIP3    H1  918   2.480   1.604   4.795
  304TIP3    H2  919   2.602   1.689   4.767
  305TIP3   OH2  920   6.007   0.296   4.495
  305TIP3    H1  921   6.079   0.352   4.464
  305TIP3    H2  922   6.048   0.236   4.556
  306TIP3   OH2  923   2.486   0.901   3.867
  306TIP3    H1  924   2.467   0.836   3.935
  306TIP3    H2  925   2.404   0.949   3.857
  307TIP3   OH2  926   2.637   0.783   1.634
  307TIP3    H1  927   2.708   0.749   1.688
  307TIP3    H2  928   2.637   0.877   1.650
  308TIP3   OH2  929   3.320   5.613   1.616
  308TIP3    H1  930   3.334   5.539   1.556
  308TIP3    H2  931   3.362   5.585   1.698
  309TIP3   OH2  932   0.939   5.258   5.053
  309TIP3    H1  933   0.909   5.349   5.050
  309TIP3    H2  934   1.005   5.256   5.122
  310TIP3   OH2  935   0.829   4.741   1.525
  310TIP3    H1  936   0.906   4.711   1.477
  310TIP3    H2  937   0.798   4.663   1.571
  311TIP3   OH2  938   1.807   2.457   5.150
  311TIP3    H1  939   1.848   2.520   5.090
  311TIP3    H2  940   1.748   2.406   5.094
  312TIP3   OH2  941   0.166   3.946   0.659
  312TIP3    H1  942   0.216   4.019   0.622
  312TIP3    H2  943   0.222   3.870   0.645
  313TIP3   OH2  944   4.878   2.156   4.743
  313TIP3    H1  945   4.912   2.106   4.817
  313TIP3    H2  946   4.956   2.190   4.699
  314TIP3   OH2  947   0.990   2.559   3.736
  314TIP3    H1  948   1.053   2.487   3.735
  314TIP3    H2  949   0.921   2.532   3.676
  315TIP3   OH2  950   1.180   1.352   1.200
  315TIP3    H1  951   1.200   1.325   1.290
  315TIP3    H2  952   1.104   1.410   1.210
  316TIP3   OH2  953   2.368   2.197   3.274
  316TIP3    H1  954   2.443   2.206   3.333
  316TIP3    H2  955   2.377   2.109   3.237
  317TIP3   OH2  956   6.138   4.162   2.563
  317TIP3    H1  957   6.208   4.099   2.545
  317TIP3    H2  958   6.065   4.108   2.595
  318TIP3   OH2  959   3.428   1.725   3.707
  318TIP3    H1  960   3.378   1.647   3.730
  318TIP3    H2  961   3.361   1.791   3.688
  319TIP3   OH2  962   4.733   4.826   0.120
  319TIP3    H1  963   4.650   4.853   0.159
  319TIP3    H2  964   4.711   4.752   0.064
  320TIP3   OH2  965   0.932   2.550   0.793
  320TIP3    H1  966   0.858   2.510   0.839
  320TIP3    H2  967   1.007   2.496   0.817
  321TIP3   OH2  968   1.769   0.410   4.827
  321TIP3    H1  969   1.783   0.331   4.879
  321TIP3    H2  970   1.834   0.405   4.757
  322TIP3   OH2  971   1.926   5.044   3.597
  322TIP3    H1  972   2.001   5.092   3.632
  322TIP3    H2  973   1.939   4.954   3.629
  323TIP3   OH2  974   1.255   1.870   3.194
  323TIP3    H1  975   1.175   1.819   3.184
  323TIP3    H2  976   1.235   1.956   3.157
  324TIP3   OH2  977   3.093   0.339   1.766
  324TIP3    H1  978   3.094   0.358   1.860
  324TIP3    H2  979   3.087   0.243   1.761
  325TIP3   OH2  980   1.882   2.968   2.503
  325TIP3    H1  981   1.853   2.882   2.472
  325TIP3    H2  982   1.872   2.964   2.598
  326TIP3   OH2  983   2.118   2.750   0.094
  326TIP3    H1  984   2.212   2.764   0.106
  326TIP3    H2  985   2.082   2.838   0.085
  327TIP3   OH2  986   1.207   0.103   1.433
  327TIP3    H1  987   1.167   0.189   1.428
  327TIP3    H2  988   1.142   0.044   1.395
  328TIP3   OH2  989   2.422   1.982   3.139
  328TIP3    H1  990   2.340   1.937   3.117
  328TIP3    H2  991   2.459   2.007   3.055
  329TIP3   OH2  992   0.808   1.644   4.356
  329TIP3    H1  993   0.884   1.632   4.299
  329TIP3    H2  994   0.845   1.659   4.443
  330TIP3   OH2  995   0.333   5.659   4.289
  330TIP3    H1  996   0.355   5.597   4.220
  330TIP3    H2  997   0.339   5.609   4.371
  331TIP3   OH2  998   2.042   3.672   1.635
  331TIP3    H1  999   1.973   3.728   1.670
  331TIP3    H2 1000   2.021   3.661   1.543
  332TIP3   OH2 1001   2.911   0.178   2.283
  332TIP3    H1 1002   2.880   0.269   2.285
  332TIP3    H2 1003   2.981   0.175   2.348
  333TIP3   OH2 1004   1.077   4.318   3.521
  333TIP3    H1 1005   1.170   4.343   3.518
  333TIP3    H2 1006   1.076   4.228   3.488
  334TIP3   OH2 1007   4.419   3.084   3.973
  334TIP3    H1 1008   4.331   3.111   3.946
  334TIP3    H2 1009   4.460   3.049   3.894
  335TIP3   OH2 1010   2.317   2.543   2.207
  335TIP3    H1 1011   2.392   2.602   2.208
  335TIP3    H2 1012   2.321   2.498   2.292
  336TIP3   OH2 1013   2.880   4.747   0.930
  336TIP3    H1 1014   2.930   4.706   0.859
  336TIP3    H2 1015   2.831   4.817   0.887
  337TIP3   OH2 1016   0.869   3.179   3.297
  337TIP3    H1 1017   0.963   3.186   3.285
  337TIP3    H2 1018   0.859   3.157   3.390
  338TIP3   OH2 1019   4.201   5.477   5.031
  338TIP3    H1 1020   4.173   5.564   5.059
  338TIP3    H2 1021   4.124   5.439   4.990
  339TIP3   OH2 1022   6.245   3.267   5.079
  339TIP3    H1 1023   6.306   3.320   5.130
  339TIP3    H2 1024   6.158   3.297   5.107
  340TIP3   OH2 1025   6.178   2.740   3.269
  340TIP3    H1 1026   6.272   2.752   3.260
  340TIP3    H2 1027   6.142   2.768   3.185
  341TIP3   OH2 1028   5.551   5.797   4.583
  341TIP3    H1 1029   5.477   5.805   4.524
  341TIP3    H2 1030   5.587   5.886   4.589
  342TIP3   OH2 1031   6.299   1.479   0.104
  342TIP3    H1 1032   6.383   1.436   0.117
  342TIP3    H2 1033   6.242   1.441   0.172
  343TIP3   OH2 1034   5.878   2.575   0.387
  343TIP3    H1 1035   5.955   2.556   0.334
  343TIP3    H2 1036   5.847   2.489   0.416
  344TIP3   OH2 1037   5.283   2.865   0.479
  344TIP3    H1 1038   5.290   2.935   0.544
  344TIP3    H2 1039   5.189   2.847   0.473
  345TIP3   OH2 1040   2.189   3.792   4.783
  345TIP3    H1 1041   2.220   3.850   4.852
  345TIP3    H2 1042   2.108   3.833   4.752
  346TIP3   OH2 1043   3.052   0.142   3.948
  346TIP3    H1 1044   3.005   0.201   3.889
  346TIP3    H2 1045   3.139   0.134   3.910
  347TIP3   OH2 1046   2.241   3.972   4.997
  347TIP3    H1 1047   2.288   4.052   5.020
  347TIP3    H2 1048   2.185   3.954   5.073
  348TIP3   OH2 1049   6.313   4.286   0.856
  348TIP3    H1 1050   6.292   4.281   0.762
  348TIP3    H2 1051   6.263   4.215   0.895
  349TIP3   OH2 1052   0.601   5.558   3.333
  349TIP3    H1 1053   0.517   5.539   3.291
  349TIP3    H2 1054   0.579   5.615   3.407
  350TIP3   OH2 1055   4.045   5.306   3.882
  350TIP3    H1 1056   4.041   5.386   3.935
  350TIP3    H2 1057   4.037   5.235   3.946
  351TIP3   OH2 1058   1.780   2.863   4.037
  351TIP3    H1 1059   1.807   2.809   4.111
  351TIP3    H2 1060   1.722   2.807   3.986
  352TIP3   OH2 1061   5.984   0.499   4.045
  352TIP3    H1 1062   5.997   0.408   4.073
  352TIP3    H2 1063   6.072   0.534   4.033
  353TIP3   OH2 1064   5.490   5.493   3.132
  353TIP3    H1 1065   5.481   5.458   3.221
  353TIP3    H2 1066   5.443   5.431   3.077
  354TIP3   OH2 1067   4.052   3.437   1.535
  354TIP3    H1 1068   4.136   3.423   1.579
  354TIP3    H2 1069   4.055   3.381   1.458
  355TIP3   OH2 1070   3.582   0.387   4.421
  355TIP3    H1 1071   3.557   0.472   4.457
  355TIP3    H2 1072   3.653   0.407   4.360
  356TIP3   OH2 1073   1.760   3.944   4.326
  356TIP3    H1 1074   1.750   3.917   4.417
  356TIP3    H2 1075   1.731   4.036   4.324
  357TIP3   OH2 1076   0.913   3.177   1.782
  357TIP3    H1 1077   0.871   3.097   1.750
  357TIP3    H2 1078   1.006   3.167   1.761
  358TIP3   OH2 1079   1.700   4.641   0.068
  358TIP3    H1 1080   1.718   4.580   0.140
  358TIP3    H2 1081   1.672   4.721   0.111
  359TIP3   OH2 1082   5.739   5.341   1.225
  359TIP3    H1 1083   5.658   5.293   1.244
  359TIP3    H2 1084   5.748   5.404   1.297
  360TIP3   OH2 1085   0.380   5.040   3.882
  360TIP3    H1 1086   0.358   4.987   3.806
  360TIP3    H2 1087   0.307   5.026   3.943
  361TIP3   OH2 1088   3.320   1.120   1.227
  361TIP3    H1 1089   3.275   1.048   1.182
  361TIP3    H2 1090   3.255   1.190   1.232
  362TIP3   OH2 1091   2.071   0.850   3.210
  362TIP3    H1 1092   2.115   0.808   3.137
  362TIP3    H2 1093   2.013   0.915   3.170
  363TIP3   OH2 1094   5.513   3.273   4.557
  363TIP3    H1 1095   5.500   3.227   4.475
  363TIP3    H2 1096   5.553   3.356   4.532
  364TIP3   OH2 1097   3.963   0.537   0.852
  364TIP3    H1 1098   3.877   0.501   0.874
  364TIP3    H2 1099   3.956   0.630   0.874
  365TIP3   OH2 1100   1.940   5.286   0.157
  365TIP3    H1 1101   1.887   5.304   0.080
  365TIP3    H2 1102   1.882   5.237   0.216
  366TIP3   OH2 1103   4.634   5.262   3.397
  366TIP3    H1 1104   4.682   5.202   3.454
  366TIP3    H2 1105   4.574   5.308   3.456
  367TIP3   OH2 1106   5.920   0.397   2.636
  367TIP3    H1 1107   5.949   0.367   2.551
  367TIP3    H2 1108   5.953   0.331   2.698
  368TIP3   OH2 1109   3.963   2.492   2.485
  368TIP3    H1 1110   3.874   2.528   2.480
  368TIP3    H2 1111   3.970   2.458   2.574
  369TIP3   OH2 1112   5.774   3.306   4.065
  369TIP3    H1 1113   5.848   3.315   4.124
  369TIP3    H2 1114   5.700   3.283   4.122
  370TIP3   OH2 1115   3.313   0.446   2.185
  370TIP3    H1 1116   3.333   0.366   2.234
  370TIP3    H2 1117   3.233   0.425   2.137
  371TIP3   OH2 1118   5.909   0.681   2.087
  371TIP3    H1 1119   5.838   0.711   2.030
  371TIP3    H2 1120   5.924   0.754   2.147
  372TIP3   OH2 1121   3.047   0.277   1.205
  372TIP3    H1 1122   2.958   0.313   1.196
  372TIP3    H2 1123   3.077   0.310   1.290
  373TIP3   OH2 1124   3.515   2.516   3.707
  373TIP3    H1 1125   3.540   2.432   3.746
  373TIP3    H2 1126   3.466   2.560   3.777
  374TIP3   OH2 1127   4.180   0.673   0.303
  374TIP3    H1 1128   4.120   0.623   0.248
  374TIP3    H2 1129   4.231   0.606   0.349
  375TIP3   OH2 1130   5.825   3.013   1.320
  375TIP3    H1 1131   5.788   3.088   1.367
  375TIP3    H2 1132   5.905   2.991   1.369
  376TIP3   OH2 1133   0.547   0.450   4.873
  376TIP3    H1 1134   0.475   0.513   4.877
  376TIP3    H2 1135   0.524   0.383   4.938
  377TIP3   OH2 1136   4.515   1.094   0.323
  377TIP3    H1 1137   4.545   1.116   0.235
  377TIP3    H2 1138   4.420   1.103   0.319
  378TIP3   OH2 1139   3.405   0.592   0.702
  378TIP3    H1 1140   3.358   0.664   0.661
  378TIP3    H2 1141   3.365   0.585   0.789
  379TIP3   OH2 1142   4.334   0.517   0.473
  379TIP3    H1 1143   4.397   0.568   0.523
  379TIP3    H2 1144   4.312   0.443   0.530
  380TIP3   OH2 1145   0.325   0.953   0.125
  380TIP3    H1 1146   0.235   0.948   0.158
  380TIP3    H2 1147   0.378   0.966   0.204
  381TIP3   OH2 1148   1.786   4.473   3.842
  381TIP3    H1 1149   1.772   4.392   3.892
  381TIP3    H2 1150   1.789   4.445   3.751
  382TIP3   OH2 1151   1.471   3.058   2.078
  382TIP3    H1 1152   1.549   3.064   2.133
  382TIP3    H2 1153   1.425   2.980   2.110
  383TIP3   OH2 1154   4.267   4.480   1.704
  383TIP3    H1 1155   4.301   4.400   1.744
  383TIP3    H2 1156   4.301   4.551   1.759
  384TIP3   OH2 1157   6.151   2.981   2.006
  384TIP3    H1 1158   6.242   2.952   2.007
  384TIP3    H2 1159   6.153   3.064   1.958
  385TIP3   OH2 1160   0.326   2.126   0.998
  385TIP3    H1 1161   0.233   2.108   1.015
  385TIP3    H2 1162   0.371   2.046   1.025
  386TIP3   OH2 1163   0.074   1.494   1.108
  386TIP3    H1 1164   0.123   1.566   1.069
  386TIP3    H2 1165   0.030   1.533   1.184
  387TIP3   OH2 1166   1.937   2.293   1.883
  387TIP3    H1 1167   1.858   2.307   1.831
  387TIP3    H2 1168   1.908   2.237   1.955
  388TIP3   OH2 1169   2.071   2.488   1.168
  388TIP3    H1 1170   2.045   2.580   1.167
  388TIP3    H2 1171   2.075   2.465   1.261
  389TIP3   OH2 1172   3.341   0.298   4.140
  389TIP3    H1 1173   3.432   0.307   4.113
  389TIP3    H2 1174   3.322   0.205   4.132
  390TIP3   OH2 1175   1.600   4.858   0.963
  390TIP3    H1 1176   1.568   4.938   0.921
  390TIP3    H2 1177   1.575   4.788   0.904
  391TIP3   OH2 1178   4.743   1.401   0.589
  391TIP3    H1 1179   4.728   1.306   0.596
  391TIP3    H2 1180   4.838   1.410   0.589
  392TIP3   OH2 1181   1.791   1.024   4.608
  392TIP3    H1 1182   1.825   0.979   4.530
  392TIP3    H2 1183   1.862   1.015   4.672
  393TIP3   OH2 1184   1.754   2.212   4.099
  393TIP3    H1 1185   1.826   2.204   4.035
  393TIP3    H2 1186   1.688   2.264   4.054
  394TIP3   OH2 1187   4.599   4.322   1.002
  394TIP3    H1 1188   4.532   4.299   0.937
  394TIP3    H2 1189   4.678   4.280   0.970
  395TIP3   OH2 1190   0.834   4.472   3.045
  395TIP3    H1 1191   0.836   4.491   3.139
  395TIP3    H2 1192   0.831   4.558   3.003
  396TIP3   OH2 1193   3.443   2.524   1.335
  396TIP3    H1 1194   3.430   2.441   1.290
  396TIP3    H2 1195   3.452   2.589   1.265
  397TIP3   OH2 1196   4.351   1.339   0.537
  397TIP3    H1 1197   4.266   1.326   0.579
  397TIP3    H2 1198   4.330   1.348   0.444
  398TIP3   OH2 1199   1.613   4.138   4.749
  398TIP3    H1 1200   1.561   4.214   4.721
  398TIP3    H2 1201   1.573   4.110   4.831
  399TIP3   OH2 1202   3.036   4.235   3.944
  399TIP3    H1 1203   3.022   4.312   3.999
  399TIP3    H2 1204   3.105   4.261   3.883
  400TIP3   OH2 1205   4.204   0.426   0.921
  400TIP3    H1 1206   4.223   0.337   0.893
  400TIP3    H2 1207   4.109   0.435   0.911
  401TIP3   OH2 1208   4.746   4.475   2.484
  401TIP3    H1 1209   4.797   4.405   2.524
  401TIP3    H2 1210   4.669   4.483   2.540
  402TIP3   OH2 1211   5.667   0.463   0.828
  402TIP3    H1 1212   5.661   0.491   0.919
  402TIP3    H2 1213   5.584   0.490   0.789
  403TIP3   OH2 1214   0.198   4.005   3.206
  403TIP3    H1 1215   0.264   3.937   3.211
  403TIP3    H2 1216   0.238   4.074   3.153
  404TIP3   OH2 1217   0.568   2.052   2.199
  404TIP3    H1 1218   0.497   2.113   2.217
  404TIP3    H2 1219   0.635   2.074   2.264
  405TIP3   OH2 1220   4.789   2.380   1.708
  405TIP3    H1 1221   4.851   2.322   1.753
  405TIP3    H2 1222   4.744   2.426   1.779
  406TIP3   OH2 1223   1.880   4.423   2.581
  406TIP3    H1 1224   1.921   4.480   2.646
  406TIP3    H2 1225   1.842   4.483   2.517
  407TIP3   OH2 1226   1.223   2.838   1.521
  407TIP3    H1 1227   1.306   2.841   1.569
  407TIP3    H2 1228   1.189   2.927   1.528
  408TIP3   OH2 1229   6.161   2.735   1.853
  408TIP3    H1 1230   6.136   2.817   1.896
  408TIP3    H2 1231   6.108   2.734   1.773
  409TIP3   OH2 1232   4.400   4.891   4.283
  409TIP3    H1 1233   4.392   4.936   4.199
  409TIP3    H2 1234   4.436   4.805   4.261
  410TIP3   OH2 1235   4.113   1.858   3.893
  410TIP3    H1 1236   4.175   1.925   3.920
  410TIP3    H2 1237   4.156   1.775   3.916
  411TIP3   OH2 1238   2.264   2.186   3.804
  411TIP3    H1 1239   2.204   2.111   3.802
  411TIP3    H2 1240   2.314   2.174   3.885
  412TIP3   OH2 1241   1.747   3.310   0.946
  412TIP3    H1 1242   1.816   3.306   0.880
  412TIP3    H2 1243   1.770   3.241   1.009
  413TIP3   OH2 1244   0.162   0.937   4.334
  413TIP3    H1 1245   0.209   1.019   4.344
  413TIP3    H2 1246   0.124   0.920   4.420
  414TIP3   OH2 1247   1.581   5.474   1.142
  414TIP3    H1 1248   1.583   5.569   1.135
  414TIP3    H2 1249   1.570   5.456   1.236
  415TIP3   OH2 1250   5.054   3.137   2.914
  415TIP3    H1 1251   5.112   3.212   2.928
  415TIP3    H2 1252   5.113   3.065   2.893
  416TIP3   OH2 1253   6.140   4.780   3.465
  416TIP3    H1 1254   6.175   4.813   3.548
  416TIP3    H2 1255   6.050   4.814   3.462
  417TIP3   OH2 1256   6.060   4.205   5.025
  417TIP3    H1 1257   5.985   4.261   5.007
  417TIP3    H2 1258   6.111   4.253   5.090
  418TIP3   OH2 1259   5.295   1.446   3.398
  418TIP3    H1 1260   5.363   1.512   3.392
  418TIP3    H2 1261   5.318   1.380   3.333
  419TIP3   OH2 1262   3.389   3.320   2.632
  419TIP3    H1 1263   3.473   3.318   2.677
  419TIP3    H2 1264   3.324   3.336   2.701
  420TIP3   OH2 1265   1.708   2.502   4.410
  420TIP3    H1 1266   1.686   2.411   4.394
  420TIP3    H2 1267   1.730   2.506   4.503
  421TIP3   OH2 1268   2.300   0.706   2.166
  421TIP3    H1 1269   2.335   0.767   2.102
  421TIP3    H2 1270   2.279   0.761   2.242
  422TIP3   OH2 1271   0.616   4.896   5.132
  422TIP3    H1 1272   0.671   4.906   5.054
  422TIP3    H2 1273   0.539   4.848   5.101
  423TIP3   OH2 1274   1.525   0.814   2.256
  423TIP3    H1 1275   1.499   0.892   2.306
  423TIP3    H2 1276   1.620   0.818   2.254
  424TIP3   OH2 1277   2.049   1.826   2.680
  424TIP3    H1 1278   2.088   1.746   2.715
  424TIP3    H2 1279   2.029   1.879   2.757
  425TIP3   OH2 1280   1.118   5.518   1.515
  425TIP3    H1 1281   1.118   5.432   1.555
  425TIP3    H2 1282   1.206   5.527   1.478
  426TIP3   OH2 1283   0.725   5.226   0.766
  426TIP3    H1 1284   0.729   5.214   0.861
  426TIP3    H2 1285   0.689   5.314   0.754
  427TIP3   OH2 1286   6.196   3.862   4.040
  427TIP3    H1 1287   6.210   3.824   4.127
  427TIP3    H2 1288   6.102   3.862   4.028
  428TIP3   OH2 1289   5.966   5.032   4.948
  428TIP3    H1 1290   5.971   4.951   4.999
  428TIP3    H2 1291   6.046   5.033   4.897
  429TIP3   OH2 1292   1.647   1.414   4.798
  429TIP3    H1 1293   1.588   1.338   4.803
  429TIP3    H2 1294   1.722   1.383   4.748
  430TIP3   OH2 1295   6.168   0.824   2.438
  430TIP3    H1 1296   6.116   0.745   2.421
  430TIP3    H2 1297   6.257   0.792   2.451
  431TIP3   OH2 1298   2.263   4.474   4.654
  431TIP3    H1 1299   2.312   4.556   4.664
  431TIP3    H2 1300   2.187   4.485   4.711
  432TIP3   OH2 1301   5.301   5.433   2.026
  432TIP3    H1 1302   5.269   5.393   2.106
  432TIP3    H2 1303   5.280   5.370   1.957
  433TIP3   OH2 1304   4.717   5.833   3.277
  433TIP3    H1 1305   4.630   5.870   3.269
  433TIP3    H2 1306   4.736   5.796   3.191
  434TIP3   OH2 1307   3.663   0.744   4.913
  434TIP3    H1 1308   3.682   0.696   4.994
  434TIP3    H2 1309   3.661   0.678   4.845
  435TIP3   OH2 1310   3.317   0.537   4.276
  435TIP3    H1 1311   3.392   0.574   4.322
  435TIP3    H2 1312   3.346   0.451   4.246
  436TIP3   OH2 1313   4.501   3.105   2.211
  436TIP3    H1 1314   4.486   3.019   2.173
  436TIP3    H2 1315   4.458   3.166   2.150
  437TIP3   OH2 1316   0.916   4.944   0.603
  437TIP3    H1 1317   0.978   5.014   0.583
  437TIP3    H2 1318   0.834   4.989   0.624
  438TIP3   OH2 1319   3.584   5.701   4.260
  438TIP3    H1 1320   3.518   5.632   4.253
  438TIP3    H2 1321   3.562   5.748   4.340
  439TIP3   OH2 1322   5.389   3.893   1.138
  439TIP3    H1 1323   5.461   3.831   1.133
  439TIP3    H2 1324   5.312   3.843   1.113
  440TIP3   OH2 1325   3.286   5.184   0.154
  440TIP3    H1 1326   3.333   5.233   0.223
  440TIP3    H2 1327   3.351   5.122   0.121
  441TIP3   OH2 1328   5.754   2.445   3.446
  441TIP3    H1 1329   5.736   2.352   3.455
  441TIP3    H2 1330   5.849   2.452   3.439
  442TIP3   OH2 1331   4.703   3.923   4.740
  442TIP3    H1 1332   4.688   3.861   4.811
  442TIP3    H2 1333   4.666   3.882   4.662
  443TIP3   OH2 1334   1.114   3.233   0.832
  443TIP3    H1 1335   1.147   3.228   0.743
  443TIP3    H2 1336   1.022   3.207   0.826
  444TIP3   OH2 1337   2.703   1.753   2.985
  444TIP3    H1 1338   2.760   1.776   2.911
  444TIP3    H2 1339   2.758   1.699   3.042
  445TIP3   OH2 1340   6.121   0.129   3.409
  445TIP3    H1 1341   6.112   0.050   3.463
  445TIP3    H2 1342   6.199   0.173   3.443
  446TIP3   OH2 1343   2.742   3.441   2.753
  446TIP3    H1 1344   2.822   3.493   2.750
  446TIP3    H2 1345   2.719   3.437   2.846
  447TIP3   OH2 1346   1.717   0.251   3.496
  447TIP3    H1 1347   1.685   0.212   3.577
  447TIP3    H2 1348   1.647   0.235   3.433
  448TIP3   OH2 1349   4.704   2.771   2.186
  448TIP3    H1 1350   4.767   2.757   2.257
  448TIP3    H2 1351   4.754   2.818   2.119
  449TIP3   OH2 1352   2.989   1.835   0.836
  449TIP3    H1 1353   3.005   1.741   0.850
  449TIP3    H2 1354   2.966   1.869   0.922
  450TIP3   OH2 1355   3.519   0.578   1.075
  450TIP3    H1 1356   3.477   0.516   1.133
  450TIP3    H2 1357   3.585   0.622   1.129
  451TIP3   OH2 1358   1.726   1.696   3.473
  451TIP3    H1 1359   1.632   1.696   3.491
  451TIP3    H2 1360   1.740   1.771   3.417
  452TIP3   OH2 1361   3.104   1.639   2.063
  452TIP3    H1 1362   3.189   1.598   2.047
  452TIP3    H2 1363   3.122   1.732   2.069
  453TIP3   OH2 1364   0.411   4.211   0.017
  453TIP3    H1 1365   0.343   4.278   0.008
  453TIP3    H2 1366   0.363   4.131   0.042
  454TIP3   OH2 1367   1.638   2.748   2.133
  454TIP3    H1 1368   1.655   2.654   2.126
  454TIP3    H2 1369   1.615   2.761   2.225
  455TIP3   OH2 1370   4.066   2.298   4.684
  455TIP3    H1 1371   3.972   2.289   4.666
  455TIP3    H2 1372   4.092   2.212   4.717
  456TIP3   OH2 1373   3.980   2.853   5.181
  456TIP3    H1 1374   3.923   2.846   5.105
  456TIP3    H2 1375   4.011   2.764   5.196
  457TIP3   OH2 1376   0.283   0.496   1.294
  457TIP3    H1 1377   0.316   0.484   1.206
  457TIP3    H2 1378   0.201   0.544   1.283
  458TIP3   OH2 1379   2.936   3.671   0.910
  458TIP3    H1 1380   2.841   3.679   0.923
  458TIP3    H2 1381   2.970   3.759   0.927
  459TIP3   OH2 1382   3.323   5.273   0.805
  459TIP3    H1 1383   3.349   5.224   0.726
  459TIP3    H2 1384   3.230   5.256   0.814
  460TIP3   OH2 1385   0.639   5.415   2.528
  460TIP3    H1 1386   0.705   5.362   2.482
  460TIP3    H2 1387   0.593   5.352   2.583
  461TIP3   OH2 1388   4.399   2.250   4.479
  461TIP3    H1 1389   4.363   2.163   4.498
  461TIP3    H2 1390   4.381   2.301   4.558
  462TIP3   OH2 1391   3.327   3.017   2.840
  462TIP3    H1 1392   3.260   3.060   2.787
  462TIP3    H2 1393   3.389   2.983   2.776
  463TIP3   OH2 1394   3.022   4.219   4.809
  463TIP3    H1 1395   2.938   4.183   4.838
  463TIP3    H2 1396   3.041   4.289   4.871
  464TIP3   OH2 1397   5.817   5.152   3.313
  464TIP3    H1 1398   5.795   5.243   3.333
  464TIP3    H2 1399   5.760   5.100   3.369
  465TIP3   OH2 1400   6.300   4.318   4.181
  465TIP3    H1 1401   6.287   4.295   4.089
  465TIP3    H2 1402   6.395   4.323   4.191
  466TIP3   OH2 1403   4.660   3.328   3.050
  466TIP3    H1 1404   4.594   3.282   2.998
  466TIP3    H2 1405   4.715   3.258   3.086
  467TIP3   OH2 1406   4.354   3.678   4.135
  467TIP3    H1 1407   4.335   3.595   4.180
  467TIP3    H2 1408   4.375   3.739   4.205
  468TIP3   OH2 1409   0.214   4.289   3.082
  468TIP3    H1 1410   0.128   4.325   3.101
  468TIP3    H2 1411   0.275   4.340   3.136
  469TIP3   OH2 1412   2.792   5.562   2.512
  469TIP3    H1 1413   2.784   5.508   2.434
  469TIP3    H2 1414   2.709   5.610   2.517
  470TIP3   OH2 1415   2.961   1.811   0.058
  470TIP3    H1 1416   2.992   1.785   0.145
  470TIP3    H2 1417   2.911   1.891   0.074
  471TIP3   OH2 1418   4.928   0.508   4.569
  471TIP3    H1 1419   4.857   0.546   4.621
  471TIP3    H2 1420   4.974   0.584   4.533
  472TIP3   OH2 1421   0.357   4.776   0.262
  472TIP3    H1 1422   0.413   4.698   0.255
  472TIP3    H2 1423   0.391   4.823   0.338
  473TIP3   OH2 1424   0.141   1.142   1.059
  473TIP3    H1 1425   0.176   1.071   1.006
  473TIP3    H2 1426   0.170   1.123   1.148
  474TIP3   OH2 1427   5.222   2.934   0.026
  474TIP3    H1 1428   5.237   2.847  -0.012
  474TIP3    H2 1429   5.303   2.954   0.074
  475TIP3   OH2 1430   1.408   5.336   2.693
  475TIP3    H1 1431   1.370   5.248   2.692
  475TIP3    H2 1432   1.500   5.322   2.672
  476TIP3   OH2 1433   3.861   2.270   3.768
  476TIP3    H1 1434   3.935   2.298   3.822
  476TIP3    H2 1435   3.861   2.174   3.775
  477TIP3   OH2 1436   2.098   0.585   2.537
  477TIP3    H1 1437   2.117   0.568   2.445
  477TIP3    H2 1438   2.036   0.659   2.535
  478TIP3   OH2 1439   2.782   2.902   0.338
  478TIP3    H1 1440   2.769   2.808   0.350
  478TIP3    H2 1441   2.860   2.922   0.390
  479TIP3   OH2 1442   4.079   3.723   4.084
  479TIP3    H1 1443   4.167   3.706   4.116
  479TIP3    H2 1444   4.087   3.802   4.031
  480TIP3   OH2 1445   5.074   3.523   2.641
  480TIP3    H1 1446   5.145   3.475   2.598
  480TIP3    H2 1447   5.119   3.591   2.691
  481TIP3   OH2 1448   3.062   3.799   1.433
  481TIP3    H1 1449   3.014   3.732   1.384
  481TIP3    H2 1450   3.150   3.763   1.444
  482TIP3   OH2 1451   4.980   3.995   5.170
  482TIP3    H1 1452   5.065   4.017   5.133
  482TIP3    H2 1453   4.932   3.954   5.098
  483TIP3   OH2 1454   3.969   4.090   2.101
  483TIP3    H1 1455   3.920   4.161   2.142
  483TIP3    H2 1456   3.990   4.121   2.013
  484TIP3   OH2 1457   3.218   2.479   1.639
  484TIP3    H1 1458   3.222   2.519   1.726
  484TIP3    H2 1459   3.309   2.474   1.610
  485TIP3   OH2 1460   2.406   1.562   3.219
  485TIP3    H1 1461   2.316   1.571   3.252
  485TIP3    H2 1462   2.404   1.602   3.132
  486TIP3   OH2 1463   0.858   3.809   0.252
  486TIP3    H1 1464   0.946   3.808   0.213
  486TIP3    H2 1465   0.818   3.889   0.219
  487TIP3   OH2 1466   0.119   1.425   3.627
  487TIP3    H1 1467   0.121   1.419   3.531
  487TIP3    H2 1468   0.162   1.345   3.656
  488TIP3   OH2 1469   3.825   4.147   4.754
  488TIP3    H1 1470   3.878   4.084   4.803
  488TIP3    H2 1471   3.873   4.162   4.674
  489TIP3   OH2 1472   1.643   2.596   1.704
  489TIP3    H1 1473   1.706   2.627   1.769
  489TIP3    H2 1474   1.615   2.510   1.737
  490TIP3   OH2 1475   4.894   4.930   2.866
  490TIP3    H1 1476   4.818   4.951   2.920
  490TIP3    H2 1477   4.867   4.951   2.777
  491TIP3   OH2 1478   4.066   1.724   0.085
  491TIP3    H1 1479   4.063   1.691   0.174
  491TIP3    H2 1480   4.136   1.673   0.043
  492TIP3   OH2 1481   3.547   1.896   4.954
  492TIP3    H1 1482   3.514   1.909   4.865
  492TIP3    H2 1483   3.541   1.983   4.994
  493TIP3   OH2 1484   4.540   4.967   2.594
  493TIP3    H1 1485   4.502   5.054   2.605
  493TIP3    H2 1486   4.631   4.983   2.571
  494TIP3   OH2 1487   5.982   2.802   0.119
  494TIP3    H1 1488   5.904   2.828   0.169
  494TIP3    H2 1489   6.053   2.853   0.157
  495TIP3   OH2 1490   6.172   5.680   1.238
  495TIP3    H1 1491   6.139   5.594   1.264
  495TIP3    H2 1492   6.117   5.742   1.285
  496TIP3   OH2 1493   3.833   4.364   4.912
  496TIP3    H1 1494   3.890   4.310   4.967
  496TIP3    H2 1495   3.817   4.310   4.834
  497TIP3   OH2 1496   4.605   4.020   2.391
  497TIP3    H1 1497   4.632   4.010   2.482
  497TIP3    H2 1498   4.552   3.943   2.373
  498TIP3   OH2 1499   6.235   2.275   4.029
  498TIP3    H1 1500   6.242   2.184   4.000
  498TIP3    H2 1501   6.208   2.323   3.950
  499TIP3   OH2 1502   2.477   2.672   2.670
  499TIP3    H1 1503   2.463   2.578   2.657
  499TIP3    H2 1504   2.546   2.678   2.736
  500TIP3   OH2 1505   1.045   5.067   3.910
  500TIP3    H1 1506   1.068   5.032   3.824
  500TIP3    H2 1507   1.097   5.147   3.918
  501TIP3   OH2 1508   2.531   4.453   4.480
  501TIP3    H1 1509   2.487   4.368   4.470
  501TIP3    H2 1510   2.595   4.440   4.550
  502TIP3   OH2 1511   3.860   4.865   4.414
  502TIP3    H1 1512   3.778   4.911   4.431
  502TIP3    H2 1513   3.844   4.817   4.333
  503TIP3   OH2 1514   0.090   5.769   1.652
  503TIP3    H1 1515   0.129   5.682   1.661
  503TIP3    H2 1516   0.030   5.761   1.578
  504TIP3   OH2 1517   3.603   1.625   4.752
  504TIP3    H1 1518   3.655   1.604   4.675
  504TIP3    H2 1519   3.657   1.685   4.803
  505TIP3   OH2 1520   0.779   4.751   3.280
  505TIP3    H1 1521   0.775   4.841   3.248
  505TIP3    H2 1522   0.861   4.746   3.329
  506TIP3   OH2 1523   0.604   2.477   5.168
  506TIP3    H1 1524   0.661   2.406   5.138
  506TIP3    H2 1525   0.604   2.469   5.263
  507TIP3   OH2 1526   3.870   1.666   4.035
  507TIP3    H1 1527   3.950   1.709   4.065
  507TIP3    H2 1528   3.869   1.680   3.940
  508TIP3   OH2 1529   0.363   2.649   4.730
  508TIP3    H1 1530   0.428   2.671   4.797
  508TIP3    H2 1531   0.322   2.732   4.708
  509TIP3   OH2 1532   4.505   5.126   0.993
  509TIP3    H1 1533   4.533   5.077   1.070
  509TIP3    H2 1534   4.485   5.213   1.025
  510TIP3   OH2 1535   3.987   5.040   1.310
  510TIP3    H1 1536   4.043   5.116   1.326
  510TIP3    H2 1537   4.046   4.965   1.323
  511TIP3   OH2 1538   4.335   2.231   0.258
  511TIP3    H1 1539   4.284   2.150   0.266
  511TIP3    H2 1540   4.271   2.297   0.232
  512TIP3   OH2 1541   5.657   4.436   0.423
  512TIP3    H1 1542   5.744   4.475   0.424
  512TIP3    H2 1543   5.633   4.432   0.330
  513TIP3   OH2 1544   1.177   3.908   0.604
  513TIP3    H1 1545   1.221   3.825   0.585
  513TIP3    H2 1546   1.232   3.974   0.563
  514TIP3   OH2 1547   3.523   4.308   3.733
  514TIP3    H1 1548   3.500   4.280   3.644
  514TIP3    H2 1549   3.559   4.229   3.774
  515TIP3   OH2 1550   1.155   3.719   1.870
  515TIP3    H1 1551   1.115   3.642   1.830
  515TIP3    H2 1552   1.087   3.753   1.929
  516TIP3   OH2 1553   0.646   5.008   1.093
  516TIP3    H1 1554   0.696   5.089   1.088
  516TIP3    H2 1555   0.711   4.939   1.081
  517TIP3   OH2 1556   0.964   4.017   3.756
  517TIP3    H1 1557   1.005   4.008   3.670
  517TIP3    H2 1558   0.878   3.977   3.746
  518TIP3   OH2 1559   5.006   4.114   4.488
  518TIP3    H1 1560   4.994   4.090   4.579
  518TIP3    H2 1561   4.963   4.199   4.480
  519TIP3   OH2 1562   1.681   4.399   2.160
  519TIP3    H1 1563   1.692   4.312   2.198
  519TIP3    H2 1564   1.769   4.426   2.135
  520TIP3   OH2 1565   5.218   5.189   3.685
  520TIP3    H1 1566   5.300   5.192   3.733
  520TIP3    H2 1567   5.239   5.141   3.605
  521TIP3   OH2 1568   2.707   5.344   2.932
  521TIP3    H1 1569   2.774   5.412   2.919
  521TIP3    H2 1570   2.756   5.269   2.967
  522TIP3   OH2 1571   0.970   4.390   0.738
  522TIP3    H1 1572   0.876   4.378   0.742
  522TIP3    H2 1573   1.006   4.312   0.782
  523TIP3   OH2 1574   5.549   2.096   0.253
  523TIP3    H1 1575   5.645   2.098   0.249
  523TIP3    H2 1576   5.527   2.148   0.330
  524TIP3   OH2 1577   5.755   3.882   0.032
  524TIP3    H1 1578   5.796   3.961  -0.004
  524TIP3    H2 1579   5.817   3.812   0.011
  525TIP3   OH2 1580   5.129   4.415   2.670
  525TIP3    H1 1581   5.051   4.459   2.703
  525TIP3    H2 1582   5.133   4.333   2.720
  526TIP3   OH2 1583   3.539   0.372   4.895
  526TIP3    H1 1584   3.589   0.433   4.840
  526TIP3    H2 1585   3.471   0.425   4.934
  527TIP3   OH2 1586   3.593   0.821   1.497
  527TIP3    H1 1587   3.498   0.825   1.505
  527TIP3    H2 1588   3.618   0.907   1.464
  528TIP3   OH2 1589   0.606   1.673   0.901
  528TIP3    H1 1590   0.695   1.646   0.923
  528TIP3    H2 1591   0.557   1.591   0.893
  529TIP3   OH2 1592   3.414   1.238   0.667
  529TIP3    H1 1593   3.348   1.304   0.645
  529TIP3    H2 1594   3.404   1.171   0.600
  530TIP3   OH2 1595   1.683   1.268   1.173
  530TIP3    H1 1596   1.607   1.300   1.223
  530TIP3    H2 1597   1.710   1.343   1.121
  531TIP3   OH2 1598   2.103   2.750   5.114
  531TIP3    H1 1599   2.034   2.724   5.052
  531TIP3    H2 1600   2.167   2.679   5.108
  532TIP3   OH2 1601   6.207   4.371   0.256
  532TIP3    H1 1602   6.290   4.327   0.275
  532TIP3    H2 1603   6.188   4.347   0.166
  533TIP3   OH2 1604   4.803   1.739   3.953
  533TIP3    H1 1605   4.843   1.825   3.942
  533TIP3    H2 1606   4.737   1.752   4.021
  534TIP3   OH2 1607   5.996   1.439   1.215
  534TIP3    H1 1608   6.054   1.476   1.148
  534TIP3    H2 1609   5.908   1.449   1.179
  535TIP3   OH2 1610   0.016   5.341   0.928
  535TIP3    H1 1611   0.075   5.344   1.004
  535TIP3    H2 1612  -0.065   5.381   0.960
  536TIP3   OH2 1613   2.709   4.432   2.802
  536TIP3    H1 1614   2.632   4.423   2.747
  536TIP3    H2 1615   2.688   4.383   2.882
  537TIP3   OH2 1616   3.711   5.103   1.301
  537TIP3    H1 1617   3.805   5.084   1.296
  537TIP3    H2 1618   3.673   5.023   1.337
  538TIP3   OH2 1619   1.222   1.224   2.215
  538TIP3    H1 1620   1.149   1.229   2.154
  538TIP3    H2 1621   1.291   1.275   2.174
  539TIP3   OH2 1622   0.078   1.973   3.207
  539TIP3    H1 1623   0.140   1.902   3.220
  539TIP3    H2 1624   0.087   2.027   3.286
  540TIP3   OH2 1625   0.642   1.751   2.055
  540TIP3    H1 1626   0.552   1.743   2.089
  540TIP3    H2 1627   0.696   1.765   2.133
  541TIP3   OH2 1628   2.898   3.367   0.465
  541TIP3    H1 1629   2.864   3.331   0.383
  541TIP3    H2 1630   2.960   3.435   0.438
  542TIP3   OH2 1631   3.859   0.911   4.407
  542TIP3    H1 1632   3.845   0.820   4.380
  542TIP3    H2 1633   3.771   0.949   4.407
  543TIP3   OH2 1634   5.265   0.211   0.046
  543TIP3    H1 1635   5.220   0.281  -0.002
  543TIP3    H2 1636   5.294   0.252   0.127
  544TIP3   OH2 1637   0.378   2.447   2.044
  544TIP3    H1 1638   0.459   2.440   2.095
  544TIP3    H2 1639   0.312   2.477   2.107
  545TIP3   OH2 1640   4.833   3.784   4.040
  545TIP3    H1 1641   4.767   3.854   4.039
  545TIP3    H2 1642   4.817   3.738   4.122
  546TIP3   OH2 1643   1.675   4.872   3.596
  546TIP3    H1 1644   1.653   4.818   3.672
  546TIP3    H2 1645   1.659   4.962   3.624
  547TIP3   OH2 1646   4.428   1.239   4.666
  547TIP3    H1 1647   4.352   1.232   4.608
  547TIP3    H2 1648   4.395   1.283   4.744
  548TIP3   OH2 1649   5.158   5.056   4.210
  548TIP3    H1 1650   5.117   5.056   4.296
  548TIP3    H2 1651   5.108   4.992   4.159
  549TIP3   OH2 1652   4.132   3.381   5.189
  549TIP3    H1 1653   4.061   3.323   5.218
  549TIP3    H2 1654   4.172   3.335   5.115
  550TIP3   OH2 1655   5.792   2.012   1.717
  550TIP3    H1 1656   5.831   1.987   1.633
  550TIP3    H2 1657   5.748   1.933   1.747
  551TIP3   OH2 1658   2.982   0.504   3.428
  551TIP3    H1 1659   2.928   0.558   3.486
  551TIP3    H2 1660   2.919   0.458   3.372
  552TIP3   OH2 1661   0.647   0.177   1.880
  552TIP3    H1 1662   0.682   0.265   1.892
  552TIP3    H2 1663   0.621   0.174   1.788
  553TIP3   OH2 1664   3.085   3.421   5.138
  553TIP3    H1 1665   3.113   3.407   5.048
  553TIP3    H2 1666   3.165   3.444   5.185
  554TIP3   OH2 1667   6.051   1.880   3.477
  554TIP3    H1 1668   6.008   1.860   3.560
  554TIP3    H2 1669   6.128   1.823   3.476
  555TIP3   OH2 1670   1.378   3.376   1.384
  555TIP3    H1 1671   1.312   3.311   1.359
  555TIP3    H2 1672   1.395   3.358   1.477
  556TIP3   OH2 1673   5.266   2.857   4.719
  556TIP3    H1 1674   5.354   2.831   4.692
  556TIP3    H2 1675   5.216   2.860   4.637
  557TIP3   OH2 1676   1.035   4.021   3.488
  557TIP3    H1 1677   0.956   4.051   3.444
  557TIP3    H2 1678   1.073   3.957   3.428
  558TIP3   OH2 1679   2.326   2.845   4.691
  558TIP3    H1 1680   2.289   2.904   4.757
  558TIP3    H2 1681   2.251   2.793   4.661
  559TIP3   OH2 1682   2.304   4.495   3.843
  559TIP3    H1 1683   2.369   4.544   3.892
  559TIP3    H2 1684   2.300   4.410   3.886
  560TIP3   OH2 1685   5.733   2.490   4.744
  560TIP3    H1 1686   5.782   2.534   4.675
  560TIP3    H2 1687   5.751   2.397   4.731
  561TIP3   OH2 1688   3.831   4.653   2.969
  561TIP3    H1 1689   3.755   4.607   3.003
  561TIP3    H2 1690   3.891   4.658   3.044
  562TIP3   OH2 1691   5.136   1.287   2.094
  562TIP3    H1 1692   5.204   1.274   2.161
  562TIP3    H2 1693   5.184   1.282   2.011
  563TIP3   OH2 1694   2.008   3.286   4.566
  563TIP3    H1 1695   2.074   3.242   4.512
  563TIP3    H2 1696   1.925   3.267   4.522
  564TIP3   OH2 1697   3.860   4.415   0.901
  564TIP3    H1 1698   3.807   4.493   0.883
  564TIP3    H2 1699   3.806   4.363   0.960
  565TIP3   OH2 1700   6.004   1.816   2.987
  565TIP3    H1 1701   6.012   1.802   2.892
  565TIP3    H2 1702   5.919   1.859   2.997
  566TIP3   OH2 1703   6.317   3.188   1.556
  566TIP3    H1 1704   6.266   3.119   1.514
  566TIP3    H2 1705   6.309   3.263   1.497
  567TIP3   OH2 1706   1.501   0.761   1.323
  567TIP3    H1 1707   1.418   0.801   1.297
  567TIP3    H2 1708   1.568   0.821   1.290
  568TIP3   OH2 1709   0.443   1.059   2.138
  568TIP3    H1 1710   0.435   1.067   2.233
  568TIP3    H2 1711   0.353   1.058   2.106
  569TIP3   OH2 1712   3.106   0.249   3.456
  569TIP3    H1 1713   3.065   0.330   3.486
  569TIP3    H2 1714   3.198   0.258   3.480
  570TIP3   OH2 1715   5.179   0.848   3.784
  570TIP3    H1 1716   5.096   0.817   3.820
  570TIP3    H2 1717   5.173   0.829   3.690
  571TIP3   OH2 1718   3.399   4.721   5.052
  571TIP3    H1 1719   3.438   4.641   5.085
  571TIP3    H2 1720   3.413   4.785   5.122
  572TIP3   OH2 1721   5.537   3.207   0.584
  572TIP3    H1 1722   5.512   3.261   0.509
  572TIP3    H2 1723   5.462   3.149   0.598
  573TIP3   OH2 1724   6.142   5.492   4.866
  573TIP3    H1 1725   6.206   5.541   4.918
  573TIP3    H2 1726   6.195   5.429   4.817
  574TIP3   OH2 1727   0.658   1.514   4.712
  574TIP3    H1 1728   0.594   1.475   4.653
  574TIP3    H2 1729   0.737   1.462   4.698
  575TIP3   OH2 1730   1.977   0.960   2.685
  575TIP3    H1 1731   2.035   1.035   2.694
  575TIP3    H2 1732   1.941   0.946   2.772
  576TIP3   OH2 1733   6.078   4.998   0.707
  576TIP3    H1 1734   6.103   4.933   0.773
  576TIP3    H2 1735   6.040   5.070   0.758
  577TIP3   OH2 1736   5.510   2.707   0.806
  577TIP3    H1 1737   5.576   2.752   0.860
  577TIP3    H2 1738   5.526   2.739   0.718
  578TIP3   OH2 1739   1.942   4.482   2.095
  578TIP3    H1 1740   2.003   4.451   2.028
  578TIP3    H2 1741   1.998   4.528   2.158
  579TIP3   OH2 1742   5.099   4.566   5.089
  579TIP3    H1 1743   5.107   4.655   5.124
  579TIP3    H2 1744   5.137   4.571   5.002
  580TIP3   OH2 1745   5.506   3.433   3.808
  580TIP3    H1 1746   5.411   3.443   3.813
  580TIP3    H2 1747   5.536   3.453   3.897
  581TIP3   OH2 1748   5.005   1.867   5.122
  581TIP3    H1 1749   4.998   1.941   5.182
  581TIP3    H2 1750   4.972   1.792   5.173
  582TIP3   OH2 1751   5.355   4.444   4.498
  582TIP3    H1 1752   5.285   4.478   4.442
  582TIP3    H2 1753   5.316   4.443   4.586
  583TIP3   OH2 1754   1.065   5.450   0.026
  583TIP3    H1 1755   1.098   5.486  -0.056
  583TIP3    H2 1756   1.063   5.525   0.086
  584TIP3   OH2 1757   2.319   1.172   0.167
  584TIP3    H1 1758   2.370   1.181   0.087
  584TIP3    H2 1759   2.264   1.250   0.169
  585TIP3   OH2 1760   5.885   4.513   4.378
  585TIP3    H1 1761   5.854   4.424   4.394
  585TIP3    H2 1762   5.834   4.567   4.439
  586TIP3   OH2 1763   5.231   3.997   4.384
  586TIP3    H1 1764   5.148   4.043   4.399
  586TIP3    H2 1765   5.263   4.031   4.301
  587TIP3   OH2 1766   0.900   0.717   1.602
  587TIP3    H1 1767   0.856   0.793   1.639
  587TIP3    H2 1768   0.947   0.751   1.526
  588TIP3   OH2 1769   5.464   2.442   1.295
  588TIP3    H1 1770   5.456   2.518   1.238
  588TIP3    H2 1771   5.448   2.476   1.383
  589TIP3   OH2 1772   4.909   0.930   2.788
  589TIP3    H1 1773   4.898   0.847   2.834
  589TIP3    H2 1774   4.996   0.923   2.747
  590TIP3   OH2 1775   4.435   4.237   3.835
  590TIP3    H1 1776   4.416   4.143   3.833
  590TIP3    H2 1777   4.477   4.252   3.920
  591TIP3   OH2 1778   2.967   1.029   1.231
  591TIP3    H1 1779   2.904   0.983   1.287
  591TIP3    H2 1780   2.953   1.122   1.251
  592TIP3   OH2 1781   5.498   0.088   4.432
  592TIP3    H1 1782   5.438   0.137   4.375
  592TIP3    H2 1783   5.579   0.138   4.429
  593TIP3   OH2 1784   0.352   5.506   4.508
  593TIP3    H1 1785   0.416   5.514   4.578
  593TIP3    H2 1786   0.282   5.452   4.544
  594TIP3   OH2 1787   3.404   5.480   1.373
  594TIP3    H1 1788   3.473   5.546   1.373
  594TIP3    H2 1789   3.450   5.397   1.363
  595TIP3   OH2 1790   3.980   4.085   4.521
  595TIP3    H1 1791   4.022   4.009   4.480
  595TIP3    H2 1792   3.934   4.128   4.449
  596TIP3   OH2 1793   0.281   2.547   1.802
  596TIP3    H1 1794   0.192   2.530   1.834
  596TIP3    H2 1795   0.337   2.534   1.878
  597TIP3   OH2 1796   1.686   4.220   4.325
  597TIP3    H1 1797   1.678   4.270   4.244
  597TIP3    H2 1798   1.755   4.264   4.374
  598TIP3   OH2 1799   4.360   4.385   2.272
  598TIP3    H1 1800   4.336   4.335   2.350
  598TIP3    H2 1801   4.438   4.340   2.238
  599TIP3   OH2 1802   3.781   0.556   3.642
  599TIP3    H1 1803   3.774   0.651   3.642
  599TIP3    H2 1804   3.763   0.530   3.552
  600TIP3   OH2 1805   5.578   3.404   2.047
  600TIP3    H1 1806   5.672   3.397   2.067
  600TIP3    H2 1807   5.543   3.317   2.065
  601TIP3   OH2 1808   5.580   0.854   3.340
  601TIP3    H1 1809   5.542   0.921   3.283
  601TIP3    H2 1810   5.673   0.874   3.341
  602TIP3   OH2 1811   0.445   1.395   0.535
  602TIP3    H1 1812   0.462   1.397   0.629
  602TIP3    H2 1813   0.486   1.476   0.502
  603TIP3   OH2 1814   3.606   2.298   4.339
  603TIP3    H1 1815   3.591   2.356   4.414
  603TIP3    H2 1816   3.566   2.344   4.265
  604TIP3   OH2 1817   4.882   2.933   3.220
  604TIP3    H1 1818   4.872   3.019   3.179
  604TIP3    H2 1819   4.968   2.902   3.193
  605TIP3   OH2 1820   0.818   2.306   4.054
  605TIP3    H1 1821   0.774   2.265   4.128
  605TIP3    H2 1822   0.766   2.385   4.037
  606TIP3   OH2 1823   1.697   3.884   3.166
  606TIP3    H1 1824   1.661   3.961   3.123
  606TIP3    H2 1825   1.666   3.890   3.256
  607TIP3   OH2 1826   2.820   5.360   4.566
  607TIP3    H1 1827   2.749   5.362   4.631
  607TIP3    H2 1828   2.842   5.452   4.552
  608TIP3   OH2 1829   4.135   2.955   2.068
  608TIP3    H1 1830   4.092   2.906   1.997
  608TIP3    H2 1831   4.228   2.944   2.051
  609TIP3   OH2 1832   3.940   0.738   3.388
  609TIP3    H1 1833   3.867   0.677   3.397
  609TIP3    H2 1834   3.905   0.822   3.419
  610TIP3   OH2 1835   6.289   4.080   2.344
  610TIP3    H1 1836   6.250   4.029   2.273
  610TIP3    H2 1837   6.290   4.170   2.311
  611TIP3   OH2 1838   5.372   1.057   1.361
  611TIP3    H1 1839   5.357   0.965   1.338
  611TIP3    H2 1840   5.467   1.068   1.352
  612TIP3   OH2 1841   3.956   2.229   0.404
  612TIP3    H1 1842   3.878   2.194   0.361
  612TIP3    H2 1843   4.021   2.159   0.395
  613TIP3   OH2 1844   5.524   0.550   1.951
  613TIP3    H1 1845   5.545   0.551   2.044
  613TIP3    H2 1846   5.430   0.565   1.947
  614TIP3   OH2 1847   2.882   4.807   2.420
  614TIP3    H1 1848   2.866   4.714   2.405
  614TIP3    H2 1849   2.800   4.850   2.396
  615TIP3   OH2 1850   3.298   4.703   2.453
  615TIP3    H1 1851   3.355   4.663   2.388
  615TIP3    H2 1852   3.351   4.774   2.490
  616TIP3   OH2 1853   3.389   5.552   1.958
  616TIP3    H1 1854   3.376   5.647   1.955
  616TIP3    H2 1855   3.461   5.535   1.897
  617TIP3   OH2 1856   2.241   1.176   3.376
  617TIP3    H1 1857   2.153   1.211   3.387
  617TIP3    H2 1858   2.247   1.106   3.443
  618TIP3   OH2 1859   2.928   0.072   2.769
  618TIP3    H1 1860   2.913   0.116   2.685
  618TIP3    H2 1861   2.848   0.022   2.785
  619TIP3   OH2 1862   5.391   4.560   3.094
  619TIP3    H1 1863   5.405   4.467   3.077
  619TIP3    H2 1864   5.467   4.587   3.146
  620TIP3   OH2 1865   5.588   0.697   2.830
  620TIP3    H1 1866   5.614   0.735   2.914
  620TIP3    H2 1867   5.669   0.694   2.779
  621TIP3   OH2 1868   5.922   3.349   1.077
  621TIP3    H1 1869   5.989   3.286   1.051
  621TIP3    H2 1870   5.928   3.352   1.173
  622TIP3   OH2 1871   3.396   5.734   0.713
  622TIP3    H1 1872   3.323   5.774   0.760
  622TIP3    H2 1873   3.467   5.799   0.719
  623TIP3   OH2 1874   4.267   2.118   4.810
  623TIP3    H1 1875   4.256   2.033   4.852
  623TIP3    H2 1876   4.361   2.126   4.796
  624TIP3   OH2 1877   2.963   5.154   4.492
  624TIP3    H1 1878   2.908   5.226   4.523
  624TIP3    H2 1879   2.983   5.103   4.571
  625TIP3   OH2 1880   2.078   3.198   2.471
  625TIP3    H1 1881   2.151   3.203   2.532
  625TIP3    H2 1882   2.053   3.105   2.471
  626TIP3   OH2 1883   0.946   1.625   3.796
  626TIP3    H1 1884   0.968   1.533   3.779
  626TIP3    H2 1885   0.868   1.622   3.850
  627TIP3   OH2 1886   3.916   2.294   3.333
  627TIP3    H1 1887   3.939   2.368   3.390
  627TIP3    H2 1888   3.889   2.225   3.393
  628TIP3   OH2 1889   4.952   2.856   5.060
  628TIP3    H1 1890   4.991   2.864   4.973
  628TIP3    H2 1891   4.925   2.945   5.083
  629TIP3   OH2 1892   3.986   1.127   4.697
  629TIP3    H1 1893   3.981   1.048   4.751
  629TIP3    H2 1894   3.897   1.139   4.664
  630TIP3   OH2 1895   5.636   2.037   3.615
  630TIP3    H1 1896   5.549   2.076   3.611
  630TIP3    H2 1897   5.650   2.000   3.528
  631TIP3   OH2 1898   6.195   1.015   4.540
  631TIP3    H1 1899   6.233   1.071   4.471
  631TIP3    H2 1900   6.164   0.938   4.493
  632TIP3   OH2 1901   3.608   4.835   3.575
  632TIP3    H1 1902   3.567   4.748   3.577
  632TIP3    H2 1903   3.546   4.889   3.526
  633TIP3   OH2 1904   5.156   2.760   1.049
  633TIP3    H1 1905   5.130   2.684   0.997
  633TIP3    H2 1906   5.224   2.727   1.107
  634TIP3   OH2 1907   3.392   3.001   1.024
  634TIP3    H1 1908   3.329   3.071   1.043
  634TIP3    H2 1909   3.358   2.925   1.070
  635TIP3   OH2 1910   4.469   3.276   1.436
  635TIP3    H1 1911   4.461   3.182   1.422
  635TIP3    H2 1912   4.434   3.315   1.356
  636TIP3   OH2 1913   3.179   1.762   1.162
  636TIP3    H1 1914   3.090   1.776   1.129
  636TIP3    H2 1915   3.202   1.675   1.131
  637TIP3   OH2 1916   0.833   3.289   4.648
  637TIP3    H1 1917   0.826   3.244   4.563
  637TIP3    H2 1918   0.848   3.219   4.711
  638TIP3   OH2 1919   5.041   4.377   4.785
  638TIP3    H1 1920   5.122   4.334   4.814
  638TIP3    H2 1921   5.027   4.344   4.696
  639TIP3   OH2 1922   3.988   2.927   1.240
  639TIP3    H1 1923   4.022   2.976   1.164
  639TIP3    H2 1924   3.981   2.993   1.309
  640TIP3   OH2 1925   3.065   5.584   5.064
  640TIP3    H1 1926   3.130   5.652   5.045
  640TIP3    H2 1927   2.997   5.595   4.998
  641TIP3   OH2 1928   0.422   3.291   0.173
  641TIP3    H1 1929   0.400   3.271   0.264
  641TIP3    H2 1930   0.390   3.216   0.123
  642TIP3   OH2 1931   4.265   0.986   4.954
  642TIP3    H1 1932   4.270   0.934   4.874
  642TIP3    H2 1933   4.291   0.926   5.023
  643TIP3   OH2 1934   6.185   1.252   1.158
  643TIP3    H1 1935   6.122   1.311   1.199
  643TIP3    H2 1936   6.149   1.164   1.172
  644TIP3   OH2 1937   1.652   4.019   0.242
  644TIP3    H1 1938   1.598   4.075   0.186
  644TIP3    H2 1939   1.683   4.077   0.312
  645TIP3   OH2 1940   3.818   3.280   0.404
  645TIP3    H1 1941   3.879   3.292   0.477
  645TIP3    H2 1942   3.791   3.189   0.410
  646TIP3   OH2 1943   5.576   4.058   2.396
  646TIP3    H1 1944   5.545   3.974   2.362
  646TIP3    H2 1945   5.540   4.123   2.336
  647TIP3   OH2 1946   2.571  -0.006   3.749
  647TIP3    H1 1947   2.614  -0.027   3.666
  647TIP3    H2 1948   2.479   0.006   3.727
  648TIP3   OH2 1949   0.039   4.645   0.143
  648TIP3    H1 1950  -0.008   4.592   0.207
  648TIP3    H2 1951  -0.025   4.663   0.074
  649TIP3   OH2 1952   1.571   3.094   2.814
  649TIP3    H1 1953   1.553   3.051   2.898
  649TIP3    H2 1954   1.642   3.156   2.834
  650TIP3   OH2 1955   0.047   2.226   1.706
  650TIP3    H1 1956   0.054   2.259   1.617
  650TIP3    H2 1957  -0.038   2.257   1.737
  651TIP3   OH2 1958   5.021   5.581   2.628
  651TIP3    H1 1959   5.029   5.675   2.640
  651TIP3    H2 1960   4.973   5.571   2.545
  652TIP3   OH2 1961   4.044   2.084   2.656
  652TIP3    H1 1962   3.962   2.133   2.664
  652TIP3    H2 1963   4.112   2.149   2.672
  653TIP3   OH2 1964   1.627   1.889   4.204
  653TIP3    H1 1965   1.679   1.956   4.158
  653TIP3    H2 1966   1.678   1.870   4.283
  654TIP3   OH2 1967   5.593   0.063   1.772
  654TIP3    H1 1968   5.563   0.150   1.744
  654TIP3    H2 1969   5.588   0.010   1.692
  655TIP3   OH2 1970   5.284   3.759   1.661
  655TIP3    H1 1971   5.374   3.786   1.677
  655TIP3    H2 1972   5.263   3.795   1.574
  656TIP3   OH2 1973   5.771   5.140   0.371
  656TIP3    H1 1974   5.805   5.078   0.436
  656TIP3    H2 1975   5.724   5.205   0.423
  657TIP3   OH2 1976   4.863   1.292   2.146
  657TIP3    H1 1977   4.816   1.225   2.196
  657TIP3    H2 1978   4.926   1.242   2.092
  658TIP3   OH2 1979   4.605   4.696   1.776
  658TIP3    H1 1980   4.619   4.706   1.682
  658TIP3    H2 1981   4.525   4.745   1.794
  659TIP3   OH2 1982   5.066   2.306   1.006
  659TIP3    H1 1983   5.140   2.250   0.983
  659TIP3    H2 1984   5.029   2.266   1.085
  660TIP3   OH2 1985   4.636   2.827   1.235
  660TIP3    H1 1986   4.724   2.790   1.231
  660TIP3    H2 1987   4.616   2.853   1.145
  661TIP3   OH2 1988   3.460   4.699   1.436
  661TIP3    H1 1989   3.439   4.694   1.343
  661TIP3    H2 1990   3.416   4.778   1.467
  662TIP3   OH2 1991   4.657   1.512   4.466
  662TIP3    H1 1992   4.666   1.437   4.406
  662TIP3    H2 1993   4.743   1.553   4.465
  663TIP3   OH2 1994   2.348   4.544   2.127
  663TIP3    H1 1995   2.422   4.604   2.136
  663TIP3    H2 1996   2.280   4.581   2.183
  664TIP3   OH2 1997   2.665   1.674   0.173
  664TIP3    H1 1998   2.742   1.698   0.122
  664TIP3    H2 1999   2.627   1.758   0.199
  665TIP3   OH2 2000   5.277   1.010   2.172
  665TIP3    H1 2001   5.343   0.940   2.166
  665TIP3    H2 2002   5.328   1.090   2.181
  666TIP3   OH2 2003   4.843   3.638   4.284
  666TIP3    H1 2004   4.844   3.546   4.310
  666TIP3    H2 2005   4.923   3.674   4.323
  667TIP3   OH2 2006   0.939   0.362   2.689
  667TIP3    H1 2007   1.013   0.347   2.629
  667TIP3    H2 2008   0.972   0.426   2.752
  668TIP3   OH2 2009   1.098   3.612   3.890
  668TIP3    H1 2010   1.102   3.646   3.800
  668TIP3    H2 2011   1.045   3.533   3.883
  669TIP3   OH2 2012   2.315   5.360   4.621
  669TIP3    H1 2013   2.377   5.296   4.586
  669TIP3    H2 2014   2.346   5.376   4.710
  670TIP3   OH2 2015   2.878   3.367   1.924
  670TIP3    H1 2016   2.968   3.344   1.901
  670TIP3    H2 2017   2.874   3.462   1.910
  671TIP3   OH2 2018   2.943   4.784   1.615
  671TIP3    H1 2019   2.965   4.710   1.558
  671TIP3    H2 2020   3.026   4.830   1.628
  672TIP3   OH2 2021   1.769   0.389   4.336
  672TIP3    H1 2022   1.752   0.428   4.251
  672TIP3    H2 2023   1.778   0.295   4.318
  673TIP3   OH2 2024   1.921   2.137   4.448
  673TIP3    H1 2025   1.958   2.065   4.397
  673TIP3    H2 2026   1.942   2.216   4.398
  674TIP3   OH2 2027   5.688   2.022   5.105
  674TIP3    H1 2028   5.749   1.961   5.064
  674TIP3    H2 2029   5.685   2.097   5.044
  675TIP3   OH2 2030   4.685   1.531   0.329
  675TIP3    H1 2031   4.672   1.512   0.422
  675TIP3    H2 2032   4.659   1.623   0.319
  676TIP3   OH2 2033   4.093   4.230   0.344
  676TIP3    H1 2034   4.189   4.229   0.347
  676TIP3    H2 2035   4.068   4.312   0.387
  677TIP3   OH2 2036   0.313   5.490   3.311
  677TIP3    H1 2037   0.297   5.405   3.269
  677TIP3    H2 2038   0.228   5.515   3.346
  678TIP3   OH2 2039   4.429   3.951   3.837
  678TIP3    H1 2040   4.407   3.859   3.843
  678TIP3    H2 2041   4.503   3.962   3.898
  679TIP3   OH2 2042   2.218   4.237   0.861
  679TIP3    H1 2043   2.189   4.220   0.950
  679TIP3    H2 2044   2.192   4.160   0.811
  680TIP3   OH2 2045   5.906   2.901   3.857
  680TIP3    H1 2046   5.823   2.944   3.834
  680TIP3    H2 2047   5.881   2.831   3.917
  681TIP3   OH2 2048   5.598   5.859   2.975
  681TIP3    H1 2049   5.532   5.896   2.916
  681TIP3    H2 2050   5.551   5.840   3.056
  682TIP3   OH2 2051   6.165   0.418   3.562
  682TIP3    H1 2052   6.092   0.399   3.622
  682TIP3    H2 2053   6.175   0.514   3.566
  683TIP3   OH2 2054   2.719   3.096   3.718
  683TIP3    H1 2055   2.762   3.074   3.635
  683TIP3    H2 2056   2.657   3.165   3.696
  684TIP3   OH2 2057   1.223   3.082   3.601
  684TIP3    H1 2058   1.140   3.034   3.600
  684TIP3    H2 2059   1.256   3.074   3.512
  685TIP3   OH2 2060   3.594   4.792   3.870
  685TIP3    H1 2061   3.586   4.883   3.844
  685TIP3    H2 2062   3.534   4.745   3.812
  686TIP3   OH2 2063   0.400   5.218   4.429
  686TIP3    H1 2064   0.471   5.191   4.487
  686TIP3    H2 2065   0.407   5.313   4.425
  687TIP3   OH2 2066   5.460   2.212   2.619
  687TIP3    H1 2067   5.523   2.143   2.637
  687TIP3    H2 2068   5.377   2.178   2.651
  688TIP3   OH2 2069   1.725   4.704   2.502
  688TIP3    H1 2070   1.701   4.709   2.409
  688TIP3    H2 2071   1.654   4.655   2.543
  689TIP3   OH2 2072   1.387   1.248   0.418
  689TIP3    H1 2073   1.317   1.208   0.367
  689TIP3    H2 2074   1.409   1.184   0.485
  690TIP3   OH2 2075   2.875   0.112   4.564
  690TIP3    H1 2076   2.965   0.080   4.556
  690TIP3    H2 2077   2.883   0.207   4.556
  691TIP3   OH2 2078   6.221   4.783   1.458
  691TIP3    H1 2079   6.281   4.820   1.393
  691TIP3    H2 2080   6.219   4.690   1.439
  692TIP3   OH2 2081   0.084   3.692   2.027
  692TIP3    H1 2082  -0.004   3.692   2.064
  692TIP3    H2 2083   0.124   3.772   2.062
  693TIP3   OH2 2084   3.610   3.269   2.774
  693TIP3    H1 2085   3.678   3.204   2.796
  693TIP3    H2 2086   3.605   3.325   2.851
  694TIP3   OH2 2087   1.150   0.806   2.812
  694TIP3    H1 2088   1.068   0.789   2.766
  694TIP3    H2 2089   1.125   0.866   2.882
  695TIP3   OH2 2090   2.728   0.797   0.696
  695TIP3    H1 2091   2.788   0.727   0.669
  695TIP3    H2 2092   2.645   0.751   0.712
  696TIP3   OH2 2093   0.301   1.560   3.774
  696TIP3    H1 2094   0.371   1.535   3.714
  696TIP3    H2 2095   0.224   1.513   3.741
  697TIP3   OH2 2096   6.075   2.819   2.305
  697TIP3    H1 2097   6.010   2.769   2.355
  697TIP3    H2 2098   6.144   2.756   2.285
  698TIP3   OH2 2099   6.307   4.386   3.127
  698TIP3    H1 2100   6.317   4.472   3.169
  698TIP3    H2 2101   6.282   4.327   3.198
  699TIP3   OH2 2102   1.757   4.740   4.941
  699TIP3    H1 2103   1.828   4.685   4.974
  699TIP3    H2 2104   1.705   4.682   4.885
  700TIP3   OH2 2105   0.226   2.101   2.057
  700TIP3    H1 2106   0.272   2.131   2.134
  700TIP3    H2 2107   0.144   2.151   2.056
  701TIP3   OH2 2108   3.686   0.598   0.323
  701TIP3    H1 2109   3.624   0.552   0.380
  701TIP3    H2 2110   3.712   0.532   0.258
  702TIP3   OH2 2111   2.201   2.293   4.111
  702TIP3    H1 2112   2.156   2.316   4.192
  702TIP3    H2 2113   2.292   2.280   4.137
  703TIP3   OH2 2114   3.862   3.895   1.343
  703TIP3    H1 2115   3.871   3.825   1.407
  703TIP3    H2 2116   3.826   3.852   1.265
  704TIP3   OH2 2117   1.594   0.239   2.343
  704TIP3    H1 2118   1.670   0.288   2.312
  704TIP3    H2 2119   1.520   0.276   2.295
  705TIP3   OH2 2120   4.456   4.888   2.851
  705TIP3    H1 2121   4.497   4.927   2.773
  705TIP3    H2 2122   4.488   4.798   2.853
  706TIP3   OH2 2123   2.829   4.950   3.189
  706TIP3    H1 2124   2.791   4.916   3.108
  706TIP3    H2 2125   2.787   4.900   3.259
  707TIP3   OH2 2126   3.722   2.733   2.608
  707TIP3    H1 2127   3.720   2.757   2.516
  707TIP3    H2 2128   3.749   2.812   2.654
  708TIP3   OH2 2129   3.043   1.470   1.655
  708TIP3    H1 2130   3.109   1.539   1.661
  708TIP3    H2 2131   2.968   1.506   1.702
  709TIP3   OH2 2132   2.976   2.527   0.907
  709TIP3    H1 2133   2.956   2.614   0.940
  709TIP3    H2 2134   3.003   2.478   0.985
  710TIP3   OH2 2135   3.719   5.395   4.973
  710TIP3    H1 2136   3.662   5.347   4.912
  710TIP3    H2 2137   3.661   5.461   5.011
  711TIP3   OH2 2138   5.346   1.113   2.495
  711TIP3    H1 2139   5.387   1.170   2.430
  711TIP3    H2 2140   5.385   1.027   2.479
  712TIP3   OH2 2141   0.912   0.419   0.676
  712TIP3    H1 2142   0.880   0.365   0.603
  712TIP3    H2 2143   0.832   0.449   0.721
  713TIP3   OH2 2144   1.713   0.844   4.866
  713TIP3    H1 2145   1.806   0.865   4.878
  713TIP3    H2 2146   1.679   0.834   4.954
  714TIP3   OH2 2147   3.973   5.344   5.011
  714TIP3    H1 2148   3.885   5.375   4.987
  714TIP3    H2 2149   3.970   5.332   5.105
  715TIP3   OH2 2150   4.983   3.621   1.767
  715TIP3    H1 2151   4.955   3.609   1.857
  715TIP3    H2 2152   4.902   3.621   1.716
  716TIP3   OH2 2153   0.009   2.786   1.300
  716TIP3    H1 2154   0.092   2.768   1.257
  716TIP3    H2 2155   0.005   2.881   1.306
  717TIP3   OH2 2156   6.064   2.113   0.529
  717TIP3    H1 2157   6.065   2.189   0.587
  717TIP3    H2 2158   5.971   2.091   0.521
  718TIP3   OH2 2159   4.423   4.690   3.559
  718TIP3    H1 2160   4.425   4.786   3.559
  718TIP3    H2 2161   4.510   4.665   3.525
  719TIP3   OH2 2162   3.379   3.052   3.935
  719TIP3    H1 2163   3.329   3.118   3.887
  719TIP3    H2 2164   3.385   2.978   3.874
  720TIP3   OH2 2165   0.184   2.094   3.452
  720TIP3    H1 2166   0.239   2.172   3.459
  720TIP3    H2 2167   0.244   2.021   3.471
  721TIP3   OH2 2168   0.259   0.448   4.597
  721TIP3    H1 2169   0.181   0.491   4.630
  721TIP3    H2 2170   0.323   0.518   4.587
  722TIP3   OH2 2171   5.266   2.956   2.889
  722TIP3    H1 2172   5.270   2.930   2.981
  722TIP3    H2 2173   5.324   2.896   2.844
  723TIP3   OH2 2174   6.259   5.838   3.068
  723TIP3    H1 2175   6.239   5.801   3.154
  723TIP3    H2 2176   6.173   5.856   3.029
  724TIP3   OH2 2177   3.876   4.019   4.147
  724TIP3    H1 2178   3.951   4.012   4.206
  724TIP3    H2 2179   3.911   4.065   4.070
  725TIP3   OH2 2180   2.719   3.623   0.547
  725TIP3    H1 2181   2.781   3.551   0.531
  725TIP3    H2 2182   2.643   3.580   0.587
  726TIP3   OH2 2183   1.812   3.737   0.284
  726TIP3    H1 2184   1.853   3.660   0.324
  726TIP3    H2 2185   1.880   3.804   0.286
  727TIP3   OH2 2186   4.567   1.120   1.991
  727TIP3    H1 2187   4.580   1.043   1.936
  727TIP3    H2 2188   4.607   1.098   2.075
  728TIP3   OH2 2189   3.901   5.594   3.905
  728TIP3    H1 2190   3.868   5.671   3.858
  728TIP3    H2 2191   3.848   5.590   3.985
  729TIP3   OH2 2192   3.293   2.861   3.218
  729TIP3    H1 2193   3.320   2.835   3.130
  729TIP3    H2 2194   3.223   2.925   3.204
  730TIP3   OH2 2195   4.571   3.341   0.584
  730TIP3    H1 2196   4.548   3.423   0.627
  730TIP3    H2 2197   4.486   3.301   0.562
  731TIP3   OH2 2198   6.051   2.136   1.233
  731TIP3    H1 2199   6.078   2.228   1.227
  731TIP3    H2 2200   5.962   2.135   1.198
  732TIP3   OH2 2201   3.284   1.090   4.063
  732TIP3    H1 2202   3.205   1.050   4.100
  732TIP3    H2 2203   3.262   1.183   4.056
  733TIP3   OH2 2204   3.465   2.489   5.138
  733TIP3    H1 2205   3.515   2.436   5.199
  733TIP3    H2 2206   3.481   2.450   5.052
  734TIP3   OH2 2207   4.206   5.763   0.803
  734TIP3    H1 2208   4.256   5.684   0.821
  734TIP3    H2 2209   4.118   5.733   0.783
  735TIP3   OH2 2210   5.165   5.631   1.139
  735TIP3    H1 2211   5.202   5.554   1.096
  735TIP3    H2 2212   5.073   5.608   1.156
  736TIP3   OH2 2213   4.145   1.445   4.234
  736TIP3    H1 2214   4.230   1.422   4.273
  736TIP3    H2 2215   4.086   1.375   4.263
  737TIP3   OH2 2216   4.558   5.830   4.738
  737TIP3    H1 2217   4.489   5.841   4.673
  737TIP3    H2 2218   4.637   5.812   4.687
  738TIP3   OH2 2219   1.595   1.594   3.962
  738TIP3    H1 2220   1.627   1.672   3.917
  738TIP3    H2 2221   1.533   1.627   4.027
  739TIP3   OH2 2222   2.179   4.725   4.400
  739TIP3    H1 2223   2.216   4.766   4.477
  739TIP3    H2 2224   2.112   4.786   4.370
  740TIP3   OH2 2225   2.373   4.938   3.945
  740TIP3    H1 2226   2.328   5.022   3.944
  740TIP3    H2 2227   2.309   4.876   3.980
  741TIP3   OH2 2228   2.137   3.514   4.098
  741TIP3    H1 2229   2.162   3.558   4.017
  741TIP3    H2 2230   2.163   3.423   4.085
  742TIP3   OH2 2231   5.868   3.054   0.991
  742TIP3    H1 2232   5.877   3.048   1.086
  742TIP3    H2 2233   5.954   3.085   0.961
  743TIP3   OH2 2234   5.415   1.208   0.635
  743TIP3    H1 2235   5.354   1.204   0.561
  743TIP3    H2 2236   5.467   1.287   0.618
  744TIP3   OH2 2237   2.849   5.831   4.217
  744TIP3    H1 2238   2.937   5.867   4.230
  744TIP3    H2 2239   2.816   5.817   4.305
  745TIP3   OH2 2240   0.417   3.789   1.304
  745TIP3    H1 2241   0.397   3.861   1.362
  745TIP3    H2 2242   0.455   3.830   1.226
  746TIP3   OH2 2243   2.647   4.285   5.100
  746TIP3    H1 2244   2.657   4.358   5.161
  746TIP3    H2 2245   2.612   4.325   5.021
  747TIP3   OH2 2246   2.810   5.190   1.888
  747TIP3    H1 2247   2.876   5.171   1.821
  747TIP3    H2 2248   2.812   5.285   1.898
  748TIP3   OH2 2249   2.959   2.390   0.431
  748TIP3    H1 2250   2.895   2.361   0.496
  748TIP3    H2 2251   3.012   2.312   0.414
  749TIP3   OH2 2252   1.788   1.982   2.893
  749TIP3    H1 2253   1.830   1.905   2.933
  749TIP3    H2 2254   1.730   2.015   2.961
  750TIP3   OH2 2255   5.726   0.437   3.554
  750TIP3    H1 2256   5.658   0.370   3.552
  750TIP3    H2 2257   5.703   0.496   3.481
  751TIP3   OH2 2258   3.256   4.025   2.943
  751TIP3    H1 2259   3.229   4.102   2.893
  751TIP3    H2 2260   3.181   3.965   2.935
  752TIP3   OH2 2261   4.428   4.514   0.308
  752TIP3    H1 2262   4.437   4.584   0.243
  752TIP3    H2 2263   4.384   4.555   0.382
  753TIP3   OH2 2264   4.399   5.460   2.468
  753TIP3    H1 2265   4.334   5.530   2.474
  753TIP3    H2 2266   4.482   5.502   2.492
  754TIP3   OH2 2267   4.181   0.089   3.797
  754TIP3    H1 2268   4.237   0.062   3.725
  754TIP3    H2 2269   4.207   0.034   3.871
  755TIP3   OH2 2270   4.295   0.703   2.528
  755TIP3    H1 2271   4.310   0.770   2.595
  755TIP3    H2 2272   4.226   0.740   2.473
  756TIP3   OH2 2273   1.588   4.886   2.760
  756TIP3    H1 2274   1.576   4.833   2.839
  756TIP3    H2 2275   1.651   4.953   2.785
  757TIP3   OH2 2276   1.179   3.636   1.573
  757TIP3    H1 2277   1.085   3.626   1.561
  757TIP3    H2 2278   1.188   3.721   1.617
  758TIP3   OH2 2279   4.747   0.101   1.677
  758TIP3    H1 2280   4.775   0.071   1.590
  758TIP3    H2 2281   4.771   0.030   1.736
  759TIP3   OH2 2282   2.822   2.564   4.030
  759TIP3    H1 2283   2.736   2.525   4.021
  759TIP3    H2 2284   2.870   2.535   3.952
  760TIP3   OH2 2285   4.959   5.863   1.973
  760TIP3    H1 2286   4.882   5.836   1.923
  760TIP3    H2 2287   4.971   5.955   1.950
  761TIP3   OH2 2288   3.952   1.763   4.856
  761TIP3    H1 2289   3.963   1.687   4.799
  761TIP3    H2 2290   3.886   1.735   4.920
  762TIP3   OH2 2291   1.120   2.766   0.182
  762TIP3    H1 2292   1.029   2.746   0.158
  762TIP3    H2 2293   1.112   2.832   0.252
  763TIP3   OH2 2294   1.152   2.430   0.902
  763TIP3    H1 2295   1.132   2.347   0.946
  763TIP3    H2 2296   1.183   2.487   0.972
  764TIP3   OH2 2297   0.111   2.873   1.830
  764TIP3    H1 2298   0.159   2.884   1.748
  764TIP3    H2 2299   0.039   2.814   1.808
  765TIP3   OH2 2300   5.811   0.657   2.650
  765TIP3    H1 2301   5.845   0.568   2.661
  765TIP3    H2 2302   5.888   0.713   2.663
  766TIP3   OH2 2303   1.063   1.410   4.404
  766TIP3    H1 2304   1.092   1.330   4.361
  766TIP3    H2 2305   1.122   1.478   4.370
  767TIP3   OH2 2306   3.047   1.950   2.961
  767TIP3    H1 2307   3.115   1.905   3.012
  767TIP3    H2 2308   3.091   2.026   2.924
  768TIP3   OH2 2309   5.226   5.796   2.393
  768TIP3    H1 2310   5.231   5.701   2.385
  768TIP3    H2 2311   5.185   5.825   2.311
  769TIP3   OH2 2312   3.981   5.828   1.857
  769TIP3    H1 2313   3.894   5.850   1.823
  769TIP3    H2 2314   4.020   5.912   1.880
  770TIP3   OH2 2315   0.186   1.916   2.310
  770TIP3    H1 2316   0.189   2.012   2.315
  770TIP3    H2 2317   0.233   1.894   2.230
  771TIP3   OH2 2318   1.231   0.568   1.353
  771TIP3    H1 2319   1.272   0.626   1.417
  771TIP3    H2 2320   1.302   0.545   1.293
  772TIP3   OH2 2321   2.726   3.029   2.746
  772TIP3    H1 2322   2.736   3.003   2.654
  772TIP3    H2 2323   2.790   2.976   2.793
  773TIP3   OH2 2324   6.037   5.175   3.603
  773TIP3    H1 2325   5.975   5.229   3.554
  773TIP3    H2 2326   5.984   5.104   3.639
  774TIP3   OH2 2327   4.456   3.214   2.716
  774TIP3    H1 2328   4.482   3.304   2.695
  774TIP3    H2 2329   4.493   3.162   2.645
  775TIP3   OH2 2330   3.945   4.020   2.452
  775TIP3    H1 2331   4.000   4.022   2.373
  775TIP3    H2 2332   3.855   4.027   2.418
  776TIP3   OH2 2333   1.209   0.916   2.035
  776TIP3    H1 2334   1.180   0.894   2.123
  776TIP3    H2 2335   1.295   0.875   2.027
  777TIP3   OH2 2336   4.776   5.815   1.795
  777TIP3    H1 2337   4.706   5.878   1.781
  777TIP3    H2 2338   4.843   5.840   1.731
  778TIP3   OH2 2339   4.264   5.325   3.253
  778TIP3    H1 2340   4.195   5.326   3.187
  778TIP3    H2 2341   4.301   5.413   3.249
  779TIP3   OH2 2342   0.905   2.861   4.328
  779TIP3    H1 2343   0.901   2.774   4.287
  779TIP3    H2 2344   0.939   2.918   4.259
  780TIP3   OH2 2345   5.641   1.467   2.300
  780TIP3    H1 2346   5.718   1.519   2.325
  780TIP3    H2 2347   5.644   1.390   2.357
  781TIP3   OH2 2348   1.298   4.387   3.173
  781TIP3    H1 2349   1.386   4.356   3.194
  781TIP3    H2 2350   1.276   4.343   3.091
  782TIP3   OH2 2351   3.873   1.335   1.847
  782TIP3    H1 2352   3.896   1.407   1.788
  782TIP3    H2 2353   3.938   1.267   1.827
  783TIP3   OH2 2354   3.555   3.795   3.032
  783TIP3    H1 2355   3.467   3.767   3.005
  783TIP3    H2 2356   3.612   3.725   3.002
  784TIP3   OH2 2357   2.052   3.533   3.118
  784TIP3    H1 2358   2.050   3.599   3.187
  784TIP3    H2 2359   2.053   3.583   3.037
  785TIP3   OH2 2360   1.246   0.414   4.813
  785TIP3    H1 2361   1.308   0.435   4.743
  785TIP3    H2 2362   1.278   0.463   4.889
  786TIP3   OH2 2363   0.390   5.863   0.885
  786TIP3    H1 2364   0.431   5.803   0.823
  786TIP3    H2 2365   0.344   5.927   0.831
  787TIP3   OH2 2366   3.922   5.876   0.450
  787TIP3    H1 2367   3.908   5.946   0.513
  787TIP3    H2 2368   3.841   5.825   0.452
  788TIP3   OH2 2369   0.390   1.220   0.339
  788TIP3    H1 2370   0.417   1.276   0.411
  788TIP3    H2 2371   0.383   1.132   0.378
  789TIP3   OH2 2372   1.123   0.508   2.441
  789TIP3    H1 2373   1.059   0.534   2.374
  789TIP3    H2 2374   1.146   0.418   2.418
  790TIP3   OH2 2375   2.870   3.940   2.072
  790TIP3    H1 2376   2.966   3.939   2.072
  790TIP3    H2 2377   2.846   3.904   1.987
  791TIP3   OH2 2378   0.762   3.802   4.770
  791TIP3    H1 2379   0.755   3.805   4.866
  791TIP3    H2 2380   0.687   3.854   4.739
  792TIP3   OH2 2381   6.071   1.398   4.911
  792TIP3    H1 2382   6.061   1.332   4.980
  792TIP3    H2 2383   6.064   1.349   4.830
  793TIP3   OH2 2384   1.339   2.603   1.809
  793TIP3    H1 2385   1.357   2.674   1.870
  793TIP3    H2 2386   1.261   2.630   1.761
  794TIP3   OH2 2387   4.814   4.399   2.194
  794TIP3    H1 2388   4.885   4.445   2.239
  794TIP3    H2 2389   4.754   4.374   2.264
  795TIP3   OH2 2390   2.823   2.058   0.003
  795TIP3    H1 2391   2.909   2.082  -0.032
  795TIP3    H2 2392   2.791   2.137   0.047
  796TIP3   OH2 2393   1.473   5.357   3.555
  796TIP3    H1 2394   1.446   5.396   3.472
  796TIP3    H2 2395   1.552   5.405   3.580
  797TIP3   OH2 2396   3.574   5.682   1.349
  797TIP3    H1 2397   3.626   5.730   1.285
  797TIP3    H2 2398   3.492   5.731   1.355
  798TIP3   OH2 2399   1.669   0.320   3.099
  798TIP3    H1 2400   1.585   0.308   3.143
  798TIP3    H2 2401   1.656   0.284   3.012
  799TIP3   OH2 2402   3.314   5.604   1.150
  799TIP3    H1 2403   3.338   5.693   1.176
  799TIP3    H2 2404   3.360   5.547   1.212
  800TIP3   OH2 2405   5.983   3.632   4.890
  800TIP3    H1 2406   5.957   3.669   4.806
  800TIP3    H2 2407   5.930   3.553   4.899
  801TIP3   OH2 2408   4.775   5.218   4.954
  801TIP3    H1 2409   4.853   5.235   5.007
  801TIP3    H2 2410   4.739   5.137   4.989
  802TIP3   OH2 2411   4.412   1.463   1.407
  802TIP3    H1 2412   4.502   1.437   1.386
  802TIP3    H2 2413   4.417   1.501   1.495
  803TIP3   OH2 2414   3.725   3.748   1.156
  803TIP3    H1 2415   3.647   3.707   1.195
  803TIP3    H2 2416   3.763   3.679   1.102
  804TIP3   OH2 2417   0.800   5.285   1.669
  804TIP3    H1 2418   0.719   5.261   1.712
  804TIP3    H2 2419   0.869   5.252   1.727
  805TIP3   OH2 2420   0.971   4.420   1.419
  805TIP3    H1 2421   0.912   4.442   1.490
  805TIP3    H2 2422   0.926   4.351   1.370
  806TIP3   OH2 2423   5.340   2.585   2.660
  806TIP3    H1 2424   5.254   2.562   2.696
  806TIP3    H2 2425   5.339   2.549   2.571
  807TIP3   OH2 2426   4.599   2.455   0.151
  807TIP3    H1 2427   4.618   2.389   0.218
  807TIP3    H2 2428   4.611   2.539   0.196
  808TIP3   OH2 2429   0.902   1.990   2.512
  808TIP3    H1 2430   0.860   1.933   2.577
  808TIP3    H2 2431   0.898   2.077   2.551
  809TIP3   OH2 2432   0.833   0.941   4.362
  809TIP3    H1 2433   0.846   0.856   4.405
  809TIP3    H2 2434   0.861   0.928   4.272
  810TIP3   OH2 2435   2.674   2.030   3.677
  810TIP3    H1 2436   2.703   1.945   3.709
  810TIP3    H2 2437   2.753   2.084   3.674
  811TIP3   OH2 2438   6.285   3.780   1.517
  811TIP3    H1 2439   6.208   3.750   1.567
  811TIP3    H2 2440   6.353   3.793   1.583
  812TIP3   OH2 2441   3.147   3.062   2.037
  812TIP3    H1 2442   3.082   3.078   1.969
  812TIP3    H2 2443   3.188   2.979   2.012
  813TIP3   OH2 2444   3.773   4.300   2.154
  813TIP3    H1 2445   3.698   4.335   2.203
  813TIP3    H2 2446   3.849   4.324   2.205
  814TIP3   OH2 2447   0.851   2.609   4.151
  814TIP3    H1 2448   0.915   2.608   4.080
  814TIP3    H2 2449   0.766   2.607   4.107
  815TIP3   OH2 2450   0.370   0.827   2.396
  815TIP3    H1 2451   0.356   0.921   2.392
  815TIP3    H2 2452   0.426   0.807   2.322
  816TIP3   OH2 2453   1.169   2.492   4.674
  816TIP3    H1 2454   1.246   2.438   4.689
  816TIP3    H2 2455   1.140   2.519   4.761
  817TIP3   OH2 2456   1.610   3.042   4.516
  817TIP3    H1 2457   1.517   3.063   4.504
  817TIP3    H2 2458   1.614   2.947   4.511
  818TIP3   OH2 2459   3.114   5.721   0.048
  818TIP3    H1 2460   3.059   5.666   0.105
  818TIP3    H2 2461   3.182   5.755   0.105
  819TIP3   OH2 2462   5.162   3.370   2.951
  819TIP3    H1 2463   5.077   3.408   2.974
  819TIP3    H2 2464   5.219   3.446   2.935
  820TIP3   OH2 2465   1.879   4.195   4.809
  820TIP3    H1 2466   1.788   4.194   4.778
  820TIP3    H2 2467   1.929   4.152   4.740
  821TIP3   OH2 2468   0.420   1.240   4.858
  821TIP3    H1 2469   0.498   1.216   4.907
  821TIP3    H2 2470   0.370   1.297   4.917
  822TIP3   OH2 2471   2.176   5.750   2.930
  822TIP3    H1 2472   2.092   5.760   2.885
  822TIP3    H2 2473   2.152   5.740   3.022
  823TIP3   OH2 2474   1.655   4.442   0.967
  823TIP3    H1 2475   1.704   4.435   0.885
  823TIP3    H2 2476   1.589   4.509   0.950
  824TIP3   OH2 2477   4.269   4.129   4.482
  824TIP3    H1 2478   4.209   4.111   4.409
  824TIP3    H2 2479   4.321   4.203   4.452
  825TIP3   OH2 2480   1.871   5.371   0.480
  825TIP3    H1 2481   1.953   5.407   0.445
  825TIP3    H2 2482   1.863   5.284   0.441
  826TIP3   OH2 2483   3.195   3.651   2.697
  826TIP3    H1 2484   3.266   3.657   2.633
  826TIP3    H2 2485   3.129   3.596   2.655
  827TIP3   OH2 2486   2.004   1.986   1.280
  827TIP3    H1 2487   2.015   2.081   1.290
  827TIP3    H2 2488   1.936   1.964   1.344
  828TIP3   OH2 2489   0.796   5.758   3.010
  828TIP3    H1 2490   0.737   5.833   3.002
  828TIP3    H2 2491   0.790   5.714   2.926
  829TIP3   OH2 2492   3.567   4.552   1.759
  829TIP3    H1 2493   3.546   4.485   1.694
  829TIP3    H2 2494   3.639   4.515   1.811
  830TIP3   OH2 2495   6.128   4.790   3.742
  830TIP3    H1 2496   6.201   4.772   3.800
  830TIP3    H2 2497   6.054   4.807   3.800
  831TIP3   OH2 2498   0.926   5.700   1.645
  831TIP3    H1 2499   0.956   5.639   1.578
  831TIP3    H2 2500   0.840   5.730   1.613
  832TIP3   OH2 2501   0.759   2.629   4.836
  832TIP3    H1 2502   0.736   2.627   4.743
  832TIP3    H2 2503   0.821   2.557   4.847
  833TIP3   OH2 2504   0.459   5.813   2.154
  833TIP3    H1 2505   0.469   5.733   2.205
  833TIP3    H2 2506   0.407   5.788   2.078
  834TIP3   OH2 2507   6.037   5.837   2.840
  834TIP3    H1 2508   5.976   5.880   2.781
  834TIP3    H2 2509   5.981   5.792   2.904
  835TIP3   OH2 2510   0.653   3.513   4.641
  835TIP3    H1 2511   0.684   3.461   4.567
  835TIP3    H2 2512   0.694   3.472   4.717
  836TIP3   OH2 2513   4.619   5.093   1.877
  836TIP3    H1 2514   4.549   5.066   1.818
  836TIP3    H2 2515   4.599   5.050   1.960
  837TIP3   OH2 2516   0.356   3.563   4.975
  837TIP3    H1 2517   0.409   3.621   5.029
  837TIP3    H2 2518   0.417   3.496   4.944
  838TIP3   OH2 2519   0.239   4.421   5.101
  838TIP3    H1 2520   0.144   4.428   5.099
  838TIP3    H2 2521   0.267   4.494   5.156
  839TIP3   OH2 2522   4.010   1.441   2.413
  839TIP3    H1 2523   4.102   1.466   2.415
  839TIP3    H2 2524   3.963   1.521   2.435
  840TIP3   OH2 2525   2.759   4.896   1.175
  840TIP3    H1 2526   2.716   4.981   1.185
  840TIP3    H2 2527   2.724   4.861   1.093
  841TIP3   OH2 2528   1.667   4.013   1.550
  841TIP3    H1 2529   1.681   3.977   1.462
  841TIP3    H2 2530   1.605   4.086   1.536
  842TIP3   OH2 2531   3.019   1.782   1.671
  842TIP3    H1 2532   2.970   1.718   1.722
  842TIP3    H2 2533   3.049   1.733   1.594
  843TIP3   OH2 2534   0.703   4.205   1.508
  843TIP3    H1 2535   0.634   4.254   1.463
  843TIP3    H2 2536   0.731   4.139   1.445
  844TIP3   OH2 2537   4.243   2.287   3.727
  844TIP3    H1 2538   4.284   2.351   3.669
  844TIP3    H2 2539   4.306   2.216   3.734
  845TIP3   OH2 2540   5.849   2.741   0.630
  845TIP3    H1 2541   5.930   2.792   0.628
  845TIP3    H2 2542   5.873   2.656   0.592
  846TIP3   OH2 2543   3.751   5.960   1.818
  846TIP3    H1 2544   3.768   6.049   1.786
  846TIP3    H2 2545   3.656   5.951   1.811
  847TIP3   OH2 2546   1.349   5.113   0.416
  847TIP3    H1 2547   1.295   5.124   0.338
  847TIP3    H2 2548   1.291   5.071   0.480
  848TIP3   OH2 2549   1.660   1.689   1.604
  848TIP3    H1 2550   1.661   1.618   1.668
  848TIP3    H2 2551   1.574   1.729   1.613
  849TIP3   OH2 2552   3.351   1.187   5.062
  849TIP3    H1 2553   3.279   1.250   5.071
  849TIP3    H2 2554   3.395   1.214   4.981
  850TIP3   OH2 2555   2.680   4.385   3.999
  850TIP3    H1 2556   2.770   4.379   3.968
  850TIP3    H2 2557   2.653   4.474   3.980
  851TIP3   OH2 2558   6.263   3.101   4.353
  851TIP3    H1 2559   6.282   3.179   4.405
  851TIP3    H2 2560   6.340   3.046   4.365
  852TIP3   OH2 2561   2.721   5.985   4.007
  852TIP3    H1 2562   2.751   6.070   4.039
  852TIP3    H2 2563   2.763   5.922   4.066
  853TIP3   OH2 2564   2.441   4.274   4.737
  853TIP3    H1 2565   2.360   4.310   4.701
  853TIP3    H2 2566   2.464   4.333   4.809
  854TIP3   OH2 2567   2.729   3.266   3.250
  854TIP3    H1 2568   2.678   3.195   3.290
  854TIP3    H2 2569   2.783   3.299   3.322
  855TIP3   OH2 2570   2.902   4.743   1.882
  855TIP3    H1 2571   2.925   4.761   1.790
  855TIP3    H2 2572   2.961   4.799   1.932
  856TIP3   OH2 2573   4.665   4.706   4.654
  856TIP3    H1 2574   4.677   4.640   4.584
  856TIP3    H2 2575   4.692   4.661   4.734
  857TIP3   OH2 2576   1.958   3.418   2.667
  857TIP3    H1 2577   2.019   3.479   2.709
  857TIP3    H2 2578   2.013   3.345   2.639
  858TIP3   OH2 2579   3.575   2.831   0.346
  858TIP3    H1 2580   3.494   2.812   0.392
  858TIP3    H2 2581   3.552   2.901   0.284
  859TIP3   OH2 2582   3.146   3.358   1.850
  859TIP3    H1 2583   3.172   3.295   1.783
  859TIP3    H2 2584   3.229   3.400   1.876
  860TIP3   OH2 2585   4.334   2.463   0.552
  860TIP3    H1 2586   4.336   2.410   0.632
  860TIP3    H2 2587   4.305   2.401   0.484
  861TIP3   OH2 2588   3.723   2.131   1.314
  861TIP3    H1 2589   3.755   2.149   1.226
  861TIP3    H2 2590   3.802   2.121   1.367
  862TIP3   OH2 2591   2.058   2.029   2.873
  862TIP3    H1 2592   1.967   2.028   2.902
  862TIP3    H2 2593   2.077   2.121   2.855
  863TIP3   OH2 2594   5.576   0.524   1.085
  863TIP3    H1 2595   5.626   0.535   1.166
  863TIP3    H2 2596   5.519   0.601   1.082
  864TIP3   OH2 2597   1.167   0.597   4.415
  864TIP3    H1 2598   1.111   0.581   4.490
  864TIP3    H2 2599   1.255   0.577   4.445
  865TIP3   OH2 2600   4.226   0.149   1.867
  865TIP3    H1 2601   4.318   0.170   1.857
  865TIP3    H2 2602   4.225   0.072   1.924
  866TIP3   OH2 2603   3.211   5.801   4.942
  866TIP3    H1 2604   3.132   5.837   4.901
  866TIP3    H2 2605   3.231   5.861   5.013
  867TIP3   OH2 2606   0.226   0.360   2.644
  867TIP3    H1 2607   0.266   0.411   2.574
  867TIP3    H2 2608   0.174   0.294   2.599
  868TIP3   OH2 2609   2.523   3.534   5.060
  868TIP3    H1 2610   2.438   3.506   5.027
  868TIP3    H2 2611   2.516   3.629   5.069
  869TIP3   OH2 2612   0.335   4.199   2.176
  869TIP3    H1 2613   0.310   4.139   2.247
  869TIP3    H2 2614   0.419   4.165   2.145
  870TIP3   OH2 2615   4.492   1.563   0.625
  870TIP3    H1 2616   4.521   1.477   0.653
  870TIP3    H2 2617   4.461   1.550   0.535
  871TIP3   OH2 2618   4.449   5.244   4.576
  871TIP3    H1 2619   4.355   5.261   4.578
  871TIP3    H2 2620   4.488   5.319   4.621
  872TIP3   OH2 2621   2.438   1.932   1.746
  872TIP3    H1 2622   2.362   1.876   1.759
  872TIP3    H2 2623   2.409   2.019   1.773
  873TIP3   OH2 2624   0.431   5.694   0.667
  873TIP3    H1 2625   0.351   5.642   0.667
  873TIP3    H2 2626   0.458   5.696   0.575
  874TIP3   OH2 2627   0.922   1.426   4.653
  874TIP3    H1 2628   0.987   1.459   4.714
  874TIP3    H2 2629   0.972   1.410   4.572
  875TIP3   OH2 2630   5.936   0.420   0.869
  875TIP3    H1 2631   5.844   0.402   0.850
  875TIP3    H2 2632   5.971   0.337   0.901
  876TIP3   OH2 2633   5.035   2.241   0.643
  876TIP3    H1 2634   5.041   2.229   0.738
  876TIP3    H2 2635   4.963   2.303   0.631
  877TIP3   OH2 2636   0.241   5.001   0.126
  877TIP3    H1 2637   0.294   4.995   0.047
  877TIP3    H2 2638   0.282   4.942   0.188
  878TIP3   OH2 2639   0.180   2.630   0.437
  878TIP3    H1 2640   0.153   2.583   0.357
  878TIP3    H2 2641   0.270   2.603   0.451
  879TIP3   OH2 2642   3.958   2.634   2.755
  879TIP3    H1 2643   3.938   2.728   2.752
  879TIP3    H2 2644   3.876   2.592   2.729
  880TIP3   OH2 2645   2.639   3.523   4.108
  880TIP3    H1 2646   2.573   3.483   4.165
  880TIP3    H2 2647   2.712   3.543   4.166
  881TIP3   OH2 2648   5.335   5.535   3.574
  881TIP3    H1 2649   5.264   5.555   3.635
  881TIP3    H2 2650   5.391   5.613   3.576
  882TIP3   OH2 2651   1.167   1.120   4.640
  882TIP3    H1 2652   1.076   1.117   4.613
  882TIP3    H2 2653   1.214   1.157   4.566
  883TIP3   OH2 2654   4.582   4.991   4.799
  883TIP3    H1 2655   4.661   5.002   4.852
  883TIP3    H2 2656   4.599   4.912   4.747
  884TIP3   OH2 2657   3.632   4.949   4.128
  884TIP3    H1 2658   3.637   4.938   4.033
  884TIP3    H2 2659   3.663   5.038   4.144
  885TIP3   OH2 2660   0.724   1.894   4.237
  885TIP3    H1 2661   0.811   1.931   4.247
  885TIP3    H2 2662   0.726   1.814   4.290
  886TIP3   OH2 2663   0.008   4.618   0.999
  886TIP3    H1 2664  -0.016   4.576   0.916
  886TIP3    H2 2665   0.050   4.549   1.049
  887TIP3   OH2 2666   0.323   2.705   2.695
  887TIP3    H1 2667   0.337   2.665   2.610
  887TIP3    H2 2668   0.344   2.636   2.758
  888TIP3   OH2 2669   2.105   4.378   1.902
  888TIP3    H1 2670   2.177   4.436   1.876
  888TIP3    H2 2671   2.136   4.336   1.981
  889TIP3   OH2 2672   4.554   4.382   4.685
  889TIP3    H1 2673   4.595   4.428   4.758
  889TIP3    H2 2674   4.473   4.431   4.669
  890TIP3   OH2 2675   6.027   1.925   2.438
  890TIP3    H1 2676   5.976   1.967   2.369
  890TIP3    H2 2677   6.090   1.870   2.392
  891TIP3   OH2 2678   3.553   5.157   2.580
  891TIP3    H1 2679   3.567   5.248   2.553
  891TIP3    H2 2680   3.638   5.129   2.614
  892TIP3   OH2 2681   4.395   1.447   4.390
  892TIP3    H1 2682   4.485   1.430   4.363
  892TIP3    H2 2683   4.383   1.392   4.468
  893TIP3   OH2 2684   0.252   0.782   1.819
  893TIP3    H1 2685   0.192   0.715   1.853
  893TIP3    H2 2686   0.197   0.837   1.763
  894TIP3   OH2 2687   4.188   3.976   2.265
  894TIP3    H1 2688   4.124   3.985   2.195
  894TIP3    H2 2689   4.271   3.962   2.220
  895TIP3   OH2 2690   4.816   5.702   0.353
  895TIP3    H1 2691   4.792   5.790   0.381
  895TIP3    H2 2692   4.733   5.662   0.326
  896TIP3   OH2 2693   1.815   3.847   1.735
  896TIP3    H1 2694   1.734   3.800   1.759
  896TIP3    H2 2695   1.789   3.904   1.663
  897TIP3   OH2 2696   1.418   5.907   3.889
  897TIP3    H1 2697   1.368   5.931   3.968
  897TIP3    H2 2698   1.351   5.888   3.824
  898TIP3   OH2 2699   4.640   4.575   3.411
  898TIP3    H1 2700   4.654   4.663   3.376
  898TIP3    H2 2701   4.590   4.530   3.343
  899TIP3   OH2 2702   3.956   0.448   4.967
  899TIP3    H1 2703   3.923   0.368   4.927
  899TIP3    H2 2704   4.049   0.431   4.982
  900TIP3   OH2 2705   0.681   1.448   1.143
  900TIP3    H1 2706   0.755   1.476   1.196
  900TIP3    H2 2707   0.667   1.357   1.167
  901TIP3   OH2 2708   3.766   0.397   1.591
  901TIP3    H1 2709   3.695   0.390   1.527
  901TIP3    H2 2710   3.748   0.328   1.655
  902TIP3   OH2 2711   3.989   5.029   0.134
  902TIP3    H1 2712   4.030   5.067   0.211
  902TIP3    H2 2713   4.061   5.013   0.073
  903TIP3   OH2 2714   0.814   0.692   1.016
  903TIP3    H1 2715   0.866   0.686   1.096
  903TIP3    H2 2716   0.849   0.769   0.971
  904TIP3   OH2 2717   2.128   4.831   2.826
  904TIP3    H1 2718   2.218   4.842   2.797
  904TIP3    H2 2719   2.076   4.842   2.746
  905TIP3   OH2 2720   1.288   2.976   4.441
  905TIP3    H1 2721   1.209   3.029   4.439
  905TIP3    H2 2722   1.257   2.886   4.454
  906TIP3   OH2 2723   5.300   4.360   4.063
  906TIP3    H1 2724   5.384   4.399   4.089
  906TIP3    H2 2725   5.293   4.377   3.969
  907TIP3   OH2 2726   3.523   3.373   0.038
  907TIP3    H1 2727   3.575   3.297   0.011
  907TIP3    H2 2728   3.552   3.390   0.128
  908TIP3   OH2 2729   2.362   0.351   1.101
  908TIP3    H1 2730   2.415   0.335   1.179
  908TIP3    H2 2731   2.414   0.315   1.029
  909TIP3   OH2 2732   4.957   2.175   2.793
  909TIP3    H1 2733   4.867   2.205   2.784
  909TIP3    H2 2734   4.983   2.150   2.704
  910TIP3   OH2 2735   4.628   0.803   5.163
  910TIP3    H1 2736   4.646   0.807   5.257
  910TIP3    H2 2737   4.685   0.734   5.130
  911TIP3   OH2 2738   5.696   0.921   4.526
  911TIP3    H1 2739   5.755   0.869   4.471
  911TIP3    H2 2740   5.701   0.880   4.612
  912TIP3   OH2 2741   5.538   5.885   0.067
  912TIP3    H1 2742   5.558   5.824  -0.004
  912TIP3    H2 2743   5.502   5.962   0.023
  913TIP3   OH2 2744   4.489   0.460   5.131
  913TIP3    H1 2745   4.519   0.381   5.085
  913TIP3    H2 2746   4.569   0.497   5.168
  914TIP3   OH2 2747   3.367   3.554   2.488
  914TIP3    H1 2748   3.355   3.545   2.393
  914TIP3    H2 2749   3.375   3.465   2.520
  915TIP3   OH2 2750   0.514   4.575   1.615
  915TIP3    H1 2751   0.546   4.526   1.538
  915TIP3    H2 2752   0.423   4.594   1.595
  916TIP3   OH2 2753   4.151   4.229   4.744
  916TIP3    H1 2754   4.168   4.220   4.650
  916TIP3    H2 2755   4.100   4.151   4.767
  917TIP3   OH2 2756   3.888   3.044   0.684
  917TIP3    H1 2757   3.963   2.995   0.716
  917TIP3    H2 2758   3.923   3.130   0.661
  918TIP3   OH2 2759   3.697   3.934   2.064
  918TIP3    H1 2760   3.745   4.015   2.050
  918TIP3    H2 2761   3.646   3.950   2.144
  919TIP3   OH2 2762   4.332   1.248   4.114
  919TIP3    H1 2763   4.312   1.183   4.046
  919TIP3    H2 2764   4.414   1.289   4.085
  920TIP3   OH2 2765   2.447   5.034   1.473
  920TIP3    H1 2766   2.543   5.033   1.479
  920TIP3    H2 2767   2.417   5.048   1.562
  921TIP3   OH2 2768   5.025   2.381   3.281
  921TIP3    H1 2769   5.089   2.334   3.227
  921TIP3    H2 2770   5.052   2.473   3.273
  922TIP3   OH2 2771   0.626   3.955   2.847
  922TIP3    H1 2772   0.589   4.040   2.868
  922TIP3    H2 2773   0.714   3.974   2.815
  923TIP3   OH2 2774   5.403   5.042   4.123
  923TIP3    H1 2775   5.314   5.039   4.156
  923TIP3    H2 2776   5.456   5.002   4.192
  924TIP3   OH2 2777   5.305   3.821   3.304
  924TIP3    H1 2778   5.386   3.773   3.284
  924TIP3    H2 2779   5.306   3.895   3.243
  925TIP3   OH2 2780   1.330   5.191   2.374
  925TIP3    H1 2781   1.328   5.252   2.300
  925TIP3    H2 2782   1.422   5.167   2.383
  926TIP3   OH2 2783   6.132   4.802   0.064
  926TIP3    H1 2784   6.097   4.713   0.066
  926TIP3    H2 2785   6.076   4.850   0.125
  927TIP3   OH2 2786   6.148   0.683   1.796
  927TIP3    H1 2787   6.057   0.712   1.792
  927TIP3    H2 2788   6.191   0.730   1.724
  928TIP3   OH2 2789   3.223   5.678   2.770
  928TIP3    H1 2790   3.128   5.692   2.769
  928TIP3    H2 2791   3.259   5.764   2.789
  929TIP3   OH2 2792   4.724   2.008   0.343
  929TIP3    H1 2793   4.726   1.981   0.435
  929TIP3    H2 2794   4.691   2.098   0.345
  930TIP3   OH2 2795   4.548   2.152   4.084
  930TIP3    H1 2796   4.503   2.232   4.110
  930TIP3    H2 2797   4.524   2.088   4.152
  931TIP3   OH2 2798   5.911   3.495   3.758
  931TIP3    H1 2799   5.857   3.564   3.795
  931TIP3    H2 2800   5.871   3.414   3.788
  932TIP3   OH2 2801   2.753   3.777   1.351
  932TIP3    H1 2802   2.807   3.843   1.394
  932TIP3    H2 2803   2.691   3.827   1.297
  933TIP3   OH2 2804   3.651   0.430   2.420
  933TIP3    H1 2805   3.668   0.439   2.513
  933TIP3    H2 2806   3.567   0.475   2.407
  934TIP3   OH2 2807   5.493   2.951   4.982
  934TIP3    H1 2808   5.399   2.942   4.998
  934TIP3    H2 2809   5.499   2.983   4.892
  935TIP3   OH2 2810   5.234   0.080   0.478
  935TIP3    H1 2811   5.282   0.151   0.436
  935TIP3    H2 2812   5.166   0.057   0.415
  936TIP3   OH2 2813   5.641   1.182   3.671
  936TIP3    H1 2814   5.653   1.252   3.734
  936TIP3    H2 2815   5.729   1.158   3.643
  937TIP3   OH2 2816   6.217   4.123   4.333
  937TIP3    H1 2817   6.235   4.170   4.415
  937TIP3    H2 2818   6.218   4.192   4.266
  938TIP3   OH2 2819   4.875   2.031   0.607
  938TIP3    H1 2820   4.947   2.094   0.611
  938TIP3    H2 2821   4.829   2.042   0.690
  939TIP3   OH2 2822   4.926   2.744   0.249
  939TIP3    H1 2823   4.842   2.703   0.229
  939TIP3    H2 2824   4.913   2.836   0.228
  940TIP3   OH2 2825   5.196   5.232   1.864
  940TIP3    H1 2826   5.247   5.151   1.865
  940TIP3    H2 2827   5.109   5.206   1.832
  941TIP3   OH2 2828   2.008   2.751   2.994
  941TIP3    H1 2829   2.013   2.701   3.076
  941TIP3    H2 2830   2.059   2.831   3.012
  942TIP3   OH2 2831   4.558   0.194   3.175
  942TIP3    H1 2832   4.593   0.117   3.131
  942TIP3    H2 2833   4.604   0.197   3.259
  943TIP3   OH2 2834   4.475   3.683   3.583
  943TIP3    H1 2835   4.460   3.676   3.677
  943TIP3    H2 2836   4.540   3.616   3.564
  944TIP3   OH2 2837   3.637   5.939   4.126
  944TIP3    H1 2838   3.637   5.853   4.166
  944TIP3    H2 2839   3.680   5.927   4.042
  945TIP3   OH2 2840   4.894   3.327   3.535
  945TIP3    H1 2841   4.812   3.284   3.560
  945TIP3    H2 2842   4.955   3.307   3.606
  946TIP3   OH2 2843   3.159   3.360   0.050
  946TIP3    H1 2844   3.253   3.354   0.032
  946TIP3    H2 2845   3.146   3.303   0.126
  947TIP3   OH2 2846   5.616   1.156   3.213
  947TIP3    H1 2847   5.560   1.146   3.290
  947TIP3    H2 2848   5.652   1.244   3.221
  948TIP3   OH2 2849   4.111   0.402   4.397
  948TIP3    H1 2850   4.048   0.367   4.334
  948TIP3    H2 2851   4.108   0.340   4.471
  949TIP3   OH2 2852   1.547   2.839   0.981
  949TIP3    H1 2853   1.567   2.929   0.954
  949TIP3    H2 2854   1.454   2.839   1.000
  950TIP3   OH2 2855   4.433   5.362   1.074
  950TIP3    H1 2856   4.472   5.447   1.092
  950TIP3    H2 2857   4.339   5.376   1.087
  951TIP3   OH2 2858   0.337   4.560   4.415
  951TIP3    H1 2859   0.297   4.520   4.492
  951TIP3    H2 2860   0.429   4.574   4.439
  952TIP3   OH2 2861   3.146   5.707   1.436
  952TIP3    H1 2862   3.208   5.752   1.380
  952TIP3    H2 2863   3.196   5.685   1.515
  953TIP3   OH2 2864   1.244   4.748   1.849
  953TIP3    H1 2865   1.157   4.736   1.811
  953TIP3    H2 2866   1.229   4.751   1.943
  954TIP3   OH2 2867   6.236   1.862   2.235
  954TIP3    H1 2868   6.197   1.932   2.184
  954TIP3    H2 2869   6.328   1.889   2.246
  955TIP3   OH2 2870   0.322   1.151   4.424
  955TIP3    H1 2871   0.304   1.127   4.515
  955TIP3    H2 2872   0.408   1.113   4.406
  956TIP3   OH2 2873   1.723   1.074   0.954
  956TIP3    H1 2874   1.781   1.048   0.882
  956TIP3    H2 2875   1.775   1.135   1.006
  957TIP3   OH2 2876   2.895   3.942   0.087
  957TIP3    H1 2877   2.948   3.925   0.009
  957TIP3    H2 2878   2.910   3.866   0.143
  958TIP3   OH2 2879   0.261   4.030   4.693
  958TIP3    H1 2880   0.290   4.057   4.606
  958TIP3    H2 2881   0.263   3.934   4.689
  959TIP3   OH2 2882   3.442   1.440   4.478
  959TIP3    H1 2883   3.463   1.456   4.386
  959TIP3    H2 2884   3.519   1.470   4.526
  960TIP3   OH2 2885   1.378   0.694   1.578
  960TIP3    H1 2886   1.470   0.698   1.552
  960TIP3    H2 2887   1.367   0.605   1.612
  961TIP3   OH2 2888   3.871   4.549   1.508
  961TIP3    H1 2889   3.802   4.514   1.452
  961TIP3    H2 2890   3.852   4.514   1.595
  962TIP3   OH2 2891   1.288   2.581   1.426
  962TIP3    H1 2892   1.383   2.576   1.415
  962TIP3    H2 2893   1.271   2.673   1.448
  963TIP3   OH2 2894   6.106   2.389   3.809
  963TIP3    H1 2895   6.162   2.373   3.734
  963TIP3    H2 2896   6.031   2.331   3.795
  964TIP3   OH2 2897   4.557   0.476   3.519
  964TIP3    H1 2898   4.477   0.461   3.568
  964TIP3    H2 2899   4.605   0.393   3.525
  965TIP3   OH2 2900   1.391   0.346   3.950
  965TIP3    H1 2901   1.395   0.336   4.045
  965TIP3    H2 2902   1.459   0.412   3.931
  966TIP3   OH2 2903   0.479   5.453   4.133
  966TIP3    H1 2904   0.448   5.364   4.152
  966TIP3    H2 2905   0.494   5.453   4.039
  967TIP3   OH2 2906   3.433   1.013   2.249
  967TIP3    H1 2907   3.439   1.083   2.184
  967TIP3    H2 2908   3.404   1.056   2.329
  968TIP3   OH2 2909   4.981   1.647   1.718
  968TIP3    H1 2910   4.939   1.601   1.790
  968TIP3    H2 2911   5.059   1.687   1.757
  969TIP3   OH2 2912   2.244   1.682   2.419
  969TIP3    H1 2913   2.163   1.644   2.453
  969TIP3    H2 2914   2.285   1.725   2.494
  970TIP3   OH2 2915   5.106   4.178   1.011
  970TIP3    H1 2916   5.201   4.186   1.025
  970TIP3    H2 2917   5.098   4.144   0.922
  971TIP3   OH2 2918   1.373   1.362   4.396
  971TIP3    H1 2919   1.375   1.268   4.413
  971TIP3    H2 2920   1.370   1.369   4.301
  972TIP3   OH2 2921   2.412   4.742   1.321
  972TIP3    H1 2922   2.502   4.721   1.299
  972TIP3    H2 2923   2.398   4.702   1.407
  973TIP3   OH2 2924   5.724   2.803   4.281
  973TIP3    H1 2925   5.768   2.763   4.206
  973TIP3    H2 2926   5.641   2.835   4.246
  974TIP3   OH2 2927   2.890   5.170   3.012
  974TIP3    H1 2928   2.921   5.097   3.065
  974TIP3    H2 2929   2.939   5.246   3.045
  975TIP3   OH2 2930   3.968   3.094   4.975
  975TIP3    H1 2931   3.983   3.000   4.964
  975TIP3    H2 2932   3.989   3.131   4.889
  976TIP3   OH2 2933   5.946   4.504   5.112
  976TIP3    H1 2934   6.008   4.570   5.142
  976TIP3    H2 2935   5.882   4.498   5.183
  977TIP3   OH2 2936   3.645   5.435   3.011
  977TIP3    H1 2937   3.689   5.458   2.929
  977TIP3    H2 2938   3.586   5.508   3.029
  978TIP3   OH2 2939   2.130   0.866   0.925
  978TIP3    H1 2940   2.105   0.777   0.900
  978TIP3    H2 2941   2.209   0.884   0.875
  979TIP3   OH2 2942   4.556   5.995   3.639
  979TIP3    H1 2943   4.503   5.941   3.697
  979TIP3    H2 2944   4.534   5.964   3.551
  980TIP3   OH2 2945   0.351   4.398   3.356
  980TIP3    H1 2946   0.294   4.353   3.419
  980TIP3    H2 2947   0.342   4.491   3.378
  981TIP3   OH2 2948   4.899   2.439   0.811
  981TIP3    H1 2949   4.877   2.522   0.853
  981TIP3    H2 2950   4.957   2.395   0.873
  982TIP3   OH2 2951   4.714   4.255   4.476
  982TIP3    H1 2952   4.639   4.266   4.418
  982TIP3    H2 2953   4.677   4.268   4.564
  983TIP3   OH2 2954   1.711   2.813   4.799
  983TIP3    H1 2955   1.753   2.824   4.714
  983TIP3    H2 2956   1.709   2.902   4.836
  984TIP3   OH2 2957   0.577   3.979   4.665
  984TIP3    H1 2958   0.640   4.002   4.597
  984TIP3    H2 2959   0.500   3.949   4.617
  985TIP3   OH2 2960   5.900   4.694   0.989
  985TIP3    H1 2961   5.938   4.614   1.026
  985TIP3    H2 2962   5.820   4.708   1.039
  986TIP3   OH2 2963   0.312   3.963   3.519
  986TIP3    H1 2964   0.290   4.047   3.478
  986TIP3    H2 2965   0.229   3.933   3.557
  987TIP3   OH2 2966   0.087   5.701   4.152
  987TIP3    H1 2967   0.128   5.659   4.228
  987TIP3    H2 2968   0.149   5.685   4.080
  988TIP3   OH2 2969   2.993   4.691   3.077
  988TIP3    H1 2970   2.930   4.693   3.005
  988TIP3    H2 2971   2.957   4.750   3.143
  989TIP3   OH2 2972   5.915   1.204   3.092
  989TIP3    H1 2973   5.982   1.221   3.158
  989TIP3    H2 2974   5.846   1.157   3.139
  990TIP3   OH2 2975   5.128   1.231   4.712
  990TIP3    H1 2976   5.152   1.294   4.780
  990TIP3    H2 2977   5.209   1.185   4.691
  991TIP3   OH2 2978   4.370   3.902   4.657
  991TIP3    H1 2979   4.318   3.972   4.617
  991TIP3    H2 2980   4.365   3.919   4.751
  992TIP3   OH2 2981   1.324   1.118   3.556
  992TIP3    H1 2982   1.399   1.112   3.497
  992TIP3    H2 2983   1.339   1.049   3.620
  993TIP3   OH2 2984   6.056   0.367   3.241
  993TIP3    H1 2985   6.119   0.324   3.300
  993TIP3    H2 2986   6.107   0.388   3.163
  994TIP3   OH2 2987   3.119   2.279   4.048
  994TIP3    H1 2988   3.158   2.219   4.111
  994TIP3    H2 2989   3.155   2.365   4.072
  995TIP3   OH2 2990   0.072   0.742   4.547
  995TIP3    H1 2991  -0.017   0.758   4.516
  995TIP3    H2 2992   0.062   0.671   4.611
  996TIP3   OH2 2993   0.091   0.981   0.240
  996TIP3    H1 2994   0.057   1.037   0.170
  996TIP3    H2 2995   0.060   1.023   0.321
  997TIP3   OH2 2996   4.744   1.924   4.633
  997TIP3    H1 2997   4.732   1.875   4.715
  997TIP3    H2 2998   4.806   1.993   4.656
  998TIP3   OH2 2999   1.326   5.439   1.995
  998TIP3    H1 3000   1.342   5.469   1.906
  998TIP3    H2 3001   1.348   5.346   1.994
  999TIP3   OH2 3002   4.381   3.608   0.347
  999TIP3    H1 3003   4.407   3.654   0.267
  999TIP3    H2 3004   4.370   3.517   0.320
 1000TIP3   OH2 3005   0.205   2.763   4.050
 1000TIP3    H1 3006   0.143   2.830   4.020
 1000TIP3    H2 3007   0.240   2.725   3.969
 1001TIP3   OH2 3008   3.927   5.184   2.182
 1001TIP3    H1 3009   3.890   5.243   2.248
 1001TIP3    H2 3010   3.934   5.238   2.103
 1002TIP3   OH2 3011   1.780   0.085   1.652
 1002TIP3    H1 3012   1.822   0.135   1.582
 1002TIP3    H2 3013   1.696   0.129   1.665
 1003TIP3   OH2 3014   4.172   2.774   1.023
 1003TIP3    H1 3015   4.250   2.759   0.970
 1003TIP3    H2 3016   4.204   2.782   1.112
 1004TIP3   OH2 3017   2.521   1.580   1.728
 1004TIP3    H1 3018   2.490   1.639   1.797
 1004TIP3    H2 3019   2.443   1.529   1.703
 1005TIP3   OH2 3020   4.482   1.897   0.244
 1005TIP3    H1 3021   4.478   1.984   0.206
 1005TIP3    H2 3022   4.568   1.892   0.285
 1006TIP3   OH2 3023   4.442   4.315   4.340
 1006TIP3    H1 3024   4.359   4.332   4.296
 1006TIP3    H2 3025   4.499   4.387   4.314
 1007TIP3   OH2 3026   2.918   1.791   3.493
 1007TIP3    H1 3027   2.899   1.723   3.428
 1007TIP3    H2 3028   2.977   1.851   3.448
 1008TIP3   OH2 3029   5.757   1.600   3.449
 1008TIP3    H1 3030   5.725   1.606   3.539
 1008TIP3    H2 3031   5.847   1.571   3.457
 1009TIP3   OH2 3032   4.037   4.424   2.244
 1009TIP3    H1 3033   4.052   4.438   2.151
 1009TIP3    H2 3034   4.110   4.368   2.272
 1010TIP3   OH2 3035   1.311   3.269   2.016
 1010TIP3    H1 3036   1.231   3.224   1.991
 1010TIP3    H2 3037   1.372   3.198   2.038
 1011TIP3   OH2 3038   4.915   2.475   2.561
 1011TIP3    H1 3039   4.938   2.438   2.476
 1011TIP3    H2 3040   4.840   2.424   2.591
 1012TIP3   OH2 3041   0.851   0.710   4.529
 1012TIP3    H1 3042   0.850   0.615   4.545
 1012TIP3    H2 3043   0.932   0.740   4.570
 1013TIP3   OH2 3044   3.725   4.206   0.288
 1013TIP3    H1 3045   3.754   4.276   0.229
 1013TIP3    H2 3046   3.803   4.150   0.298
 1014TIP3   OH2 3047   1.124   2.983   5.021
 1014TIP3    H1 3048   1.097   3.060   5.070
 1014TIP3    H2 3049   1.074   2.987   4.940
 1015TIP3   OH2 3050   2.285   0.574   4.336
 1015TIP3    H1 3051   2.336   0.494   4.323
 1015TIP3    H2 3052   2.208   0.546   4.385
 1016TIP3   OH2 3053   1.786   5.275   3.202
 1016TIP3    H1 3054   1.797   5.196   3.256
 1016TIP3    H2 3055   1.692   5.280   3.186
 1017TIP3   OH2 3056   2.146   2.260   0.482
 1017TIP3    H1 3057   2.182   2.255   0.570
 1017TIP3    H2 3058   2.211   2.217   0.426
 1018TIP3   OH2 3059   3.683   2.228   0.948
 1018TIP3    H1 3060   3.651   2.138   0.938
 1018TIP3    H2 3061   3.636   2.277   0.881
 1019TIP3   OH2 3062   0.859   4.811   4.265
 1019TIP3    H1 3063   0.828   4.736   4.216
 1019TIP3    H2 3064   0.941   4.836   4.221
 1020TIP3   OH2 3065   0.530   2.775   1.425
 1020TIP3    H1 3066   0.590   2.701   1.432
 1020TIP3    H2 3067   0.473   2.768   1.502
 1021TIP3   OH2 3068   4.731   1.611   1.180
 1021TIP3    H1 3069   4.754   1.576   1.094
 1021TIP3    H2 3070   4.814   1.640   1.217
 1022TIP3   OH2 3071   6.257   1.641   2.957
 1022TIP3    H1 3072   6.193   1.710   2.936
 1022TIP3    H2 3073   6.214   1.560   2.929
 1023TIP3   OH2 3074   1.416   3.400   4.679
 1023TIP3    H1 3075   1.478   3.401   4.752
 1023TIP3    H2 3076   1.405   3.307   4.658
 1024TIP3   OH2 3077   0.238   4.485   1.264
 1024TIP3    H1 3078   0.176   4.436   1.210
 1024TIP3    H2 3079   0.305   4.514   1.203
 1025TIP3   OH2 3080   1.087   1.341   2.424
 1025TIP3    H1 3081   1.103   1.287   2.347
 1025TIP3    H2 3082   1.044   1.282   2.487
 1026TIP3   OH2 3083   2.641   0.302   2.431
 1026TIP3    H1 3084   2.632   0.397   2.427
 1026TIP3    H2 3085   2.604   0.271   2.348
 1027TIP3   OH2 3086   0.099   5.785   1.183
 1027TIP3    H1 3087   0.108   5.856   1.247
 1027TIP3    H2 3088   0.007   5.759   1.188
 1028TIP3   OH2 3089   4.169   0.316   4.684
 1028TIP3    H1 3090   4.230   0.389   4.692
 1028TIP3    H2 3091   4.223   0.238   4.696
 1029TIP3   OH2 3092   5.440   4.770   1.871
 1029TIP3    H1 3093   5.437   4.866   1.867
 1029TIP3    H2 3094   5.532   4.750   1.886
 1030TIP3   OH2 3095   1.930   2.056   0.091
 1030TIP3    H1 3096   1.977   2.085   0.013
 1030TIP3    H2 3097   1.865   1.994   0.057
 1031TIP3   OH2 3098   5.647   1.601   3.699
 1031TIP3    H1 3099   5.611   1.530   3.753
 1031TIP3    H2 3100   5.590   1.675   3.715
 1032TIP3   OH2 3101   4.623   3.452   3.507
 1032TIP3    H1 3102   4.712   3.446   3.473
 1032TIP3    H2 3103   4.605   3.365   3.542
 1033TIP3   OH2 3104   0.607   5.970   3.987
 1033TIP3    H1 3105   0.575   5.928   3.907
 1033TIP3    H2 3106   0.531   6.019   4.020
 1034TIP3   OH2 3107   1.517   5.833   1.599
 1034TIP3    H1 3108   1.462   5.869   1.669
 1034TIP3    H2 3109   1.515   5.899   1.530
 1035TIP3   OH2 3110   1.934   5.857   4.507
 1035TIP3    H1 3111   2.020   5.876   4.546
 1035TIP3    H2 3112   1.897   5.790   4.564
 1036TIP3   OH2 3113   0.494   3.134   2.610
 1036TIP3    H1 3114   0.578   3.168   2.642
 1036TIP3    H2 3115   0.462   3.079   2.682
 1037TIP3   OH2 3116   3.323   3.565   4.693
 1037TIP3    H1 3117   3.273   3.644   4.710
 1037TIP3    H2 3118   3.415   3.593   4.698
 1038TIP3   OH2 3119   5.184   0.872   2.897
 1038TIP3    H1 3120   5.172   0.965   2.917
 1038TIP3    H2 3121   5.214   0.871   2.806
 1039TIP3   OH2 3122   6.187   0.704   4.942
 1039TIP3    H1 3123   6.210   0.790   4.907
 1039TIP3    H2 3124   6.207   0.710   5.036
 1040TIP3   OH2 3125   2.185   4.209   1.143
 1040TIP3    H1 3126   2.176   4.302   1.164
 1040TIP3    H2 3127   2.183   4.165   1.228
 1041TIP3   OH2 3128   4.537   1.902   1.267
 1041TIP3    H1 3129   4.603   1.857   1.321
 1041TIP3    H2 3130   4.480   1.833   1.236
 1042TIP3   OH2 3131   3.200   1.083   4.418
 1042TIP3    H1 3132   3.189   1.178   4.428
 1042TIP3    H2 3133   3.254   1.057   4.492
 1043TIP3   OH2 3134   6.315   5.477   2.752
 1043TIP3    H1 3135   6.342   5.474   2.660
 1043TIP3    H2 3136   6.304   5.570   2.771
 1044TIP3   OH2 3137   2.843   2.200   1.378
 1044TIP3    H1 3138   2.878   2.137   1.441
 1044TIP3    H2 3139   2.902   2.275   1.383
 1045TIP3   OH2 3140   6.113   2.582   0.256
 1045TIP3    H1 3141   6.202   2.547   0.251
 1045TIP3    H2 3142   6.114   2.658   0.198
 1046TIP3   OH2 3143   1.044   5.101   2.659
 1046TIP3    H1 3144   1.066   5.186   2.622
 1046TIP3    H2 3145   1.106   5.040   2.619
 1047TIP3   OH2 3146   5.848   0.773   0.143
 1047TIP3    H1 3147   5.793   0.806   0.214
 1047TIP3    H2 3148   5.789   0.765   0.068
 1048TIP3   OH2 3149   6.230   2.903   0.184
 1048TIP3    H1 3150   6.315   2.871   0.152
 1048TIP3    H2 3151   6.218   2.987   0.140
 1049TIP3   OH2 3152   1.308   4.522   4.620
 1049TIP3    H1 3153   1.264   4.565   4.546
 1049TIP3    H2 3154   1.354   4.593   4.665
 1050TIP3   OH2 3155   1.884   2.931   3.307
 1050TIP3    H1 3156   1.812   2.869   3.322
 1050TIP3    H2 3157   1.866   3.004   3.365
 1051TIP3   OH2 3158   0.251   4.010   0.152
 1051TIP3    H1 3159   0.199   3.957   0.092
 1051TIP3    H2 3160   0.305   3.947   0.200
 1052TIP3   OH2 3161   6.150   5.946   3.722
 1052TIP3    H1 3162   6.058   5.921   3.723
 1052TIP3    H2 3163   6.197   5.864   3.736
 1053TIP3   OH2 3164   5.787   5.818   1.553
 1053TIP3    H1 3165   5.745   5.891   1.508
 1053TIP3    H2 3166   5.766   5.832   1.645
 1054TIP3   OH2 3167   0.939   2.953   0.027
 1054TIP3    H1 3168   0.898   2.868   0.041
 1054TIP3    H2 3169   0.889   3.013   0.083
 1055TIP3   OH2 3170   0.556   2.547   0.983
 1055TIP3    H1 3171   0.643   2.509   0.972
 1055TIP3    H2 3172   0.518   2.501   1.058
 1056TIP3   OH2 3173   4.464   2.915   0.135
 1056TIP3    H1 3174   4.375   2.900   0.167
 1056TIP3    H2 3175   4.462   3.004   0.100
 1057TIP3   OH2 3176   0.758   2.566   1.605
 1057TIP3    H1 3177   0.812   2.580   1.527
 1057TIP3    H2 3178   0.761   2.471   1.619
 1058TIP3   OH2 3179   0.555   3.085   4.151
 1058TIP3    H1 3180   0.472   3.099   4.107
 1058TIP3    H2 3181   0.562   2.990   4.159
 1059TIP3   OH2 3182   5.286   1.313   3.919
 1059TIP3    H1 3183   5.324   1.395   3.888
 1059TIP3    H2 3184   5.303   1.250   3.848
 1060TIP3   OH2 3185   4.286   5.135   2.937
 1060TIP3    H1 3186   4.265   5.165   2.848
 1060TIP3    H2 3187   4.342   5.058   2.924
 1061TIP3   OH2 3188   2.153   0.856   4.038
 1061TIP3    H1 3189   2.090   0.809   4.092
 1061TIP3    H2 3190   2.223   0.792   4.021
 1062TIP3   OH2 3191   1.067   4.373   2.892
 1062TIP3    H1 3192   1.060   4.277   2.898
 1062TIP3    H2 3193   0.994   4.405   2.946
 1063TIP3   OH2 3194   3.398   2.208   2.208
 1063TIP3    H1 3195   3.476   2.186   2.158
 1063TIP3    H2 3196   3.416   2.295   2.244
 1064TIP3   OH2 3197   4.843   2.344   4.436
 1064TIP3    H1 3198   4.824   2.423   4.488
 1064TIP3    H2 3199   4.783   2.278   4.470
 1065TIP3   OH2 3200   6.010   3.420   4.194
 1065TIP3    H1 3201   6.083   3.441   4.253
 1065TIP3    H2 3202   6.053   3.395   4.112
 1066TIP3   OH2 3203   3.060   5.621   1.069
 1066TIP3    H1 3204   3.048   5.712   1.095
 1066TIP3    H2 3205   3.152   5.603   1.089
 1067TIP3   OH2 3206   6.029   0.206   2.800
 1067TIP3    H1 3207   6.121   0.185   2.817
 1067TIP3    H2 3208   5.988   0.205   2.887
 1068TIP3   OH2 3209   6.009   3.127   3.121
 1068TIP3    H1 3210   5.980   3.110   3.032
 1068TIP3    H2 3211   5.979   3.216   3.140
 1069TIP3   OH2 3212   3.220   0.560   1.678
 1069TIP3    H1 3213   3.164   0.493   1.718
 1069TIP3    H2 3214   3.305   0.549   1.722
 1070TIP3   OH2 3215   1.379   5.599   1.465
 1070TIP3    H1 3216   1.404   5.680   1.509
 1070TIP3    H2 3217   1.461   5.564   1.431
 1071TIP3   OH2 3218   3.410   1.180   3.250
 1071TIP3    H1 3219   3.490   1.130   3.268
 1071TIP3    H2 3220   3.348   1.151   3.316
 1072TIP3   OH2 3221   1.158   5.801   4.559
 1072TIP3    H1 3222   1.160   5.733   4.626
 1072TIP3    H2 3223   1.170   5.754   4.477
 1073TIP3   OH2 3224   5.001   4.816   4.017
 1073TIP3    H1 3225   4.985   4.896   3.967
 1073TIP3    H2 3226   5.038   4.755   3.953
 1074TIP3   OH2 3227   0.918   3.653   2.718
 1074TIP3    H1 3228   1.000   3.637   2.671
 1074TIP3    H2 3229   0.945   3.672   2.808
 1075TIP3   OH2 3230   1.281   4.741   2.835
 1075TIP3    H1 3231   1.188   4.762   2.828
 1075TIP3    H2 3232   1.294   4.718   2.927
 1076TIP3   OH2 3233   5.349   4.368   3.778
 1076TIP3    H1 3234   5.305   4.326   3.704
 1076TIP3    H2 3235   5.357   4.460   3.753
 1077TIP3   OH2 3236   2.664   4.865   1.818
 1077TIP3    H1 3237   2.740   4.814   1.845
 1077TIP3    H2 3238   2.681   4.886   1.726
 1078TIP3   OH2 3239   3.135   1.131   2.211
 1078TIP3    H1 3240   3.227   1.132   2.184
 1078TIP3    H2 3241   3.102   1.217   2.184
 1079TIP3   OH2 3242   3.791   4.814   3.311
 1079TIP3    H1 3243   3.868   4.842   3.261
 1079TIP3    H2 3244   3.821   4.810   3.401
 1080TIP3   OH2 3245   4.094   3.714   0.143
 1080TIP3    H1 3246   4.067   3.669   0.224
 1080TIP3    H2 3247   4.188   3.729   0.155
 1081TIP3   OH2 3248   0.721   5.414   3.983
 1081TIP3    H1 3249   0.643   5.391   3.932
 1081TIP3    H2 3250   0.730   5.342   4.046
 1082TIP3   OH2 3251   2.153   0.385   2.747
 1082TIP3    H1 3252   2.081   0.437   2.709
 1082TIP3    H2 3253   2.112   0.337   2.818
 1083TIP3   OH2 3254   1.389   4.860   4.538
 1083TIP3    H1 3255   1.420   4.807   4.465
 1083TIP3    H2 3256   1.420   4.948   4.519
 1084TIP3   OH2 3257   2.934   5.151   2.649
 1084TIP3    H1 3258   2.910   5.242   2.634
 1084TIP3    H2 3259   2.855   5.110   2.683
 1085TIP3   OH2 3260   5.284   3.459   4.360
 1085TIP3    H1 3261   5.357   3.488   4.415
 1085TIP3    H2 3262   5.257   3.538   4.313
 1086TIP3   OH2 3263   5.833   4.204   2.844
 1086TIP3    H1 3264   5.898   4.135   2.828
 1086TIP3    H2 3265   5.760   4.182   2.787
 1087TIP3   OH2 3266   4.512   1.632   2.517
 1087TIP3    H1 3267   4.507   1.690   2.593
 1087TIP3    H2 3268   4.548   1.687   2.448
 1088TIP3   OH2 3269   2.429   3.453   0.543
 1088TIP3    H1 3270   2.432   3.507   0.623
 1088TIP3    H2 3271   2.393   3.512   0.477
 1089TIP3   OH2 3272   3.748   0.060   2.975
 1089TIP3    H1 3273   3.778   0.120   3.044
 1089TIP3    H2 3274   3.816  -0.007   2.971
 1090TIP3   OH2 3275   5.296   5.544   0.335
 1090TIP3    H1 3276   5.313   5.626   0.288
 1090TIP3    H2 3277   5.383   5.504   0.345
 1091TIP3   OH2 3278   5.479   1.826   3.753
 1091TIP3    H1 3279   5.543   1.896   3.754
 1091TIP3    H2 3280   5.420   1.849   3.681
 1092TIP3   OH2 3281   4.937   5.832   4.836
 1092TIP3    H1 3282   4.995   5.886   4.889
 1092TIP3    H2 3283   4.886   5.782   4.900
 1093TIP3   OH2 3284   0.419   3.023   1.328
 1093TIP3    H1 3285   0.508   3.007   1.296
 1093TIP3    H2 3286   0.428   3.021   1.424
 1094TIP3   OH2 3287   1.493   3.084   0.732
 1094TIP3    H1 3288   1.497   3.067   0.638
 1094TIP3    H2 3289   1.430   3.020   0.766
 1095TIP3   OH2 3290   5.502   1.128   4.987
 1095TIP3    H1 3291   5.595   1.107   4.997
 1095TIP3    H2 3292   5.496   1.220   5.013
 1096TIP3   OH2 3293   0.799   1.858   1.256
 1096TIP3    H1 3294   0.866   1.925   1.239
 1096TIP3    H2 3295   0.848   1.780   1.279
 1097TIP3   OH2 3296   4.405   1.976   4.261
 1097TIP3    H1 3297   4.391   1.968   4.356
 1097TIP3    H2 3298   4.369   1.895   4.225
 1098TIP3   OH2 3299   0.975   4.219   0.116
 1098TIP3    H1 3300   0.883   4.220   0.090
 1098TIP3    H2 3301   1.009   4.137   0.080
 1099TIP3   OH2 3302   1.398   2.188   4.987
 1099TIP3    H1 3303   1.362   2.103   5.014
 1099TIP3    H2 3304   1.321   2.244   4.975
 1100TIP3   OH2 3305   0.858   1.167   2.613
 1100TIP3    H1 3306   0.858   1.088   2.558
 1100TIP3    H2 3307   0.939   1.160   2.664
 1101TIP3   OH2 3308   0.339   4.512   0.800
 1101TIP3    H1 3309   0.332   4.417   0.807
 1101TIP3    H2 3310   0.340   4.543   0.891
 1102TIP3   OH2 3311   2.768   3.441   3.892
 1102TIP3    H1 3312   2.730   3.478   3.972
 1102TIP3    H2 3313   2.696   3.392   3.852
 1103TIP3   OH2 3314   0.173   0.040  -0.014
 1103TIP3    H1 3315   0.078   0.049  -0.002
 1103TIP3    H2 3316   0.210   0.114   0.035
 1104TIP3   OH2 3317   4.566   4.944   2.098
 1104TIP3    H1 3318   4.644   4.893   2.118
 1104TIP3    H2 3319   4.537   4.979   2.183
 1105TIP3   OH2 3320   1.300   2.891   0.770
 1105TIP3    H1 3321   1.250   2.812   0.787
 1105TIP3    H2 3322   1.246   2.940   0.707
 1106TIP3   OH2 3323   0.031   2.431   4.569
 1106TIP3    H1 3324   0.012   2.521   4.595
 1106TIP3    H2 3325   0.042   2.435   4.474
 1107TIP3   OH2 3326   5.674   4.743   1.978
 1107TIP3    H1 3327   5.745   4.780   1.926
 1107TIP3    H2 3328   5.697   4.765   2.069
 1108TIP3   OH2 3329   3.721   2.059   5.119
 1108TIP3    H1 3330   3.804   2.027   5.083
 1108TIP3    H2 3331   3.719   2.023   5.208
 1109TIP3   OH2 3332   5.205   1.178   2.919
 1109TIP3    H1 3333   5.223   1.204   2.828
 1109TIP3    H2 3334   5.122   1.221   2.939
 1110TIP3   OH2 3335   4.583   0.459   0.229
 1110TIP3    H1 3336   4.641   0.515   0.177
 1110TIP3    H2 3337   4.542   0.518   0.292
 1111TIP3   OH2 3338   4.144   5.926   1.367
 1111TIP3    H1 3339   4.061   5.959   1.332
 1111TIP3    H2 3340   4.124   5.901   1.457
 1112TIP3   OH2 3341   0.052   4.094   2.712
 1112TIP3    H1 3342  -0.007   4.152   2.760
 1112TIP3    H2 3343   0.041   4.008   2.753
 1113TIP3   OH2 3344   2.057   3.016   0.036
 1113TIP3    H1 3345   1.993   3.058   0.093
 1113TIP3    H2 3346   2.026   3.037  -0.053
 1114TIP3   OH2 3347   4.278   1.992   4.513
 1114TIP3    H1 3348   4.329   1.919   4.547
 1114TIP3    H2 3349   4.200   1.995   4.569
 1115TIP3   OH2 3350   2.581   5.095   0.624
 1115TIP3    H1 3351   2.504   5.039   0.623
 1115TIP3    H2 3352   2.548   5.181   0.653
 1116TIP3   OH2 3353   0.397   2.744   1.650
 1116TIP3    H1 3354   0.319   2.780   1.608
 1116TIP3    H2 3355   0.364   2.686   1.718
 1117TIP3   OH2 3356   4.756   2.966   3.490
 1117TIP3    H1 3357   4.788   2.978   3.401
 1117TIP3    H2 3358   4.698   2.890   3.484
 1118TIP3   OH2 3359   3.022   3.247   3.038
 1118TIP3    H1 3360   2.927   3.256   3.042
 1118TIP3    H2 3361   3.054   3.291   3.116
 1119TIP3   OH2 3362   0.625   4.498   1.369
 1119TIP3    H1 3363   0.588   4.430   1.313
 1119TIP3    H2 3364   0.719   4.487   1.361
 1120TIP3   OH2 3365   3.556   3.340   3.351
 1120TIP3    H1 3366   3.622   3.308   3.412
 1120TIP3    H2 3367   3.486   3.275   3.356
 1121TIP3   OH2 3368   4.295   0.464   4.185
 1121TIP3    H1 3369   4.342   0.392   4.142
 1121TIP3    H2 3370   4.226   0.421   4.236
 1122TIP3   OH2 3371   5.236   5.811   3.565
 1122TIP3    H1 3372   5.250   5.847   3.652
 1122TIP3    H2 3373   5.141   5.812   3.554
 1123TIP3   OH2 3374   4.051   2.523   4.346
 1123TIP3    H1 3375   3.973   2.567   4.314
 1123TIP3    H2 3376   4.112   2.525   4.273
 1124TIP3   OH2 3377   5.837   5.417   1.641
 1124TIP3    H1 3378   5.857   5.438   1.732
 1124TIP3    H2 3379   5.847   5.322   1.635
 1125TIP3   OH2 3380   0.188   4.396   2.807
 1125TIP3    H1 3381   0.136   4.416   2.885
 1125TIP3    H2 3382   0.201   4.301   2.811
 1126TIP3   OH2 3383   0.294   0.332   1.056
 1126TIP3    H1 3384   0.236   0.268   1.098
 1126TIP3    H2 3385   0.309   0.297   0.968
 1127TIP3   OH2 3386   3.765   0.869   0.665
 1127TIP3    H1 3387   3.813   0.877   0.747
 1127TIP3    H2 3388   3.731   0.780   0.665
 1128TIP3   OH2 3389   1.769   4.018   3.922
 1128TIP3    H1 3390   1.841   3.957   3.905
 1128TIP3    H2 3391   1.714   3.973   3.986
 1129TIP3   OH2 3392   3.748   5.137   3.674
 1129TIP3    H1 3393   3.662   5.105   3.647
 1129TIP3    H2 3394   3.776   5.195   3.603
 1130TIP3   OH2 3395   2.522   4.620   3.981
 1130TIP3    H1 3396   2.545   4.631   4.073
 1130TIP3    H2 3397   2.473   4.699   3.959
 1131TIP3   OH2 3398   1.558   5.047   4.278
 1131TIP3    H1 3399   1.585   5.132   4.314
 1131TIP3    H2 3400   1.630   4.988   4.299
 1132TIP3   OH2 3401   0.409   1.851   3.016
 1132TIP3    H1 3402   0.427   1.873   2.925
 1132TIP3    H2 3403   0.460   1.914   3.067
 1133TIP3   OH2 3404   6.033   0.120   1.260
 1133TIP3    H1 3405   6.008   0.129   1.351
 1133TIP3    H2 3406   5.973   0.178   1.212
 1134TIP3   OH2 3407   3.812   3.244   1.420
 1134TIP3    H1 3408   3.743   3.199   1.371
 1134TIP3    H2 3409   3.806   3.207   1.508
 1135TIP3   OH2 3410   6.044   2.799   2.746
 1135TIP3    H1 3411   6.121   2.853   2.729
 1135TIP3    H2 3412   6.035   2.746   2.667
 1136TIP3   OH2 3413   3.566   1.041   2.855
 1136TIP3    H1 3414   3.639   1.076   2.906
 1136TIP3    H2 3415   3.545   0.958   2.897
 1137TIP3   OH2 3416   1.730   2.206   0.417
 1137TIP3    H1 3417   1.804   2.192   0.358
 1137TIP3    H2 3418   1.708   2.119   0.449
 1138TIP3   OH2 3419   4.424   5.573   3.315
 1138TIP3    H1 3420   4.360   5.631   3.273
 1138TIP3    H2 3421   4.494   5.564   3.251
 1139TIP3   OH2 3422   4.569   5.177   4.266
 1139TIP3    H1 3423   4.614   5.140   4.190
 1139TIP3    H2 3424   4.549   5.267   4.240
 1140TIP3   OH2 3425   1.431   4.332   2.761
 1140TIP3    H1 3426   1.380   4.259   2.797
 1140TIP3    H2 3427   1.519   4.297   2.751
 1141TIP3   OH2 3428   6.199   5.162   1.600
 1141TIP3    H1 3429   6.118   5.211   1.615
 1141TIP3    H2 3430   6.201   5.147   1.505
 1142TIP3   OH2 3431   3.296   1.448   2.529
 1142TIP3    H1 3432   3.335   1.403   2.605
 1142TIP3    H2 3433   3.202   1.444   2.545
 1143TIP3   OH2 3434   0.972   4.143   4.336
 1143TIP3    H1 3435   0.989   4.177   4.248
 1143TIP3    H2 3436   0.889   4.183   4.362
 1144TIP3   OH2 3437   1.355   5.044   1.146
 1144TIP3    H1 3438   1.423   5.065   1.082
 1144TIP3    H2 3439   1.305   4.974   1.104
 1145TIP3   OH2 3440   1.291   0.941   5.042
 1145TIP3    H1 3441   1.378   0.977   5.062
 1145TIP3    H2 3442   1.245   0.941   5.126
 1146TIP3   OH2 3443   1.303   3.645  -0.011
 1146TIP3    H1 3444   1.328   3.716   0.047
 1146TIP3    H2 3445   1.382   3.593  -0.021
 1147TIP3   OH2 3446   5.792   3.915   2.483
 1147TIP3    H1 3447   5.844   3.899   2.405
 1147TIP3    H2 3448   5.735   3.988   2.460
 1148TIP3   OH2 3449   0.526   0.577   0.629
 1148TIP3    H1 3450   0.486   0.656   0.593
 1148TIP3    H2 3451   0.551   0.526   0.551
 1149TIP3   OH2 3452   0.033   2.688   2.130
 1149TIP3    H1 3453  -0.026   2.659   2.200
 1149TIP3    H2 3454   0.040   2.612   2.072
 1150TIP3   OH2 3455   1.809   4.089   3.664
 1150TIP3    H1 3456   1.768   4.010   3.630
 1150TIP3    H2 3457   1.793   4.087   3.758
 1151TIP3   OH2 3458   5.901   5.906   4.437
 1151TIP3    H1 3459   5.974   5.953   4.395
 1151TIP3    H2 3460   5.860   5.858   4.365
 1152TIP3   OH2 3461   4.015   5.585   1.981
 1152TIP3    H1 3462   4.010   5.668   1.933
 1152TIP3    H2 3463   3.929   5.576   2.022
 1153TIP3   OH2 3464   0.911   5.374   4.303
 1153TIP3    H1 3465   0.873   5.459   4.280
 1153TIP3    H2 3466   0.847   5.310   4.275
 1154TIP3   OH2 3467   4.429   4.650   2.048
 1154TIP3    H1 3468   4.439   4.734   2.004
 1154TIP3    H2 3469   4.470   4.662   2.134
 1155TIP3   OH2 3470   0.297   0.077   3.053
 1155TIP3    H1 3471   0.253  -0.005   3.031
 1155TIP3    H2 3472   0.344   0.102   2.973
 1156TIP3   OH2 3473   2.109   1.577   3.234
 1156TIP3    H1 3474   2.030   1.604   3.187
 1156TIP3    H2 3475   2.093   1.485   3.255
 1157TIP3   OH2 3476   3.893   2.397   1.594
 1157TIP3    H1 3477   3.835   2.447   1.536
 1157TIP3    H2 3478   3.888   2.307   1.561
 1158TIP3   OH2 3479   5.592   2.908   3.276
 1158TIP3    H1 3480   5.624   2.820   3.262
 1158TIP3    H2 3481   5.668   2.964   3.264
 1159TIP3   OH2 3482   5.114   4.759   0.844
 1159TIP3    H1 3483   5.130   4.831   0.906
 1159TIP3    H2 3484   5.197   4.749   0.798
 1160TIP3   OH2 3485   0.088   3.748   2.362
 1160TIP3    H1 3486   0.042   3.820   2.405
 1160TIP3    H2 3487   0.018   3.696   2.321
 1161TIP3   OH2 3488   1.375   1.534   3.679
 1161TIP3    H1 3489   1.285   1.512   3.654
 1161TIP3    H2 3490   1.367   1.572   3.766
 1162TIP3   OH2 3491   2.414   4.978   3.327
 1162TIP3    H1 3492   2.358   4.965   3.403
 1162TIP3    H2 3493   2.446   5.068   3.336
 1163TIP3   OH2 3494   6.276   3.751   4.642
 1163TIP3    H1 3495   6.255   3.842   4.659
 1163TIP3    H2 3496   6.337   3.726   4.712
 1164TIP3   OH2 3497   4.391   0.741   2.068
 1164TIP3    H1 3498   4.483   0.765   2.057
 1164TIP3    H2 3499   4.367   0.703   1.983
 1165TIP3   OH2 3500   5.207   4.741   2.768
 1165TIP3    H1 3501   5.204   4.739   2.672
 1165TIP3    H2 3502   5.123   4.707   2.796
 1166TIP3   OH2 3503   4.806   4.433   4.111
 1166TIP3    H1 3504   4.849   4.471   4.035
 1166TIP3    H2 3505   4.748   4.502   4.143
 1167TIP3   OH2 3506   2.028   5.203   3.001
 1167TIP3    H1 3507   1.948   5.174   3.046
 1167TIP3    H2 3508   2.066   5.267   3.061
 1168TIP3   OH2 3509   0.806  -0.010   1.128
 1168TIP3    H1 3510   0.827   0.010   1.037
 1168TIP3    H2 3511   0.891  -0.017   1.172
 1169TIP3   OH2 3512   4.943   3.252   2.602
 1169TIP3    H1 3513   4.976   3.308   2.672
 1169TIP3    H2 3514   4.874   3.200   2.643
 1170TIP3   OH2 3515   4.135   3.961   4.273
 1170TIP3    H1 3516   4.214   3.908   4.271
 1170TIP3    H2 3517   4.065   3.901   4.249
 1171TIP3   OH2 3518   3.510   0.762   3.024
 1171TIP3    H1 3519   3.589   0.734   2.978
 1171TIP3    H2 3520   3.459   0.681   3.035
 1172TIP3   OH2 3521   4.072   4.691   1.398
 1172TIP3    H1 3522   4.016   4.665   1.471
 1172TIP3    H2 3523   4.054   4.626   1.330
 1173TIP3   OH2 3524   3.778   5.018   2.686
 1173TIP3    H1 3525   3.783   5.048   2.777
 1173TIP3    H2 3526   3.749   4.927   2.692
 1174TIP3   OH2 3527   1.678   5.562   2.669
 1174TIP3    H1 3528   1.669   5.475   2.630
 1174TIP3    H2 3529   1.630   5.620   2.610
 1175TIP3   OH2 3530   2.618   1.080   1.310
 1175TIP3    H1 3531   2.589   1.057   1.222
 1175TIP3    H2 3532   2.549   1.137   1.344
 1176TIP3   OH2 3533   5.943   3.850   1.092
 1176TIP3    H1 3534   5.968   3.908   1.020
 1176TIP3    H2 3535   5.891   3.781   1.051
 1177TIP3   OH2 3536   4.198   5.670   2.459
 1177TIP3    H1 3537   4.138   5.599   2.482
 1177TIP3    H2 3538   4.217   5.656   2.367
 1178TIP3   OH2 3539   1.116   3.428   2.367
 1178TIP3    H1 3540   1.156   3.342   2.353
 1178TIP3    H2 3541   1.023   3.414   2.350
 1179TIP3   OH2 3542   1.666   0.095   4.911
 1179TIP3    H1 3543   1.621   0.124   4.832
 1179TIP3    H2 3544   1.736   0.038   4.879
 1180TIP3   OH2 3545   5.231   2.329   0.466
 1180TIP3    H1 3546   5.250   2.402   0.525
 1180TIP3    H2 3547   5.144   2.300   0.491
 1181TIP3   OH2 3548   4.626   4.118   2.926
 1181TIP3    H1 3549   4.711   4.159   2.913
 1181TIP3    H2 3550   4.626   4.091   3.018
 1182TIP3   OH2 3551   6.275   5.756   4.722
 1182TIP3    H1 3552   6.322   5.735   4.803
 1182TIP3    H2 3553   6.184   5.765   4.749
 1183TIP3   OH2 3554   2.629   0.039   1.427
 1183TIP3    H1 3555   2.671   0.123   1.408
 1183TIP3    H2 3556   2.589   0.013   1.344
 1184TIP3   OH2 3557   2.932   2.967   2.396
 1184TIP3    H1 3558   2.996   3.037   2.403
 1184TIP3    H2 3559   2.859   2.995   2.451
 1185TIP3   OH2 3560   0.625   3.798   4.132
 1185TIP3    H1 3561   0.674   3.748   4.067
 1185TIP3    H2 3562   0.659   3.887   4.125
 1186TIP3   OH2 3563   3.331   2.186   4.607
 1186TIP3    H1 3564   3.388   2.261   4.624
 1186TIP3    H2 3565   3.257   2.222   4.558
 1187TIP3   OH2 3566   5.567   0.380   0.496
 1187TIP3    H1 3567   5.584   0.472   0.518
 1187TIP3    H2 3568   5.486   0.382   0.447
 1188TIP3   OH2 3569   0.778   4.028   4.054
 1188TIP3    H1 3570   0.748   4.075   3.976
 1188TIP3    H2 3571   0.857   3.983   4.025
 1189TIP3   OH2 3572   4.765   4.113   1.600
 1189TIP3    H1 3573   4.756   4.209   1.601
 1189TIP3    H2 3574   4.749   4.086   1.690
 1190TIP3   OH2 3575   0.224   3.302   3.233
 1190TIP3    H1 3576   0.182   3.350   3.304
 1190TIP3    H2 3577   0.318   3.314   3.248
 1191TIP3   OH2 3578   3.701   2.587   4.963
 1191TIP3    H1 3579   3.705   2.493   4.980
 1191TIP3    H2 3580   3.650   2.594   4.882
 1192TIP3   OH2 3581   3.481   2.660   0.769
 1192TIP3    H1 3582   3.558   2.716   0.756
 1192TIP3    H2 3583   3.424   2.681   0.695
 1193TIP3   OH2 3584   3.882   4.807   4.107
 1193TIP3    H1 3585   3.835   4.890   4.117
 1193TIP3    H2 3586   3.844   4.768   4.028
 1194TIP3   OH2 3587   1.263   1.983   0.053
 1194TIP3    H1 3588   1.311   1.930   0.117
 1194TIP3    H2 3589   1.314   2.063   0.044
 1195TIP3   OH2 3590   6.253   5.731   0.956
 1195TIP3    H1 3591   6.192   5.700   1.023
 1195TIP3    H2 3592   6.296   5.651   0.925
 1196TIP3   OH2 3593   2.836   1.391   1.162
 1196TIP3    H1 3594   2.762   1.448   1.141
 1196TIP3    H2 3595   2.827   1.373   1.256
 1197TIP3   OH2 3596   4.774   2.340   3.199
 1197TIP3    H1 3597   4.737   2.380   3.278
 1197TIP3    H2 3598   4.868   2.333   3.217
 1198TIP3   OH2 3599   4.399   5.525   2.805
 1198TIP3    H1 3600   4.391   5.620   2.790
 1198TIP3    H2 3601   4.308   5.494   2.810
 1199TIP3   OH2 3602   5.327   1.142   3.730
 1199TIP3    H1 3603   5.368   1.087   3.796
 1199TIP3    H2 3604   5.261   1.086   3.689
 1200TIP3   OH2 3605   1.109   0.699   4.671
 1200TIP3    H1 3606   1.112   0.790   4.701
 1200TIP3    H2 3607   1.194   0.663   4.696
 1201TIP3   OH2 3608   4.281   1.220   1.590
 1201TIP3    H1 3609   4.283   1.126   1.604
 1201TIP3    H2 3610   4.312   1.231   1.500
 1202TIP3   OH2 3611   2.241   4.405   0.387
 1202TIP3    H1 3612   2.279   4.390   0.473
 1202TIP3    H2 3613   2.300   4.360   0.326
 1203TIP3   OH2 3614   3.039   2.874   0.571
 1203TIP3    H1 3615   3.024   2.954   0.521
 1203TIP3    H2 3616   2.999   2.891   0.656
 1204TIP3   OH2 3617   3.873   4.897   3.573
 1204TIP3    H1 3618   3.876   4.986   3.538
 1204TIP3    H2 3619   3.782   4.886   3.603
 1205TIP3   OH2 3620   5.828   2.103   0.278
 1205TIP3    H1 3621   5.897   2.110   0.213
 1205TIP3    H2 3622   5.849   2.023   0.326
 1206TIP3   OH2 3623   4.826   2.204   0.021
 1206TIP3    H1 3624   4.834   2.109   0.019
 1206TIP3    H2 3625   4.888   2.233   0.088
 1207TIP3   OH2 3626   4.001   0.431   2.431
 1207TIP3    H1 3627   3.934   0.483   2.387
 1207TIP3    H2 3628   4.084   0.459   2.391
 1208TIP3   OH2 3629   3.839   2.680   4.235
 1208TIP3    H1 3630   3.760   2.637   4.203
 1208TIP3    H2 3631   3.819   2.773   4.232
 1209TIP3   OH2 3632   2.531   3.866   3.568
 1209TIP3    H1 3633   2.604   3.925   3.585
 1209TIP3    H2 3634   2.560   3.782   3.604
 1210TIP3   OH2 3635   3.628   5.474   0.174
 1210TIP3    H1 3636   3.544   5.449   0.212
 1210TIP3    H2 3637   3.682   5.395   0.182
 1211TIP3   OH2 3638   6.046   2.558   0.853
 1211TIP3    H1 3639   6.105   2.623   0.814
 1211TIP3    H2 3640   6.068   2.559   0.946
 1212TIP3   OH2 3641   3.047   3.891   4.633
 1212TIP3    H1 3642   3.066   3.833   4.707
 1212TIP3    H2 3643   3.086   3.974   4.658
 1213TIP3   OH2 3644   3.695   3.979   2.349
 1213TIP3    H1 3645   3.670   3.890   2.373
 1213TIP3    H2 3646   3.624   4.033   2.383
 1214TIP3   OH2 3647   2.865   4.157   2.740
 1214TIP3    H1 3648   2.815   4.118   2.812
 1214TIP3    H2 3649   2.798   4.187   2.679
 1215TIP3   OH2 3650   2.194   2.417   3.167
 1215TIP3    H1 3651   2.245   2.343   3.198
 1215TIP3    H2 3652   2.256   2.469   3.115
 1216TIP3   OH2 3653   1.397   3.678   4.623
 1216TIP3    H1 3654   1.363   3.711   4.540
 1216TIP3    H2 3655   1.394   3.583   4.614
 1217TIP3   OH2 3656   3.596   0.013   1.381
 1217TIP3    H1 3657   3.670   0.058   1.341
 1217TIP3    H2 3658   3.519   0.044   1.333
 1218TIP3   OH2 3659   2.839   2.243   2.888
 1218TIP3    H1 3660   2.921   2.245   2.840
 1218TIP3    H2 3661   2.789   2.171   2.848
 1219TIP3   OH2 3662   5.888   4.980   1.264
 1219TIP3    H1 3663   5.972   5.003   1.304
 1219TIP3    H2 3664   5.865   4.895   1.302
 1220TIP3   OH2 3665   2.254   1.928   4.800
 1220TIP3    H1 3666   2.291   2.002   4.849
 1220TIP3    H2 3667   2.162   1.927   4.826
 1221TIP3   OH2 3668   3.798   5.951   2.373
 1221TIP3    H1 3669   3.809   5.940   2.278
 1221TIP3    H2 3670   3.722   6.009   2.381
 1222TIP3   OH2 3671   5.352   5.018   0.241
 1222TIP3    H1 3672   5.366   4.925   0.223
 1222TIP3    H2 3673   5.378   5.030   0.332
 1223TIP3   OH2 3674   1.271   4.528   5.072
 1223TIP3    H1 3675   1.254   4.483   4.990
 1223TIP3    H2 3676   1.187   4.569   5.095
 1224TIP3   OH2 3677   4.181   4.756   3.438
 1224TIP3    H1 3678   4.127   4.704   3.498
 1224TIP3    H2 3679   4.271   4.737   3.464
 1225TIP3   OH2 3680   5.720   1.967   3.370
 1225TIP3    H1 3681   5.753   1.900   3.310
 1225TIP3    H2 3682   5.627   1.948   3.378
 1226TIP3   OH2 3683   6.161   0.435   1.924
 1226TIP3    H1 3684   6.184   0.479   2.005
 1226TIP3    H2 3685   6.144   0.505   1.862
 1227TIP3   OH2 3686   3.861   1.475   1.111
 1227TIP3    H1 3687   3.887   1.384   1.122
 1227TIP3    H2 3688   3.867   1.512   1.199
 1228TIP3   OH2 3689   0.988   2.932   2.919
 1228TIP3    H1 3690   0.929   2.871   2.963
 1228TIP3    H2 3691   1.047   2.962   2.988
 1229TIP3   OH2 3692   5.825   1.413   2.918
 1229TIP3    H1 3693   5.825   1.349   2.989
 1229TIP3    H2 3694   5.732   1.435   2.905
 1230TIP3   OH2 3695   5.009   3.826   3.149
 1230TIP3    H1 3696   5.028   3.900   3.206
 1230TIP3    H2 3697   4.914   3.827   3.139
 1231TIP3   OH2 3698   2.945   0.804   4.542
 1231TIP3    H1 3699   2.971   0.891   4.574
 1231TIP3    H2 3700   3.027   0.765   4.512
 1232TIP3   OH2 3701   1.589   0.448   3.347
 1232TIP3    H1 3702   1.614   0.414   3.261
 1232TIP3    H2 3703   1.534   0.379   3.385
 1233TIP3   OH2 3704   4.590   5.147   2.334
 1233TIP3    H1 3705   4.684   5.129   2.332
 1233TIP3    H2 3706   4.577   5.215   2.269
 1234TIP3   OH2 3707   3.592   3.591   3.855
 1234TIP3    H1 3708   3.549   3.644   3.788
 1234TIP3    H2 3709   3.615   3.653   3.923
 1235TIP3   OH2 3710   2.392   3.645   0.161
 1235TIP3    H1 3711   2.376   3.567   0.109
 1235TIP3    H2 3712   2.462   3.691   0.115
 1236TIP3   OH2 3713   0.353   1.937   1.353
 1236TIP3    H1 3714   0.312   2.015   1.390
 1236TIP3    H2 3715   0.308   1.922   1.270
 1237TIP3   OH2 3716   6.121   3.701   0.702
 1237TIP3    H1 3717   6.188   3.757   0.742
 1237TIP3    H2 3718   6.078   3.658   0.776
 1238TIP3   OH2 3719   4.470   1.143   1.144
 1238TIP3    H1 3720   4.397   1.205   1.151
 1238TIP3    H2 3721   4.524   1.178   1.073
 1239TIP3   OH2 3722   2.926   1.205   2.430
 1239TIP3    H1 3723   2.872   1.146   2.483
 1239TIP3    H2 3724   2.921   1.169   2.341
 1240TIP3   OH2 3725   1.559   5.039   2.473
 1240TIP3    H1 3726   1.531   4.963   2.524
 1240TIP3    H2 3727   1.645   5.015   2.439
 1241TIP3   OH2 3728   5.091   2.643   3.226
 1241TIP3    H1 3729   5.105   2.735   3.246
 1241TIP3    H2 3730   5.022   2.643   3.160
 1242TIP3   OH2 3731   3.806   0.328   2.217
 1242TIP3    H1 3732   3.744   0.286   2.157
 1242TIP3    H2 3733   3.754   0.347   2.295
 1243TIP3   OH2 3734   4.166   2.807   4.626
 1243TIP3    H1 3735   4.179   2.714   4.609
 1243TIP3    H2 3736   4.246   2.848   4.593
 1244TIP3   OH2 3737   6.307   3.597   0.955
 1244TIP3    H1 3738   6.339   3.537   0.887
 1244TIP3    H2 3739   6.336   3.683   0.925
 1245TIP3   OH2 3740   5.539   5.587   4.776
 1245TIP3    H1 3741   5.455   5.544   4.756
 1245TIP3    H2 3742   5.541   5.663   4.718
 1246TIP3   OH2 3743   6.264   4.734   0.497
 1246TIP3    H1 3744   6.240   4.827   0.495
 1246TIP3    H2 3745   6.356   4.734   0.524
 1247TIP3   OH2 3746   2.576   5.502   0.590
 1247TIP3    H1 3747   2.593   5.553   0.668
 1247TIP3    H2 3748   2.577   5.565   0.518
 1248TIP3   OH2 3749   1.520   0.711   0.311
 1248TIP3    H1 3750   1.467   0.632   0.302
 1248TIP3    H2 3751   1.491   0.768   0.239
 1249TIP3   OH2 3752   0.209   2.884   1.534
 1249TIP3    H1 3753   0.239   2.900   1.445
 1249TIP3    H2 3754   0.119   2.916   1.536
 1250TIP3   OH2 3755   4.638   4.922   4.478
 1250TIP3    H1 3756   4.732   4.919   4.460
 1250TIP3    H2 3757   4.624   4.857   4.546
 1251TIP3   OH2 3758   5.936   0.138   3.884
 1251TIP3    H1 3759   5.977   0.184   3.958
 1251TIP3    H2 3760   5.887   0.206   3.838
 1252TIP3   OH2 3761   2.434   1.924   2.079
 1252TIP3    H1 3762   2.498   1.862   2.045
 1252TIP3    H2 3763   2.446   2.003   2.026
 1253TIP3   OH2 3764   5.482   4.151   4.968
 1253TIP3    H1 3765   5.554   4.191   5.018
 1253TIP3    H2 3766   5.519   4.068   4.936
 1254TIP3   OH2 3767   3.616   0.923   3.867
 1254TIP3    H1 3768   3.660   0.922   3.952
 1254TIP3    H2 3769   3.683   0.893   3.805
 1255TIP3   OH2 3770   0.936   1.016   2.263
 1255TIP3    H1 3771   0.885   1.096   2.251
 1255TIP3    H2 3772   0.881   0.948   2.224
 1256TIP3   OH2 3773   0.770   5.474   3.567
 1256TIP3    H1 3774   0.853   5.500   3.608
 1256TIP3    H2 3775   0.710   5.546   3.585
 1257TIP3   OH2 3776   2.415   2.837   0.903
 1257TIP3    H1 3777   2.399   2.891   0.980
 1257TIP3    H2 3778   2.376   2.753   0.923
 1258TIP3   OH2 3779   6.115   4.967   4.040
 1258TIP3    H1 3780   6.104   5.023   4.116
 1258TIP3    H2 3781   6.181   4.903   4.067
 1259TIP3   OH2 3782   5.286   5.995   2.548
 1259TIP3    H1 3783   5.274   5.911   2.503
 1259TIP3    H2 3784   5.197   6.028   2.563
 1260TIP3   OH2 3785   1.477   4.084   4.992
 1260TIP3    H1 3786   1.548   4.020   4.983
 1260TIP3    H2 3787   1.407   4.036   5.037
 1261TIP3   OH2 3788   3.006   3.897   2.933
 1261TIP3    H1 3789   2.962   3.973   2.971
 1261TIP3    H2 3790   3.026   3.841   3.008
 1262TIP3   OH2 3791   6.265   1.771   1.890
 1262TIP3    H1 3792   6.281   1.839   1.825
 1262TIP3    H2 3793   6.179   1.792   1.927
 1263TIP3   OH2 3794   4.314   2.671   2.381
 1263TIP3    H1 3795   4.267   2.690   2.462
 1263TIP3    H2 3796   4.375   2.601   2.405
 1264TIP3   OH2 3797   1.511   0.440   1.895
 1264TIP3    H1 3798   1.441   0.430   1.830
 1264TIP3    H2 3799   1.540   0.351   1.913
 1265TIP3   OH2 3800   1.079   4.255   3.808
 1265TIP3    H1 3801   1.031   4.177   3.781
 1265TIP3    H2 3802   1.085   4.308   3.729
 1266TIP3   OH2 3803   2.770   5.934   2.513
 1266TIP3    H1 3804   2.745   6.016   2.557
 1266TIP3    H2 3805   2.771   5.869   2.583
 1267TIP3   OH2 3806   0.810   3.089   0.265
 1267TIP3    H1 3807   0.883   3.038   0.299
 1267TIP3    H2 3808   0.767   3.125   0.342
 1268TIP3   OH2 3809   2.160   2.102   3.466
 1268TIP3    H1 3810   2.119   2.016   3.456
 1268TIP3    H2 3811   2.247   2.083   3.502
 1269TIP3   OH2 3812   0.474   4.291   1.273
 1269TIP3    H1 3813   0.478   4.210   1.223
 1269TIP3    H2 3814   0.387   4.327   1.253
 1270TIP3   OH2 3815   5.801   4.598   1.628
 1270TIP3    H1 3816   5.731   4.533   1.627
 1270TIP3    H2 3817   5.878   4.551   1.598
 1271TIP3   OH2 3818   1.186   1.813   4.190
 1271TIP3    H1 3819   1.138   1.884   4.232
 1271TIP3    H2 3820   1.124   1.740   4.186
 1272TIP3   OH2 3821   3.886   0.700   0.026
 1272TIP3    H1 3822   3.886   0.788   0.063
 1272TIP3    H2 3823   3.973   0.689  -0.011
 1273TIP3   OH2 3824   2.965   5.813   2.336
 1273TIP3    H1 3825   2.954   5.862   2.255
 1273TIP3    H2 3826   2.875   5.794   2.365
 1274TIP3   OH2 3827   0.539   0.527   1.120
 1274TIP3    H1 3828   0.504   0.438   1.120
 1274TIP3    H2 3829   0.567   0.542   1.030
 1275TIP3   OH2 3830   5.785   4.943   4.539
 1275TIP3    H1 3831   5.827   4.860   4.562
 1275TIP3    H2 3832   5.756   4.979   4.622
 1276TIP3   OH2 3833   3.547   2.801   4.144
 1276TIP3    H1 3834   3.616   2.848   4.096
 1276TIP3    H2 3835   3.529   2.856   4.220
 1277TIP3   OH2 3836   0.869   2.897   4.804
 1277TIP3    H1 3837   0.829   2.811   4.813
 1277TIP3    H2 3838   0.838   2.928   4.718
 1278TIP3   OH2 3839   4.536   1.972   3.646
 1278TIP3    H1 3840   4.448   1.939   3.667
 1278TIP3    H2 3841   4.561   2.022   3.724
 1279TIP3   OH2 3842   1.671   2.239   4.355
 1279TIP3    H1 3843   1.735   2.201   4.415
 1279TIP3    H2 3844   1.715   2.241   4.270
 1280TIP3   OH2 3845   2.616   4.510   2.026
 1280TIP3    H1 3846   2.592   4.555   1.945
 1280TIP3    H2 3847   2.708   4.531   2.039
 1281TIP3   OH2 3848   3.812   1.505   3.385
 1281TIP3    H1 3849   3.795   1.560   3.309
 1281TIP3    H2 3850   3.726   1.474   3.412
 1282TIP3   OH2 3851   2.529   3.464   1.398
 1282TIP3    H1 3852   2.454   3.408   1.418
 1282TIP3    H2 3853   2.524   3.535   1.462
 1283TIP3   OH2 3854   0.662   3.112   0.512
 1283TIP3    H1 3855   0.608   3.042   0.478
 1283TIP3    H2 3856   0.605   3.189   0.511
 1284TIP3   OH2 3857   4.768   0.374   1.637
 1284TIP3    H1 3858   4.750   0.283   1.658
 1284TIP3    H2 3859   4.744   0.383   1.545
 1285TIP3   OH2 3860   2.088   2.987   4.756
 1285TIP3    H1 3861   2.017   2.970   4.817
 1285TIP3    H2 3862   2.052   2.964   4.670
 1286TIP3   OH2 3863   1.312   1.318   0.974
 1286TIP3    H1 3864   1.285   1.336   1.064
 1286TIP3    H2 3865   1.362   1.236   0.980
 1287TIP3   OH2 3866   2.774   1.361   2.193
 1287TIP3    H1 3867   2.715   1.377   2.266
 1287TIP3    H2 3868   2.861   1.361   2.232
 1288TIP3   OH2 3869   1.618   1.169   2.825
 1288TIP3    H1 3870   1.565   1.125   2.759
 1288TIP3    H2 3871   1.554   1.199   2.890
 1289TIP3   OH2 3872   2.283   4.842   3.133
 1289TIP3    H1 3873   2.203   4.826   3.182
 1289TIP3    H2 3874   2.343   4.879   3.197
 1290TIP3   OH2 3875   6.113   5.041   2.237
 1290TIP3    H1 3876   6.081   5.000   2.157
 1290TIP3    H2 3877   6.087   4.981   2.307
 1291TIP3   OH2 3878   1.650   3.488   4.096
 1291TIP3    H1 3879   1.597   3.504   4.018
 1291TIP3    H2 3880   1.692   3.403   4.080
 1292TIP3   OH2 3881   2.526   1.372   1.989
 1292TIP3    H1 3882   2.432   1.376   2.004
 1292TIP3    H2 3883   2.564   1.353   2.075
 1293TIP3   OH2 3884   5.027   3.123   0.894
 1293TIP3    H1 3885   5.064   3.185   0.956
 1293TIP3    H2 3886   4.966   3.174   0.842
 1294TIP3   OH2 3887   3.371   3.888   4.577
 1294TIP3    H1 3888   3.315   3.945   4.630
 1294TIP3    H2 3889   3.321   3.874   4.497
 1295TIP3   OH2 3890   2.948   2.805   2.040
 1295TIP3    H1 3891   3.042   2.785   2.033
 1295TIP3    H2 3892   2.914   2.789   1.952
 1296TIP3   OH2 3893   0.531   3.075   1.867
 1296TIP3    H1 3894   0.514   3.168   1.854
 1296TIP3    H2 3895   0.548   3.067   1.961
 1297TIP3   OH2 3896   5.694   1.400   1.866
 1297TIP3    H1 3897   5.762   1.332   1.862
 1297TIP3    H2 3898   5.725   1.467   1.805
 1298TIP3   OH2 3899   5.773   2.868   3.012
 1298TIP3    H1 3900   5.759   2.773   3.018
 1298TIP3    H2 3901   5.868   2.878   3.018
 1299TIP3   OH2 3902   0.091   3.846   1.729
 1299TIP3    H1 3903   0.146   3.784   1.777
 1299TIP3    H2 3904   0.149   3.919   1.709
 1300TIP3   OH2 3905   4.607   3.813   1.774
 1300TIP3    H1 3906   4.588   3.766   1.855
 1300TIP3    H2 3907   4.672   3.878   1.799
 1301TIP3   OH2 3908   1.423   3.152   4.186
 1301TIP3    H1 3909   1.447   3.070   4.228
 1301TIP3    H2 3910   1.498   3.173   4.130
 1302TIP3   OH2 3911   5.521   2.117   4.360
 1302TIP3    H1 3912   5.562   2.032   4.345
 1302TIP3    H2 3913   5.592   2.174   4.388
 1303TIP3   OH2 3914   1.017   2.360   4.499
 1303TIP3    H1 3915   0.996   2.297   4.567
 1303TIP3    H2 3916   1.081   2.419   4.539
 1304TIP3   OH2 3917   5.279   3.618   3.568
 1304TIP3    H1 3918   5.268   3.546   3.630
 1304TIP3    H2 3919   5.335   3.583   3.499
 1305TIP3   OH2 3920   6.101   4.648   4.046
 1305TIP3    H1 3921   6.195   4.664   4.055
 1305TIP3    H2 3922   6.062   4.691   4.122
 1306TIP3   OH2 3923   1.891   3.990   2.693
 1306TIP3    H1 3924   1.819   3.946   2.737
 1306TIP3    H2 3925   1.939   4.035   2.763
 1307TIP3   OH2 3926   5.659   1.384   3.882
 1307TIP3    H1 3927   5.639   1.312   3.942
 1307TIP3    H2 3928   5.625   1.462   3.927
 1308TIP3   OH2 3929   2.163   4.849   1.489
 1308TIP3    H1 3930   2.118   4.931   1.511
 1308TIP3    H2 3931   2.240   4.848   1.546
 1309TIP3   OH2 3932   3.695   1.863   1.393
 1309TIP3    H1 3933   3.674   1.887   1.483
 1309TIP3    H2 3934   3.683   1.944   1.343
 1310TIP3   OH2 3935   5.926   4.274   4.667
 1310TIP3    H1 3936   5.911   4.346   4.728
 1310TIP3    H2 3937   5.846   4.222   4.671
 1311TIP3   OH2 3938   3.662   3.987   1.565
 1311TIP3    H1 3939   3.711   4.069   1.558
 1311TIP3    H2 3940   3.579   4.012   1.606
 1312TIP3   OH2 3941   0.414   4.867   1.679
 1312TIP3    H1 3942   0.398   4.936   1.615
 1312TIP3    H2 3943   0.508   4.852   1.675
 1313TIP3   OH2 3944   4.421   3.383   3.323
 1313TIP3    H1 3945   4.458   3.400   3.237
 1313TIP3    H2 3946   4.476   3.432   3.383
 1314TIP3   OH2 3947   1.725   1.214   3.887
 1314TIP3    H1 3948   1.711   1.122   3.912
 1314TIP3    H2 3949   1.736   1.212   3.792
 1315TIP3   OH2 3950   3.695   2.822   2.353
 1315TIP3    H1 3951   3.609   2.843   2.388
 1315TIP3    H2 3952   3.751   2.893   2.385
 1316TIP3   OH2 3953   3.980   3.814   2.084
 1316TIP3    H1 3954   3.894   3.788   2.050
 1316TIP3    H2 3955   3.973   3.909   2.096
 1317TIP3   OH2 3956   4.617   5.527   3.142
 1317TIP3    H1 3957   4.705   5.504   3.172
 1317TIP3    H2 3958   4.592   5.454   3.085
 1318TIP3   OH2 3959   3.813   3.889   3.582
 1318TIP3    H1 3960   3.904   3.882   3.611
 1318TIP3    H2 3961   3.818   3.886   3.487
 1319TIP3   OH2 3962   1.633   4.488   0.672
 1319TIP3    H1 3963   1.576   4.446   0.607
 1319TIP3    H2 3964   1.722   4.473   0.640
 1320TIP3   OH2 3965   0.505   5.191   3.070
 1320TIP3    H1 3966   0.530   5.284   3.063
 1320TIP3    H2 3967   0.418   5.193   3.110
 1321TIP3   OH2 3968   2.731   5.241   4.289
 1321TIP3    H1 3969   2.792   5.174   4.260
 1321TIP3    H2 3970   2.762   5.265   4.377
 1322TIP3   OH2 3971   5.623   1.795   2.233
 1322TIP3    H1 3972   5.657   1.736   2.166
 1322TIP3    H2 3973   5.701   1.831   2.275
 1323TIP3   OH2 3974   0.807   4.997   3.557
 1323TIP3    H1 3975   0.728   4.963   3.600
 1323TIP3    H2 3976   0.775   5.039   3.478
 1324TIP3   OH2 3977   4.342   0.565   3.250
 1324TIP3    H1 3978   4.311   0.588   3.338
 1324TIP3    H2 3979   4.435   0.590   3.250
 1325TIP3   OH2 3980   4.232   4.173   0.641
 1325TIP3    H1 3981   4.182   4.102   0.602
 1325TIP3    H2 3982   4.272   4.218   0.567
 1326TIP3   OH2 3983   3.059   3.056   3.799
 1326TIP3    H1 3984   3.037   3.120   3.731
 1326TIP3    H2 3985   3.049   2.971   3.756
 1327TIP3   OH2 3986   5.236   1.273   2.667
 1327TIP3    H1 3987   5.298   1.223   2.614
 1327TIP3    H2 3988   5.250   1.364   2.640
 1328TIP3   OH2 3989   5.644   0.532   3.796
 1328TIP3    H1 3990   5.681   0.521   3.708
 1328TIP3    H2 3991   5.689   0.608   3.832
 1329TIP3   OH2 3992   2.477   0.263   1.617
 1329TIP3    H1 3993   2.544   0.311   1.665
 1329TIP3    H2 3994   2.511   0.259   1.527
 1330TIP3   OH2 3995   4.047   0.231   2.147
 1330TIP3    H1 3996   3.961   0.267   2.169
 1330TIP3    H2 3997   4.032   0.137   2.135
 1331TIP3   OH2 3998   4.437   3.013   1.423
 1331TIP3    H1 3999   4.345   2.996   1.440
 1331TIP3    H2 4000   4.466   2.939   1.370
 1332TIP3   OH2 4001   3.561   3.015   0.110
 1332TIP3    H1 4002   3.592   2.957   0.040
 1332TIP3    H2 4003   3.624   3.087   0.112
 1333TIP3   OH2 4004   5.073   1.158   1.067
 1333TIP3    H1 4005   5.146   1.207   1.106
 1333TIP3    H2 4006   5.107   1.069   1.058
 1334TIP3   OH2 4007   5.515   5.741   1.026
 1334TIP3    H1 4008   5.558   5.712   1.107
 1334TIP3    H2 4009   5.586   5.775   0.973
 1335TIP3   OH2 4010   0.171   0.762   1.267
 1335TIP3    H1 4011   0.096   0.710   1.237
 1335TIP3    H2 4012   0.133   0.846   1.294
 1336TIP3   OH2 4013   4.324   5.484   1.353
 1336TIP3    H1 4014   4.300   5.567   1.395
 1336TIP3    H2 4015   4.357   5.510   1.267
 1337TIP3   OH2 4016   3.812   5.250   0.141
 1337TIP3    H1 4017   3.861   5.171   0.118
 1337TIP3    H2 4018   3.827   5.309   0.068
 1338TIP3   OH2 4019   4.519   5.304   3.006
 1338TIP3    H1 4020   4.474   5.350   2.935
 1338TIP3    H2 4021   4.453   5.245   3.042
 1339TIP3   OH2 4022   4.209   1.391   1.044
 1339TIP3    H1 4023   4.136   1.359   1.096
 1339TIP3    H2 4024   4.168   1.448   0.979
 1340TIP3   OH2 4025   2.590   5.067   2.950
 1340TIP3    H1 4026   2.640   5.124   2.891
 1340TIP3    H2 4027   2.508   5.114   2.965
 1341TIP3   OH2 4028   0.072   1.692   3.179
 1341TIP3    H1 4029   0.007   1.687   3.109
 1341TIP3    H2 4030   0.123   1.611   3.169
 1342TIP3   OH2 4031   5.358   2.767   3.107
 1342TIP3    H1 4032   5.386   2.683   3.069
 1342TIP3    H2 4033   5.438   2.804   3.144
 1343TIP3   OH2 4034   2.002   3.222   3.973
 1343TIP3    H1 4035   2.004   3.136   3.930
 1343TIP3    H2 4036   1.956   3.207   4.055
 1344TIP3   OH2 4037   5.318   5.443   4.694
 1344TIP3    H1 4038   5.312   5.352   4.665
 1344TIP3    H2 4039   5.238   5.484   4.663
 1345TIP3   OH2 4040   2.145   1.366   3.672
 1345TIP3    H1 4041   2.133   1.461   3.670
 1345TIP3    H2 4042   2.227   1.354   3.720
 1346TIP3   OH2 4043   4.678   2.240   3.711
 1346TIP3    H1 4044   4.619   2.239   3.636
 1346TIP3    H2 4045   4.668   2.328   3.748
 1347TIP3   OH2 4046   2.145   5.242   4.988
 1347TIP3    H1 4047   2.082   5.313   4.999
 1347TIP3    H2 4048   2.225   5.286   4.961
 1348TIP3   OH2 4049   6.146   4.071   0.979
 1348TIP3    H1 4050   6.075   4.035   0.925
 1348TIP3    H2 4051   6.103   4.130   1.039
 1349TIP3   OH2 4052   3.865   2.570   4.600
 1349TIP3    H1 4053   3.876   2.546   4.508
 1349TIP3    H2 4054   3.854   2.486   4.645
 1350TIP3   OH2 4055   1.130   0.922   4.824
 1350TIP3    H1 4056   1.142   1.002   4.774
 1350TIP3    H2 4057   1.189   0.931   4.899
 1351TIP3   OH2 4058   0.718   2.258   5.009
 1351TIP3    H1 4059   0.653   2.228   4.945
 1351TIP3    H2 4060   0.783   2.305   4.957
 1352TIP3   OH2 4061   3.461   5.174   1.345
 1352TIP3    H1 4062   3.427   5.215   1.265
 1352TIP3    H2 4063   3.552   5.151   1.323
 1353TIP3   OH2 4064   3.858   3.640   2.705
 1353TIP3    H1 4065   3.802   3.614   2.632
 1353TIP3    H2 4066   3.828   3.728   2.729
 1354TIP3   OH2 4067   2.413   3.775   3.322
 1354TIP3    H1 4068   2.421   3.823   3.405
 1354TIP3    H2 4069   2.439   3.686   3.344
 1355TIP3   OH2 4070   3.798   0.167   1.265
 1355TIP3    H1 4071   3.768   0.248   1.307
 1355TIP3    H2 4072   3.836   0.195   1.182
 1356TIP3   OH2 4073   1.517   4.396   2.441
 1356TIP3    H1 4074   1.544   4.319   2.492
 1356TIP3    H2 4075   1.470   4.451   2.504
 1357TIP3   OH2 4076   4.167   1.927   1.926
 1357TIP3    H1 4077   4.157   1.916   2.020
 1357TIP3    H2 4078   4.253   1.890   1.906
 1358TIP3   OH2 4079   3.576   2.275   3.369
 1358TIP3    H1 4080   3.543   2.188   3.389
 1358TIP3    H2 4081   3.512   2.335   3.407
 1359TIP3   OH2 4082   2.683   1.423   2.434
 1359TIP3    H1 4083   2.647   1.385   2.514
 1359TIP3    H2 4084   2.639   1.508   2.426
 1360TIP3   OH2 4085   0.396   1.786   0.689
 1360TIP3    H1 4086   0.446   1.741   0.757
 1360TIP3    H2 4087   0.462   1.818   0.627
 1361TIP3   OH2 4088   3.036   5.519   0.592
 1361TIP3    H1 4089   3.050   5.613   0.580
 1361TIP3    H2 4090   2.998   5.511   0.679
 1362TIP3   OH2 4091   0.608   4.716   1.874
 1362TIP3    H1 4092   0.527   4.749   1.912
 1362TIP3    H2 4093   0.579   4.664   1.798
 1363TIP3   OH2 4094   5.734   5.794   0.871
 1363TIP3    H1 4095   5.710   5.836   0.788
 1363TIP3    H2 4096   5.795   5.855   0.912
 1364TIP3   OH2 4097   4.109   5.165   1.758
 1364TIP3    H1 4098   4.132   5.249   1.716
 1364TIP3    H2 4099   4.135   5.099   1.694
 1365TIP3   OH2 4100   3.143   5.151   3.625
 1365TIP3    H1 4101   3.100   5.235   3.642
 1365TIP3    H2 4102   3.157   5.113   3.711
 1366TIP3   OH2 4103   4.418   2.105   3.856
 1366TIP3    H1 4104   4.338   2.101   3.908
 1366TIP3    H2 4105   4.483   2.143   3.915
 1367TIP3   OH2 4106   1.882   3.804   4.717
 1367TIP3    H1 4107   1.866   3.718   4.679
 1367TIP3    H2 4108   1.823   3.863   4.670
 1368TIP3   OH2 4109   0.364   4.332   4.830
 1368TIP3    H1 4110   0.370   4.238   4.848
 1368TIP3    H2 4111   0.331   4.370   4.912
 1369TIP3   OH2 4112   2.512   5.447   1.022
 1369TIP3    H1 4113   2.583   5.415   1.078
 1369TIP3    H2 4114   2.476   5.522   1.069
 1370TIP3   OH2 4115   2.414   3.116   4.410
 1370TIP3    H1 4116   2.448   3.117   4.500
 1370TIP3    H2 4117   2.459   3.188   4.366
 1371TIP3   OH2 4118   5.643   4.178   4.655
 1371TIP3    H1 4119   5.556   4.208   4.632
 1371TIP3    H2 4120   5.629   4.101   4.710
 1372TIP3   OH2 4121   2.265   3.252   1.144
 1372TIP3    H1 4122   2.208   3.322   1.112
 1372TIP3    H2 4123   2.271   3.191   1.070
 1373TIP3   OH2 4124   2.887   0.838   1.414
 1373TIP3    H1 4125   2.825   0.814   1.483
 1373TIP3    H2 4126   2.958   0.774   1.422
 1374TIP3   OH2 4127   1.973   5.630   2.498
 1374TIP3    H1 4128   1.929   5.559   2.452
 1374TIP3    H2 4129   2.038   5.586   2.553
 1375TIP3   OH2 4130   2.779   3.047   4.647
 1375TIP3    H1 4131   2.777   3.142   4.656
 1375TIP3    H2 4132   2.839   3.032   4.574
 1376TIP3   OH2 4133   3.655   0.630   2.135
 1376TIP3    H1 4134   3.741   0.663   2.161
 1376TIP3    H2 4135   3.645   0.548   2.184
 1377TIP3   OH2 4136   2.477   3.850   1.873
 1377TIP3    H1 4137   2.481   3.882   1.963
 1377TIP3    H2 4138   2.430   3.767   1.878
 1378TIP3   OH2 4139   2.320   5.423   3.044
 1378TIP3    H1 4140   2.361   5.365   2.980
 1378TIP3    H2 4141   2.392   5.477   3.076
 1379TIP3   OH2 4142   1.493   5.690   4.717
 1379TIP3    H1 4143   1.574   5.700   4.666
 1379TIP3    H2 4144   1.447   5.618   4.674
 1380TIP3   OH2 4145   5.057   3.331   3.297
 1380TIP3    H1 4146   5.092   3.420   3.298
 1380TIP3    H2 4147   4.995   3.329   3.370
 1381TIP3   OH2 4148   0.844   5.835   0.430
 1381TIP3    H1 4149   0.909   5.895   0.393
 1381TIP3    H2 4150   0.784   5.816   0.357
 1382TIP3   OH2 4151   5.942   0.342   0.145
 1382TIP3    H1 4152   5.900   0.335   0.059
 1382TIP3    H2 4153   5.911   0.265   0.193
 1383TIP3   OH2 4154   1.750   3.435   0.091
 1383TIP3    H1 4155   1.792   3.380   0.156
 1383TIP3    H2 4156   1.817   3.500   0.067
 1384TIP3   OH2 4157   5.141   2.552   4.317
 1384TIP3    H1 4158   5.170   2.463   4.337
 1384TIP3    H2 4159   5.054   2.541   4.279
 1385TIP3   OH2 4160   1.262   1.510   4.173
 1385TIP3    H1 4161   1.254   1.518   4.078
 1385TIP3    H2 4162   1.320   1.582   4.198
 1386TIP3   OH2 4163   1.752   3.304   2.835
 1386TIP3    H1 4164   1.813   3.255   2.889
 1386TIP3    H2 4165   1.807   3.360   2.781
 1387TIP3   OH2 4166   3.095   1.550   4.791
 1387TIP3    H1 4167   3.173   1.605   4.798
 1387TIP3    H2 4168   3.098   1.494   4.869
 1388TIP3   OH2 4169   2.831   0.717   2.376
 1388TIP3    H1 4170   2.776   0.793   2.358
 1388TIP3    H2 4171   2.878   0.702   2.293
 1389TIP3   OH2 4172   5.163   1.449   4.877
 1389TIP3    H1 4173   5.179   1.527   4.930
 1389TIP3    H2 4174   5.250   1.420   4.849
 1390TIP3   OH2 4175   2.219   3.972   0.819
 1390TIP3    H1 4176   2.292   3.911   0.830
 1390TIP3    H2 4177   2.145   3.929   0.861
 1391TIP3   OH2 4178   3.393   2.446   2.360
 1391TIP3    H1 4179   3.315   2.415   2.405
 1391TIP3    H2 4180   3.465   2.428   2.420
 1392TIP3   OH2 4181   0.294   0.461   4.141
 1392TIP3    H1 4182   0.307   0.379   4.189
 1392TIP3    H2 4183   0.347   0.452   4.062
 1393TIP3   OH2 4184   5.734   2.455   1.184
 1393TIP3    H1 4185   5.738   2.535   1.237
 1393TIP3    H2 4186   5.641   2.436   1.178
 1394TIP3   OH2 4187   0.973   0.892   0.919
 1394TIP3    H1 4188   1.027   0.849   0.852
 1394TIP3    H2 4189   1.033   0.951   0.964
 1395TIP3   OH2 4190   4.575   2.567   2.406
 1395TIP3    H1 4191   4.634   2.642   2.398
 1395TIP3    H2 4192   4.624   2.494   2.369
 1396TIP3   OH2 4193   3.244   3.181   0.236
 1396TIP3    H1 4194   3.260   3.105   0.181
 1396TIP3    H2 4195   3.172   3.155   0.293
 1397TIP3   OH2 4196   3.354   3.482   0.546
 1397TIP3    H1 4197   3.352   3.395   0.507
 1397TIP3    H2 4198   3.391   3.538   0.478
 1398TIP3   OH2 4199   2.289   1.090   3.984
 1398TIP3    H1 4200   2.284   1.128   4.072
 1398TIP3    H2 4201   2.235   1.011   3.989
 1399TIP3   OH2 4202   5.864   5.862   3.074
 1399TIP3    H1 4203   5.771   5.876   3.056
 1399TIP3    H2 4204   5.872   5.870   3.170
 1400TIP3   OH2 4205   0.975   3.460   0.689
 1400TIP3    H1 4206   1.004   3.406   0.616
 1400TIP3    H2 4207   0.938   3.538   0.648
 1401TIP3   OH2 4208   0.300   2.268   0.271
 1401TIP3    H1 4209   0.232   2.207   0.243
 1401TIP3    H2 4210   0.303   2.259   0.366
 1402TIP3   OH2 4211   5.811   5.130   1.753
 1402TIP3    H1 4212   5.793   5.043   1.788
 1402TIP3    H2 4213   5.749   5.188   1.798
 1403TIP3   OH2 4214   3.713   5.640   0.933
 1403TIP3    H1 4215   3.637   5.590   0.902
 1403TIP3    H2 4216   3.707   5.636   1.028
 1404TIP3   OH2 4217   1.988   4.586   4.596
 1404TIP3    H1 4218   2.053   4.607   4.529
 1404TIP3    H2 4219   1.934   4.666   4.602
 1405TIP3   OH2 4220   3.168   4.503   1.960
 1405TIP3    H1 4221   3.180   4.532   2.050
 1405TIP3    H2 4222   3.221   4.563   1.908
 1406TIP3   OH2 4223   6.027   2.620   2.530
 1406TIP3    H1 4224   6.092   2.616   2.461
 1406TIP3    H2 4225   6.013   2.528   2.555
 1407TIP3   OH2 4226   2.506   3.328   3.701
 1407TIP3    H1 4227   2.434   3.294   3.648
 1407TIP3    H2 4228   2.507   3.273   3.779
 1408TIP3   OH2 4229   1.705   5.741   1.328
 1408TIP3    H1 4230   1.753   5.824   1.327
 1408TIP3    H2 4231   1.619   5.764   1.293
 1409TIP3   OH2 4232   1.344   5.916   2.565
 1409TIP3    H1 4233   1.384   5.961   2.640
 1409TIP3    H2 4234   1.250   5.922   2.581
 1410TIP3   OH2 4235   3.041   3.956   2.665
 1410TIP3    H1 4236   2.995   4.039   2.676
 1410TIP3    H2 4237   3.007   3.901   2.735
 1411TIP3   OH2 4238   4.174   4.589   5.011
 1411TIP3    H1 4239   4.123   4.644   5.070
 1411TIP3    H2 4240   4.228   4.535   5.070
 1412TIP3   OH2 4241   2.754   5.570   1.476
 1412TIP3    H1 4242   2.744   5.615   1.561
 1412TIP3    H2 4243   2.847   5.549   1.472
 1413TIP3   OH2 4244   5.681   0.229   4.110
 1413TIP3    H1 4245   5.691   0.135   4.126
 1413TIP3    H2 4246   5.639   0.234   4.024
 1414TIP3   OH2 4247   5.804   0.690   4.360
 1414TIP3    H1 4248   5.863   0.742   4.307
 1414TIP3    H2 4249   5.789   0.610   4.310
 1415TIP3   OH2 4250   5.646   3.919   3.070
 1415TIP3    H1 4251   5.730   3.904   3.026
 1415TIP3    H2 4252   5.656   4.004   3.112
 1416TIP3   OH2 4253   2.075   1.834   3.316
 1416TIP3    H1 4254   2.125   1.879   3.247
 1416TIP3    H2 4255   2.083   1.741   3.294
 1417TIP3   OH2 4256   5.317   4.225   0.326
 1417TIP3    H1 4257   5.250   4.160   0.303
 1417TIP3    H2 4258   5.397   4.174   0.338
 1418TIP3   OH2 4259   0.504   4.959   4.195
 1418TIP3    H1 4260   0.454   4.882   4.168
 1418TIP3    H2 4261   0.580   4.960   4.138
 1419TIP3   OH2 4262   4.847   4.276   0.889
 1419TIP3    H1 4263   4.889   4.347   0.842
 1419TIP3    H2 4264   4.918   4.232   0.936
 1420TIP3   OH2 4265   4.063   1.128   3.364
 1420TIP3    H1 4266   3.978   1.104   3.403
 1420TIP3    H2 4267   4.063   1.223   3.364
 1421TIP3   OH2 4268   5.531   0.236   1.112
 1421TIP3    H1 4269   5.472   0.219   1.186
 1421TIP3    H2 4270   5.511   0.326   1.086
 1422TIP3   OH2 4271   2.375   0.053   2.107
 1422TIP3    H1 4272   2.435   0.008   2.167
 1422TIP3    H2 4273   2.431   0.096   2.043
 1423TIP3   OH2 4274   4.670   3.865   1.506
 1423TIP3    H1 4275   4.708   3.951   1.527
 1423TIP3    H2 4276   4.635   3.834   1.589
 1424TIP3   OH2 4277   1.488   0.041   4.211
 1424TIP3    H1 4278   1.399   0.076   4.205
 1424TIP3    H2 4279   1.480  -0.050   4.185
 1425TIP3   OH2 4280   0.653   1.634   1.596
 1425TIP3    H1 4281   0.626   1.702   1.535
 1425TIP3    H2 4282   0.589   1.638   1.667
 1426TIP3   OH2 4283   1.271   1.302   2.776
 1426TIP3    H1 4284   1.326   1.300   2.854
 1426TIP3    H2 4285   1.297   1.383   2.731
 1427TIP3   OH2 4286   5.090   2.413   1.957
 1427TIP3    H1 4287   5.011   2.372   1.993
 1427TIP3    H2 4288   5.068   2.506   1.950
 1428TIP3   OH2 4289   5.227   4.595   1.484
 1428TIP3    H1 4290   5.186   4.590   1.570
 1428TIP3    H2 4291   5.228   4.505   1.453
 1429TIP3   OH2 4292   1.198   2.421   4.120
 1429TIP3    H1 4293   1.156   2.353   4.068
 1429TIP3    H2 4294   1.226   2.377   4.200
 1430TIP3   OH2 4295   3.811   3.068   2.433
 1430TIP3    H1 4296   3.762   3.150   2.439
 1430TIP3    H2 4297   3.885   3.089   2.376
 1431TIP3   OH2 4298   5.028   5.318   3.538
 1431TIP3    H1 4299   5.097   5.302   3.602
 1431TIP3    H2 4300   4.984   5.397   3.568
 1432TIP3   OH2 4301   0.191   2.080   4.841
 1432TIP3    H1 4302   0.241   2.106   4.764
 1432TIP3    H2 4303   0.117   2.141   4.843
 1433TIP3   OH2 4304   0.333   4.745   2.454
 1433TIP3    H1 4305   0.381   4.749   2.537
 1433TIP3    H2 4306   0.280   4.665   2.461
 1434TIP3   OH2 4307   5.432   0.215   2.716
 1434TIP3    H1 4308   5.372   0.256   2.653
 1434TIP3    H2 4309   5.456   0.287   2.775
 1435TIP3   OH2 4310   0.664   4.555   0.899
 1435TIP3    H1 4311   0.660   4.491   0.827
 1435TIP3    H2 4312   0.668   4.640   0.855
 1436TIP3   OH2 4313   0.495   1.680   1.804
 1436TIP3    H1 4314   0.536   1.731   1.873
 1436TIP3    H2 4315   0.428   1.738   1.768
 1437TIP3   OH2 4316   4.041   4.627   0.282
 1437TIP3    H1 4317   4.011   4.663   0.199
 1437TIP3    H2 4318   3.989   4.671   0.349
 1438TIP3   OH2 4319   6.137   4.808   0.900
 1438TIP3    H1 4320   6.209   4.787   0.960
 1438TIP3    H2 4321   6.060   4.766   0.938
 1439TIP3   OH2 4322   4.168   0.088   3.168
 1439TIP3    H1 4323   4.236   0.156   3.158
 1439TIP3    H2 4324   4.089   0.128   3.132
 1440TIP3   OH2 4325   2.169   1.709   0.791
 1440TIP3    H1 4326   2.189   1.778   0.854
 1440TIP3    H2 4327   2.252   1.690   0.748
 1441TIP3   OH2 4328   2.349   4.112   1.641
 1441TIP3    H1 4329   2.375   4.174   1.709
 1441TIP3    H2 4330   2.413   4.041   1.647
 1442TIP3   OH2 4331   4.881   2.672   0.949
 1442TIP3    H1 4332   4.864   2.670   1.043
 1442TIP3    H2 4333   4.817   2.734   0.914
 1443TIP3   OH2 4334   3.416   4.260   1.923
 1443TIP3    H1 4335   3.370   4.343   1.919
 1443TIP3    H2 4336   3.387   4.220   2.005
 1444TIP3   OH2 4337   2.179   5.131   1.452
 1444TIP3    H1 4338   2.251   5.192   1.435
 1444TIP3    H2 4339   2.110   5.157   1.391
 1445TIP3   OH2 4340   4.290   5.727   1.461
 1445TIP3    H1 4341   4.223   5.719   1.529
 1445TIP3    H2 4342   4.266   5.806   1.413
 1446TIP3   OH2 4343   1.778   1.592   1.024
 1446TIP3    H1 4344   1.835   1.668   1.030
 1446TIP3    H2 4345   1.689   1.627   1.033
 1447TIP3   OH2 4346   0.221   4.791   4.284
 1447TIP3    H1 4347   0.273   4.771   4.362
 1447TIP3    H2 4348   0.193   4.881   4.296
 1448TIP3   OH2 4349   0.873   5.639   1.930
 1448TIP3    H1 4350   0.906   5.596   1.851
 1448TIP3    H2 4351   0.825   5.715   1.898
 1449TIP3   OH2 4352   4.697   1.139   4.645
 1449TIP3    H1 4353   4.718   1.131   4.738
 1449TIP3    H2 4354   4.609   1.176   4.644
 1450TIP3   OH2 4355   1.580   1.489   1.288
 1450TIP3    H1 4356   1.534   1.507   1.207
 1450TIP3    H2 4357   1.661   1.539   1.281
 1451TIP3   OH2 4358   5.203   1.762   2.273
 1451TIP3    H1 4359   5.236   1.685   2.227
 1451TIP3    H2 4360   5.119   1.782   2.232
 1452TIP3   OH2 4361   1.934   0.794   2.474
 1452TIP3    H1 4362   1.928   0.823   2.565
 1452TIP3    H2 4363   1.970   0.869   2.427
 1453TIP3   OH2 4364   5.781   1.097   4.800
 1453TIP3    H1 4365   5.713   1.159   4.774
 1453TIP3    H2 4366   5.863   1.139   4.774
 1454TIP3   OH2 4367   4.995   0.273   0.625
 1454TIP3    H1 4368   4.966   0.278   0.534
 1454TIP3    H2 4369   5.081   0.232   0.620
 1455TIP3   OH2 4370   1.163   4.429   4.838
 1455TIP3    H1 4371   1.072   4.456   4.825
 1455TIP3    H2 4372   1.205   4.447   4.754
 1456TIP3   OH2 4373   4.674   1.555   0.053
 1456TIP3    H1 4374   4.688   1.601  -0.030
 1456TIP3    H2 4375   4.757   1.511   0.071
 1457TIP3   OH2 4376   0.697   4.014   0.213
 1457TIP3    H1 4377   0.603   4.002   0.203
 1457TIP3    H2 4378   0.709   4.109   0.208
 1458TIP3   OH2 4379   4.651   3.200   3.597
 1458TIP3    H1 4380   4.603   3.163   3.672
 1458TIP3    H2 4381   4.686   3.124   3.551
 1459TIP3   OH2 4382   1.928   1.747   0.012
 1459TIP3    H1 4383   1.855   1.789  -0.034
 1459TIP3    H2 4384   1.898   1.741   0.103
 1460TIP3   OH2 4385   6.191   5.995   0.998
 1460TIP3    H1 4386   6.186   6.009   1.092
 1460TIP3    H2 4387   6.224   5.906   0.989
 1461TIP3   OH2 4388   5.671   1.461   0.336
 1461TIP3    H1 4389   5.706   1.540   0.294
 1461TIP3    H2 4390   5.620   1.418   0.267
 1462TIP3   OH2 4391   0.424   2.829   4.464
 1462TIP3    H1 4392   0.443   2.919   4.488
 1462TIP3    H2 4393   0.480   2.776   4.521
 1463TIP3   OH2 4394   3.073   3.094   4.508
 1463TIP3    H1 4395   3.157   3.139   4.496
 1463TIP3    H2 4396   3.084   3.045   4.590
 1464TIP3   OH2 4397   2.621  -0.015   3.470
 1464TIP3    H1 4398   2.668  -0.030   3.388
 1464TIP3    H2 4399   2.534   0.016   3.443
 1465TIP3   OH2 4400   5.384   3.837   0.565
 1465TIP3    H1 4401   5.354   3.786   0.640
 1465TIP3    H2 4402   5.464   3.791   0.536
 1466TIP3   OH2 4403   4.710   2.829   2.686
 1466TIP3    H1 4404   4.713   2.918   2.651
 1466TIP3    H2 4405   4.618   2.804   2.679
 1467TIP3   OH2 4406   2.694   1.968   2.317
 1467TIP3    H1 4407   2.641   1.991   2.393
 1467TIP3    H2 4408   2.695   2.047   2.263
 1468TIP3   OH2 4409   0.708   2.824   2.087
 1468TIP3    H1 4410   0.640   2.891   2.085
 1468TIP3    H2 4411   0.725   2.804   1.995
 1469TIP3   OH2 4412   3.353   2.412   3.513
 1469TIP3    H1 4413   3.393   2.444   3.594
 1469TIP3    H2 4414   3.353   2.487   3.454
 1470TIP3   OH2 4415   4.098   4.831   2.012
 1470TIP3    H1 4416   4.177   4.880   2.036
 1470TIP3    H2 4417   4.091   4.764   2.080
 1471TIP3   OH2 4418   3.840   4.934   4.783
 1471TIP3    H1 4419   3.753   4.955   4.751
 1471TIP3    H2 4420   3.830   4.922   4.877
 1472TIP3   OH2 4421   5.937   4.435   1.933
 1472TIP3    H1 4422   5.850   4.435   1.972
 1472TIP3    H2 4423   5.923   4.409   1.842
 1473TIP3   OH2 4424   4.277   3.332   3.572
 1473TIP3    H1 4425   4.250   3.421   3.592
 1473TIP3    H2 4426   4.266   3.324   3.477
 1474TIP3   OH2 4427   5.816   5.577   1.429
 1474TIP3    H1 4428   5.811   5.515   1.502
 1474TIP3    H2 4429   5.827   5.663   1.471
 1475TIP3   OH2 4430   2.445   2.581   3.951
 1475TIP3    H1 4431   2.500   2.514   3.912
 1475TIP3    H2 4432   2.472   2.584   4.043
 1476TIP3   OH2 4433   3.538   1.675   2.147
 1476TIP3    H1 4434   3.472   1.697   2.213
 1476TIP3    H2 4435   3.620   1.710   2.182
 1477TIP3   OH2 4436   1.232   2.732   2.231
 1477TIP3    H1 4437   1.204   2.642   2.249
 1477TIP3    H2 4438   1.152   2.779   2.210
 1478TIP3   OH2 4439   2.204   3.003   2.642
 1478TIP3    H1 4440   2.292   2.973   2.667
 1478TIP3    H2 4441   2.159   2.925   2.613
 1479TIP3   OH2 4442   0.938   5.517   2.406
 1479TIP3    H1 4443   0.863   5.458   2.415
 1479TIP3    H2 4444   0.911   5.580   2.339
 1480TIP3   OH2 4445   4.823   1.501   1.542
 1480TIP3    H1 4446   4.884   1.438   1.502
 1480TIP3    H2 4447   4.880   1.570   1.577
 1481TIP3   OH2 4448   4.321   1.954   0.665
 1481TIP3    H1 4449   4.344   1.861   0.662
 1481TIP3    H2 4450   4.257   1.960   0.735
 1482TIP3   OH2 4451   1.574   2.007   1.727
 1482TIP3    H1 4452   1.541   1.960   1.804
 1482TIP3    H2 4453   1.496   2.033   1.679
 1483TIP3   OH2 4454   3.545   0.778   3.381
 1483TIP3    H1 4455   3.461   0.768   3.336
 1483TIP3    H2 4456   3.522   0.782   3.474
 1484TIP3   OH2 4457   4.250   0.439   2.319
 1484TIP3    H1 4458   4.272   0.416   2.228
 1484TIP3    H2 4459   4.291   0.525   2.332
 1485TIP3   OH2 4460   0.592   3.599   3.195
 1485TIP3    H1 4461   0.580   3.645   3.112
 1485TIP3    H2 4462   0.665   3.539   3.179
 1486TIP3   OH2 4463   3.977   4.449   0.498
 1486TIP3    H1 4464   3.964   4.482   0.409
 1486TIP3    H2 4465   3.907   4.490   0.549
 1487TIP3   OH2 4466   1.658   2.308   4.997
 1487TIP3    H1 4467   1.696   2.227   4.961
 1487TIP3    H2 4468   1.564   2.296   4.987
 1488TIP3   OH2 4469   1.211   4.139   4.506
 1488TIP3    H1 4470   1.127   4.164   4.468
 1488TIP3    H2 4471   1.188   4.076   4.574
 1489TIP3   OH2 4472   2.898   1.469   0.289
 1489TIP3    H1 4473   2.832   1.511   0.344
 1489TIP3    H2 4474   2.848   1.426   0.220
 1490TIP3   OH2 4475   4.067   2.346   3.918
 1490TIP3    H1 4476   4.062   2.440   3.933
 1490TIP3    H2 4477   4.151   2.333   3.874
 1491TIP3   OH2 4478   2.357   4.372   0.654
 1491TIP3    H1 4479   2.314   4.336   0.731
 1491TIP3    H2 4480   2.451   4.368   0.674
 1492TIP3   OH2 4481   2.146   4.418   2.481
 1492TIP3    H1 4482   2.229   4.427   2.529
 1492TIP3    H2 4483   2.102   4.344   2.523
 1493TIP3   OH2 4484   3.897   5.379   1.311
 1493TIP3    H1 4485   3.982   5.342   1.333
 1493TIP3    H2 4486   3.918   5.457   1.259
 1494TIP3   OH2 4487   1.137   3.786   4.745
 1494TIP3    H1 4488   1.229   3.781   4.771
 1494TIP3    H2 4489   1.113   3.695   4.726
 1495TIP3   OH2 4490   5.772   4.183   2.137
 1495TIP3    H1 4491   5.792   4.192   2.230
 1495TIP3    H2 4492   5.726   4.099   2.129
 1496TIP3   OH2 4493   3.856   2.285   2.762
 1496TIP3    H1 4494   3.892   2.295   2.851
 1496TIP3    H2 4495   3.791   2.355   2.755
 1497TIP3   OH2 4496   1.077   1.299   1.707
 1497TIP3    H1 4497   1.109   1.242   1.777
 1497TIP3    H2 4498   0.982   1.284   1.706
 1498TIP3   OH2 4499   6.274   4.868   2.846
 1498TIP3    H1 4500   6.292   4.906   2.760
 1498TIP3    H2 4501   6.202   4.920   2.881
 1499TIP3   OH2 4502   0.550   3.757   5.158
 1499TIP3    H1 4503   0.483   3.826   5.159
 1499TIP3    H2 4504   0.632   3.805   5.142
 1500TIP3   OH2 4505   3.446   5.902   0.051
 1500TIP3    H1 4506   3.449   5.983   0.102
 1500TIP3    H2 4507   3.368   5.912  -0.004
 1501TIP3   OH2 4508   2.488   2.697   0.657
 1501TIP3    H1 4509   2.465   2.748   0.734
 1501TIP3    H2 4510   2.511   2.763   0.591
 1502TIP3   OH2 4511   5.869   4.826   3.483
 1502TIP3    H1 4512   5.802   4.759   3.482
 1502TIP3    H2 4513   5.821   4.909   3.476
 1503TIP3   OH2 4514   1.994   5.303   2.192
 1503TIP3    H1 4515   1.930   5.360   2.151
 1503TIP3    H2 4516   1.950   5.270   2.270
 1504TIP3   OH2 4517   5.589   4.425   4.810
 1504TIP3    H1 4518   5.683   4.424   4.825
 1504TIP3    H2 4519   5.562   4.334   4.823
 1505TIP3   OH2 4520   4.629   2.391   0.652
 1505TIP3    H1 4521   4.678   2.421   0.729
 1505TIP3    H2 4522   4.594   2.305   0.677
 1506TIP3   OH2 4523   2.476   5.337   2.805
 1506TIP3    H1 4524   2.555   5.374   2.844
 1506TIP3    H2 4525   2.465   5.386   2.723
 1507TIP3   OH2 4526   3.685   2.817   0.712
 1507TIP3    H1 4527   3.770   2.849   0.742
 1507TIP3    H2 4528   3.680   2.845   0.620
 1508TIP3   OH2 4529   5.461   2.850   4.174
 1508TIP3    H1 4530   5.459   2.844   4.078
 1508TIP3    H2 4531   5.411   2.930   4.193
 1509TIP3   OH2 4532   4.938   1.873   0.209
 1509TIP3    H1 4533   4.917   1.888   0.117
 1509TIP3    H2 4534   4.875   1.925   0.258
 1510TIP3   OH2 4535   4.816   2.987   4.029
 1510TIP3    H1 4536   4.787   2.957   3.943
 1510TIP3    H2 4537   4.871   2.916   4.062
 1511TIP3   OH2 4538   1.058   5.679   0.161
 1511TIP3    H1 4539   1.035   5.747   0.099
 1511TIP3    H2 4540   1.098   5.726   0.235
 1512TIP3   OH2 4541   4.516   3.920   3.459
 1512TIP3    H1 4542   4.507   3.843   3.515
 1512TIP3    H2 4543   4.485   3.993   3.513
 1513TIP3   OH2 4544   3.794   0.941   1.111
 1513TIP3    H1 4545   3.733   1.014   1.123
 1513TIP3    H2 4546   3.767   0.902   1.028
 1514TIP3   OH2 4547   3.053   1.314   1.006
 1514TIP3    H1 4548   3.032   1.242   0.945
 1514TIP3    H2 4549   2.971   1.330   1.053
 1515TIP3   OH2 4550   4.410   1.610   0.322
 1515TIP3    H1 4551   4.481   1.573   0.269
 1515TIP3    H2 4552   4.441   1.697   0.346
 1516TIP3   OH2 4553   4.428   2.055   2.341
 1516TIP3    H1 4554   4.425   2.011   2.256
 1516TIP3    H2 4555   4.407   2.147   2.321
 1517TIP3   OH2 4556   5.335   0.201   1.383
 1517TIP3    H1 4557   5.354   0.182   1.475
 1517TIP3    H2 4558   5.359   0.121   1.336
 1518TIP3   OH2 4559   1.870   0.604   1.795
 1518TIP3    H1 4560   1.914   0.670   1.849
 1518TIP3    H2 4561   1.906   0.520   1.825
 1519TIP3   OH2 4562   5.947   3.171   2.854
 1519TIP3    H1 4563   5.989   3.128   2.780
 1519TIP3    H2 4564   6.005   3.245   2.874
 1520TIP3   OH2 4565   3.904   4.279   4.326
 1520TIP3    H1 4566   3.818   4.252   4.295
 1520TIP3    H2 4567   3.893   4.371   4.350
 1521TIP3   OH2 4568   6.014   2.094   1.853
 1521TIP3    H1 4569   5.939   2.091   1.793
 1521TIP3    H2 4570   6.032   2.003   1.874
 1522TIP3   OH2 4571   0.818   2.973   1.661
 1522TIP3    H1 4572   0.842   2.930   1.579
 1522TIP3    H2 4573   0.765   2.908   1.707
 1523TIP3   OH2 4574   4.835   1.796   1.952
 1523TIP3    H1 4575   4.924   1.812   1.982
 1523TIP3    H2 4576   4.802   1.725   2.007
 1524TIP3   OH2 4577   0.601   3.643   0.173
 1524TIP3    H1 4578   0.690   3.676   0.187
 1524TIP3    H2 4579   0.599   3.561   0.223
 1525TIP3   OH2 4580   2.056   2.569   4.024
 1525TIP3    H1 4581   2.116   2.532   3.959
 1525TIP3    H2 4582   1.969   2.554   3.988
 1526TIP3   OH2 4583   0.999   5.622   0.541
 1526TIP3    H1 4584   0.954   5.609   0.625
 1526TIP3    H2 4585   0.963   5.704   0.507
 1527TIP3   OH2 4586   2.051   1.087   1.504
 1527TIP3    H1 4587   2.004   1.005   1.517
 1527TIP3    H2 4588   1.983   1.148   1.473
 1528TIP3   OH2 4589   1.846   3.730   2.002
 1528TIP3    H1 4590   1.896   3.768   2.074
 1528TIP3    H2 4591   1.828   3.803   1.943
 1529TIP3   OH2 4592   3.146   2.855   1.736
 1529TIP3    H1 4593   3.056   2.881   1.756
 1529TIP3    H2 4594   3.138   2.767   1.698
 1530TIP3   OH2 4595   2.651   2.941   1.193
 1530TIP3    H1 4596   2.658   3.035   1.181
 1530TIP3    H2 4597   2.580   2.915   1.134
 1531TIP3   OH2 4598   3.713   0.155   3.743
 1531TIP3    H1 4599   3.710   0.061   3.725
 1531TIP3    H2 4600   3.783   0.188   3.686
 1532TIP3   OH2 4601   1.879   5.742   3.509
 1532TIP3    H1 4602   1.889   5.690   3.429
 1532TIP3    H2 4603   1.903   5.831   3.482
 1533TIP3   OH2 4604   4.234   3.362   2.993
 1533TIP3    H1 4605   4.213   3.286   3.047
 1533TIP3    H2 4606   4.158   3.372   2.935
 1534TIP3   OH2 4607   4.803   5.145   3.567
 1534TIP3    H1 4608   4.880   5.185   3.527
 1534TIP3    H2 4609   4.800   5.182   3.655
 1535TIP3   OH2 4610   2.851   0.556   0.634
 1535TIP3    H1 4611   2.916   0.571   0.565
 1535TIP3    H2 4612   2.786   0.499   0.593
 1536TIP3   OH2 4613   5.636   0.391   1.485
 1536TIP3    H1 4614   5.700   0.437   1.431
 1536TIP3    H2 4615   5.633   0.302   1.449
 1537TIP3   OH2 4616   6.233   2.063   3.563
 1537TIP3    H1 4617   6.150   2.025   3.535
 1537TIP3    H2 4618   6.298   2.026   3.504
 1538TIP3   OH2 4619   1.237   1.498   1.563
 1538TIP3    H1 4620   1.147   1.467   1.571
 1538TIP3    H2 4621   1.283   1.456   1.636
 1539TIP3   OH2 4622   0.485   2.750   3.000
 1539TIP3    H1 4623   0.421   2.729   3.068
 1539TIP3    H2 4624   0.538   2.671   2.992
 1540TIP3   OH2 4625   4.690   2.430   3.434
 1540TIP3    H1 4626   4.632   2.501   3.462
 1540TIP3    H2 4627   4.633   2.353   3.432
 1541TIP3   OH2 4628   5.757   4.671   3.194
 1541TIP3    H1 4629   5.850   4.680   3.175
 1541TIP3    H2 4630   5.745   4.578   3.214
 1542TIP3   OH2 4631   3.544   3.342   4.804
 1542TIP3    H1 4632   3.530   3.359   4.897
 1542TIP3    H2 4633   3.638   3.325   4.796
 1543TIP3   OH2 4634   0.936   2.394   0.120
 1543TIP3    H1 4635   0.968   2.455   0.054
 1543TIP3    H2 4636   0.851   2.429   0.145
 1544TIP3   OH2 4637   1.333   3.917   2.190
 1544TIP3    H1 4638   1.317   3.825   2.213
 1544TIP3    H2 4639   1.425   3.932   2.210
 1545TIP3   OH2 4640   0.677   3.170   5.136
 1545TIP3    H1 4641   0.766   3.143   5.159
 1545TIP3    H2 4642   0.651   3.110   5.066
 1546TIP3   OH2 4643   3.225   4.137   0.551
 1546TIP3    H1 4644   3.293   4.161   0.487
 1546TIP3    H2 4645   3.153   4.103   0.497
 1547TIP3   OH2 4646   6.004   0.997   0.839
 1547TIP3    H1 4647   6.099   0.989   0.851
 1547TIP3    H2 4648   5.969   0.913   0.867
 1548TIP3   OH2 4649   5.817   4.392   1.037
 1548TIP3    H1 4650   5.727   4.422   1.020
 1548TIP3    H2 4651   5.861   4.400   0.953
 1549TIP3   OH2 4652   3.139   3.573   1.669
 1549TIP3    H1 4653   3.127   3.515   1.744
 1549TIP3    H2 4654   3.170   3.655   1.707
 1550TIP3   OH2 4655   6.218   3.821   4.317
 1550TIP3    H1 4656   6.199   3.744   4.371
 1550TIP3    H2 4657   6.209   3.895   4.377
 1551TIP3   OH2 4658   5.420   4.742   2.403
 1551TIP3    H1 4659   5.365   4.772   2.331
 1551TIP3    H2 4660   5.459   4.660   2.371
 1552TIP3   OH2 4661   4.112   3.927   0.532
 1552TIP3    H1 4662   4.069   3.875   0.600
 1552TIP3    H2 4663   4.197   3.886   0.521
 1553TIP3   OH2 4664   4.527   3.065   1.012
 1553TIP3    H1 4665   4.614   3.037   0.984
 1553TIP3    H2 4666   4.536   3.160   1.027
 1554TIP3   OH2 4667   2.756   0.423   4.840
 1554TIP3    H1 4668   2.828   0.434   4.902
 1554TIP3    H2 4669   2.793   0.450   4.756
 1555TIP3   OH2 4670   4.137   4.818   1.670
 1555TIP3    H1 4671   4.058   4.766   1.650
 1555TIP3    H2 4672   4.187   4.817   1.588
 1556TIP3   OH2 4673   3.192   3.693  -0.011
 1556TIP3    H1 4674   3.191   3.787   0.007
 1556TIP3    H2 4675   3.215   3.652   0.072
 1557TIP3   OH2 4676   1.053   0.892   3.897
 1557TIP3    H1 4677   1.057   0.986   3.880
 1557TIP3    H2 4678   1.123   0.876   3.960
 1558TIP3   OH2 4679   1.819   5.670   5.054
 1558TIP3    H1 4680   1.734   5.684   5.013
 1558TIP3    H2 4681   1.817   5.723   5.134
 1559TIP3   OH2 4682   1.940   4.135   0.666
 1559TIP3    H1 4683   1.895   4.106   0.745
 1559TIP3    H2 4684   1.947   4.056   0.612
 1560TIP3   OH2 4685   5.284   2.774   4.424
 1560TIP3    H1 4686   5.288   2.853   4.370
 1560TIP3    H2 4687   5.247   2.707   4.366
 1561TIP3   OH2 4688   2.202   5.538   4.230
 1561TIP3    H1 4689   2.223   5.548   4.137
 1561TIP3    H2 4690   2.155   5.455   4.236
 1562TIP3   OH2 4691   5.435   4.901   0.778
 1562TIP3    H1 4692   5.484   4.951   0.843
 1562TIP3    H2 4693   5.427   4.813   0.816
 1563TIP3   OH2 4694   0.121   5.071   1.498
 1563TIP3    H1 4695   0.039   5.086   1.544
 1563TIP3    H2 4696   0.148   5.158   1.469
 1564TIP3   OH2 4697   4.262   5.357   3.676
 1564TIP3    H1 4698   4.181   5.397   3.645
 1564TIP3    H2 4699   4.239   5.319   3.761
 1565TIP3   OH2 4700   6.148   3.117   1.776
 1565TIP3    H1 4701   6.239   3.118   1.747
 1565TIP3    H2 4702   6.101   3.075   1.705
 1566TIP3   OH2 4703   4.885   0.705   0.981
 1566TIP3    H1 4704   4.911   0.780   0.928
 1566TIP3    H2 4705   4.797   0.684   0.952
 1567TIP3   OH2 4706   2.825   1.926   2.014
 1567TIP3    H1 4707   2.903   1.879   2.042
 1567TIP3    H2 4708   2.753   1.866   2.035
 1568TIP3   OH2 4709   4.510   3.522   2.908
 1568TIP3    H1 4710   4.524   3.506   2.814
 1568TIP3    H2 4711   4.586   3.483   2.950
 1569TIP3   OH2 4712   2.577   4.671   2.760
 1569TIP3    H1 4713   2.626   4.627   2.829
 1569TIP3    H2 4714   2.642   4.724   2.714
 1570TIP3   OH2 4715   0.254   3.690   3.337
 1570TIP3    H1 4716   0.318   3.726   3.275
 1570TIP3    H2 4717   0.295   3.701   3.423
 1571TIP3   OH2 4718   5.892   5.770   2.548
 1571TIP3    H1 4719   5.842   5.689   2.557
 1571TIP3    H2 4720   5.947   5.757   2.471
 1572TIP3   OH2 4721   5.717   5.977   2.498
 1572TIP3    H1 4722   5.783   5.909   2.506
 1572TIP3    H2 4723   5.677   5.963   2.412
 1573TIP3   OH2 4724   0.621   0.802   1.486
 1573TIP3    H1 4725   0.622   0.807   1.391
 1573TIP3    H2 4726   0.603   0.892   1.514
 1574TIP3   OH2 4727   4.829   3.332   1.021
 1574TIP3    H1 4728   4.914   3.373   1.037
 1574TIP3    H2 4729   4.824   3.323   0.926
 1575TIP3   OH2 4730   2.678   1.234   3.638
 1575TIP3    H1 4731   2.718   1.284   3.709
 1575TIP3    H2 4732   2.727   1.261   3.560
 1576TIP3   OH2 4733   5.129   4.835   4.966
 1576TIP3    H1 4734   5.067   4.785   4.913
 1576TIP3    H2 4735   5.099   4.825   5.056
 1577TIP3   OH2 4736   3.721   1.455   2.058
 1577TIP3    H1 4737   3.645   1.507   2.030
 1577TIP3    H2 4738   3.768   1.436   1.977
 1578TIP3   OH2 4739   2.429   3.362   2.445
 1578TIP3    H1 4740   2.391   3.449   2.449
 1578TIP3    H2 4741   2.393   3.316   2.521
 1579TIP3   OH2 4742   4.319   4.889   0.301
 1579TIP3    H1 4743   4.297   4.806   0.259
 1579TIP3    H2 4744   4.400   4.872   0.349
 1580TIP3   OH2 4745   5.221   1.684   0.244
 1580TIP3    H1 4746   5.126   1.685   0.261
 1580TIP3    H2 4747   5.237   1.762   0.191
 1581TIP3   OH2 4748   1.179   5.578   2.909
 1581TIP3    H1 4749   1.121   5.539   2.845
 1581TIP3    H2 4750   1.165   5.673   2.900
 1582TIP3   OH2 4751   4.005   5.180   1.051
 1582TIP3    H1 4752   4.006   5.141   1.139
 1582TIP3    H2 4753   4.012   5.106   0.992
 1583TIP3   OH2 4754   2.477   4.430   4.944
 1583TIP3    H1 4755   2.431   4.464   5.021
 1583TIP3    H2 4756   2.472   4.501   4.880
 1584TIP3   OH2 4757   1.649   2.528   3.592
 1584TIP3    H1 4758   1.563   2.532   3.633
 1584TIP3    H2 4759   1.706   2.492   3.659
 1585TIP3   OH2 4760   4.601   1.464   3.598
 1585TIP3    H1 4761   4.669   1.464   3.665
 1585TIP3    H2 4762   4.525   1.503   3.642
 1586TIP3   OH2 4763   3.291   2.077   3.176
 1586TIP3    H1 4764   3.352   2.010   3.206
 1586TIP3    H2 4765   3.284   2.063   3.082
 1587TIP3   OH2 4766   6.010   1.524   3.541
 1587TIP3    H1 4767   6.049   1.523   3.628
 1587TIP3    H2 4768   6.083   1.504   3.482
 1588TIP3   OH2 4769   3.602   3.868   4.994
 1588TIP3    H1 4770   3.697   3.870   4.994
 1588TIP3    H2 4771   3.579   3.800   4.930
 1589TIP3   OH2 4772   2.995   2.778   3.707
 1589TIP3    H1 4773   2.904   2.757   3.728
 1589TIP3    H2 4774   3.046   2.725   3.768
 1590TIP3   OH2 4775   5.927   1.838   0.410
 1590TIP3    H1 4776   5.842   1.814   0.448
 1590TIP3    H2 4777   5.991   1.794   0.466
 1591TIP3   OH2 4778   3.749   5.776   3.473
 1591TIP3    H1 4779   3.780   5.685   3.476
 1591TIP3    H2 4780   3.706   5.790   3.557
 1592TIP3   OH2 4781   1.284   2.706   4.551
 1592TIP3    H1 4782   1.272   2.751   4.635
 1592TIP3    H2 4783   1.233   2.625   4.560
 1593TIP3   OH2 4784   1.946   0.278   3.140
 1593TIP3    H1 4785   1.854   0.282   3.115
 1593TIP3    H2 4786   1.965   0.367   3.172
 1594TIP3   OH2 4787   0.900   3.471   0.960
 1594TIP3    H1 4788   0.856   3.555   0.972
 1594TIP3    H2 4789   0.941   3.478   0.874
 1595TIP3   OH2 4790   5.226   2.281   4.420
 1595TIP3    H1 4791   5.175   2.219   4.367
 1595TIP3    H2 4792   5.306   2.232   4.442
 1596TIP3   OH2 4793   3.272   3.297   3.813
 1596TIP3    H1 4794   3.198   3.242   3.787
 1596TIP3    H2 4795   3.286   3.355   3.738
 1597TIP3   OH2 4796   2.001   3.631   1.352
 1597TIP3    H1 4797   2.080   3.626   1.298
 1597TIP3    H2 4798   1.929   3.628   1.290
 1598TIP3   OH2 4799   5.170  -0.015   4.360
 1598TIP3    H1 4800   5.138   0.006   4.448
 1598TIP3    H2 4801   5.211   0.067   4.330
 1599TIP3   OH2 4802   4.430   4.766   3.221
 1599TIP3    H1 4803   4.428   4.862   3.221
 1599TIP3    H2 4804   4.522   4.744   3.208
 1600TIP3   OH2 4805   0.925   3.877   0.880
 1600TIP3    H1 4806   0.991   3.813   0.907
 1600TIP3    H2 4807   0.842   3.830   0.890
 1601TIP3   OH2 4808   0.876   3.858   4.430
 1601TIP3    H1 4809   0.927   3.891   4.357
 1601TIP3    H2 4810   0.893   3.918   4.502
 1602TIP3   OH2 4811   2.737   4.071   2.310
 1602TIP3    H1 4812   2.783   4.015   2.373
 1602TIP3    H2 4813   2.757   4.032   2.225
 1603TIP3   OH2 4814   5.515   1.847   0.337
 1603TIP3    H1 4815   5.552   1.807   0.258
 1603TIP3    H2 4816   5.496   1.937   0.311
 1604TIP3   OH2 4817   0.664   4.268   5.013
 1604TIP3    H1 4818   0.751   4.230   4.998
 1604TIP3    H2 4819   0.671   4.357   4.980
 1605TIP3   OH2 4820   5.617   4.711   1.073
 1605TIP3    H1 4821   5.532   4.692   1.034
 1605TIP3    H2 4822   5.608   4.685   1.165
 1606TIP3   OH2 4823   2.993   0.284   0.144
 1606TIP3    H1 4824   2.995   0.379   0.141
 1606TIP3    H2 4825   3.048   0.261   0.219
 1607TIP3   OH2 4826   0.195   4.098   1.828
 1607TIP3    H1 4827   0.171   4.188   1.808
 1607TIP3    H2 4828   0.288   4.092   1.806
 1608TIP3   OH2 4829   2.292   0.313   3.265
 1608TIP3    H1 4830   2.375   0.320   3.216
 1608TIP3    H2 4831   2.262   0.224   3.248
 1609TIP3   OH2 4832   2.067   3.474   1.067
 1609TIP3    H1 4833   1.993   3.534   1.070
 1609TIP3    H2 4834   2.097   3.477   0.976
 1610TIP3   OH2 4835   0.952   5.898   3.231
 1610TIP3    H1 4836   0.901   5.888   3.311
 1610TIP3    H2 4837   0.925   5.823   3.177
 1611TIP3   OH2 4838   0.554   1.304   2.196
 1611TIP3    H1 4839   0.498   1.381   2.194
 1611TIP3    H2 4840   0.493   1.230   2.193
 1612TIP3   OH2 4841   3.592   5.948   1.125
 1612TIP3    H1 4842   3.577   5.956   1.031
 1612TIP3    H2 4843   3.505   5.935   1.163
 1613TIP3   OH2 4844   1.269   5.601   0.562
 1613TIP3    H1 4845   1.295   5.543   0.634
 1613TIP3    H2 4846   1.174   5.591   0.557
 1614TIP3   OH2 4847   3.509   2.315   1.881
 1614TIP3    H1 4848   3.551   2.365   1.810
 1614TIP3    H2 4849   3.487   2.381   1.947
 1615TIP3   OH2 4850   3.888   4.019   3.140
 1615TIP3    H1 4851   3.923   4.100   3.176
 1615TIP3    H2 4852   3.843   4.045   3.060
 1616TIP3   OH2 4853   4.019   0.748   1.151
 1616TIP3    H1 4854   4.014   0.843   1.163
 1616TIP3    H2 4855   4.049   0.715   1.236
 1617TIP3   OH2 4856   2.703   1.865   0.947
 1617TIP3    H1 4857   2.635   1.836   1.009
 1617TIP3    H2 4858   2.690   1.810   0.870
 1618TIP3   OH2 4859   2.921   1.681   1.081
 1618TIP3    H1 4860   2.856   1.688   1.011
 1618TIP3    H2 4861   2.922   1.588   1.105
 1619TIP3   OH2 4862   0.706   0.112   0.513
 1619TIP3    H1 4863   0.770   0.041   0.520
 1619TIP3    H2 4864   0.709   0.138   0.421
 1620TIP3   OH2 4865   6.305   0.330   3.909
 1620TIP3    H1 4866   6.291   0.418   3.944
 1620TIP3    H2 4867   6.397   0.311   3.928
 1621TIP3   OH2 4868   0.422   0.930   3.350
 1621TIP3    H1 4869   0.339   0.920   3.302
 1621TIP3    H2 4870   0.410   1.009   3.403
 1622TIP3   OH2 4871   5.063   4.604   1.717
 1622TIP3    H1 4872   4.999   4.673   1.735
 1622TIP3    H2 4873   5.024   4.526   1.756
 1623TIP3   OH2 4874   5.316   1.129   4.125
 1623TIP3    H1 4875   5.272   1.205   4.087
 1623TIP3    H2 4876   5.410   1.150   4.120
 1624TIP3   OH2 4877  -0.005   4.797   4.137
 1624TIP3    H1 4878   0.051   4.773   4.211
 1624TIP3    H2 4879   0.050   4.855   4.084
 1625TIP3   OH2 4880   1.575   4.873   0.163
 1625TIP3    H1 4881   1.485   4.864   0.131
 1625TIP3    H2 4882   1.595   4.966   0.149
 1626TIP3   OH2 4883   2.268   3.799   1.556
 1626TIP3    H1 4884   2.200   3.755   1.607
 1626TIP3    H2 4885   2.265   3.890   1.585
 1627TIP3   OH2 4886   1.641   1.008   4.249
 1627TIP3    H1 4887   1.613   0.930   4.298
 1627TIP3    H2 4888   1.561   1.038   4.205
 1628TIP3   OH2 4889   1.281   4.097   1.110
 1628TIP3    H1 4890   1.276   4.020   1.054
 1628TIP3    H2 4891   1.321   4.065   1.191
 1629TIP3   OH2 4892   2.078   0.695   1.617
 1629TIP3    H1 4893   2.035   0.773   1.580
 1629TIP3    H2 4894   2.009   0.652   1.668
 1630TIP3   OH2 4895   4.917   0.776   3.951
 1630TIP3    H1 4896   4.866   0.775   4.032
 1630TIP3    H2 4897   4.852   0.765   3.882
 1631TIP3   OH2 4898   2.094   5.440   1.894
 1631TIP3    H1 4899   2.003   5.444   1.863
 1631TIP3    H2 4900   2.112   5.346   1.903
 1632TIP3   OH2 4901   2.697   3.814   2.876
 1632TIP3    H1 4902   2.728   3.897   2.914
 1632TIP3    H2 4903   2.668   3.763   2.952
 1633TIP3   OH2 4904   5.031   0.906   0.794
 1633TIP3    H1 4905   5.113   0.899   0.843
 1633TIP3    H2 4906   4.988   0.983   0.831
 1634TIP3   OH2 4907   1.103   4.766   1.277
 1634TIP3    H1 4908   1.182   4.813   1.303
 1634TIP3    H2 4909   1.133   4.676   1.260
 1635TIP3   OH2 4910   6.167   4.276   3.487
 1635TIP3    H1 4911   6.088   4.327   3.505
 1635TIP3    H2 4912   6.134   4.193   3.452
 1636TIP3   OH2 4913   1.326   4.415   3.447
 1636TIP3    H1 4914   1.281   4.416   3.363
 1636TIP3    H2 4915   1.362   4.503   3.457
 1637TIP3   OH2 4916   5.558   3.227   3.121
 1637TIP3    H1 4917   5.595   3.309   3.087
 1637TIP3    H2 4918   5.613   3.206   3.197
 1638TIP3   OH2 4919   0.353   3.804   4.555
 1638TIP3    H1 4920   0.306   3.722   4.542
 1638TIP3    H2 4921   0.444   3.778   4.564
 1639TIP3   OH2 4922   4.343   0.679   1.797
 1639TIP3    H1 4923   4.436   0.662   1.782
 1639TIP3    H2 4924   4.300   0.649   1.717
 1640TIP3   OH2 4925   2.444   2.096   4.000
 1640TIP3    H1 4926   2.524   2.047   3.982
 1640TIP3    H2 4927   2.472   2.169   4.055
 1641TIP3   OH2 4928   2.703   2.801   0.073
 1641TIP3    H1 4929   2.767   2.823   0.005
 1641TIP3    H2 4930   2.734   2.848   0.150
 1642TIP3   OH2 4931   0.001   1.900   2.693
 1642TIP3    H1 4932   0.061   1.917   2.766
 1642TIP3    H2 4933   0.052   1.921   2.615
 1643TIP3   OH2 4934   4.692   5.529   2.121
 1643TIP3    H1 4935   4.741   5.490   2.049
 1643TIP3    H2 4936   4.612   5.477   2.128
 1644TIP3   OH2 4937   1.625   3.795   0.489
 1644TIP3    H1 4938   1.664   3.710   0.512
 1644TIP3    H2 4939   1.684   3.832   0.424
 1645TIP3   OH2 4940   0.666   5.461   1.898
 1645TIP3    H1 4941   0.638   5.457   1.989
 1645TIP3    H2 4942   0.738   5.523   1.897
 1646TIP3   OH2 4943   4.350   3.414   1.237
 1646TIP3    H1 4944   4.310   3.500   1.250
 1646TIP3    H2 4945   4.374   3.413   1.144
 1647TIP3   OH2 4946   0.170   3.527   3.983
 1647TIP3    H1 4947   0.246   3.567   4.024
 1647TIP3    H2 4948   0.206   3.459   3.926
 1648TIP3   OH2 4949   3.397   4.352   4.455
 1648TIP3    H1 4950   3.461   4.326   4.520
 1648TIP3    H2 4951   3.387   4.276   4.398
 1649TIP3   OH2 4952   3.278   3.661   0.789
 1649TIP3    H1 4953   3.243   3.702   0.868
 1649TIP3    H2 4954   3.302   3.735   0.733
 1650TIP3   OH2 4955   2.401   4.220   4.372
 1650TIP3    H1 4956   2.361   4.157   4.312
 1650TIP3    H2 4957   2.450   4.166   4.434
 1651TIP3   OH2 4958   2.953   1.626   3.115
 1651TIP3    H1 4959   2.972   1.554   3.055
 1651TIP3    H2 4960   3.033   1.678   3.117
 1652TIP3   OH2 4961   0.691   4.055   0.768
 1652TIP3    H1 4962   0.759   4.024   0.709
 1652TIP3    H2 4963   0.639   3.977   0.788
 1653TIP3   OH2 4964   3.159   2.833   2.286
 1653TIP3    H1 4965   3.085   2.887   2.313
 1653TIP3    H2 4966   3.155   2.834   2.190
 1654TIP3   OH2 4967   1.045   1.080   1.100
 1654TIP3    H1 4968   1.049   1.132   1.020
 1654TIP3    H2 4969   1.099   1.129   1.162
 1655TIP3   OH2 4970   4.895   1.624   4.281
 1655TIP3    H1 4971   4.825   1.673   4.237
 1655TIP3    H2 4972   4.907   1.546   4.226
 1656TIP3   OH2 4973   4.979   4.237   4.209
 1656TIP3    H1 4974   4.913   4.303   4.188
 1656TIP3    H2 4975   5.009   4.261   4.297
 1657TIP3   OH2 4976   0.998   1.960   0.164
 1657TIP3    H1 4977   0.978   1.880   0.115
 1657TIP3    H2 4978   1.084   1.986   0.132
 1658TIP3   OH2 4979   4.178   2.773   2.617
 1658TIP3    H1 4980   4.117   2.738   2.682
 1658TIP3    H2 4981   4.126   2.835   2.566
 1659TIP3   OH2 4982   0.701   0.452   1.946
 1659TIP3    H1 4983   0.675   0.490   2.030
 1659TIP3    H2 4984   0.684   0.520   1.882
 1660TIP3   OH2 4985   5.367   5.087   3.081
 1660TIP3    H1 4986   5.382   5.151   3.012
 1660TIP3    H2 4987   5.331   5.011   3.036
 1661TIP3   OH2 4988   4.067   1.353   0.068
 1661TIP3    H1 4989   4.111   1.429   0.030
 1661TIP3    H2 4990   3.974   1.373   0.061
 1662TIP3   OH2 4991   0.018   2.328   1.168
 1662TIP3    H1 4992   0.109   2.356   1.163
 1662TIP3    H2 4993  -0.010   2.319   1.077
 1663TIP3   OH2 4994   3.833   3.100   2.895
 1663TIP3    H1 4995   3.836   3.185   2.939
 1663TIP3    H2 4996   3.867   3.038   2.960
 1664TIP3   OH2 4997   1.243   4.506   3.795
 1664TIP3    H1 4998   1.225   4.523   3.703
 1664TIP3    H2 4999   1.188   4.430   3.816
 1665TIP3   OH2 5000   5.148   5.177   4.720
 1665TIP3    H1 5001   5.169   5.152   4.810
 1665TIP3    H2 5002   5.056   5.201   4.723
 1666TIP3   OH2 5003   0.872   3.509   2.087
 1666TIP3    H1 5004   0.907   3.444   2.148
 1666TIP3    H2 5005   0.822   3.457   2.024
 1667TIP3   OH2 5006   6.180   3.701   2.219
 1667TIP3    H1 5007   6.131   3.783   2.225
 1667TIP3    H2 5008   6.113   3.633   2.216
 1668TIP3   OH2 5009   3.088   2.756   4.212
 1668TIP3    H1 5010   3.002   2.774   4.248
 1668TIP3    H2 5011   3.136   2.839   4.221
 1669TIP3   OH2 5012   4.452   1.444   5.213
 1669TIP3    H1 5013   4.369   1.446   5.164
 1669TIP3    H2 5014   4.490   1.530   5.199
 1670TIP3   OH2 5015   4.958   1.443   0.063
 1670TIP3    H1 5016   4.930   1.436   0.154
 1670TIP3    H2 5017   4.931   1.360   0.023
 1671TIP3   OH2 5018   1.470   0.256   1.048
 1671TIP3    H1 5019   1.529   0.244   0.973
 1671TIP3    H2 5020   1.393   0.203   1.026
 1672TIP3   OH2 5021   4.527   2.956   3.737
 1672TIP3    H1 5022   4.618   2.963   3.765
 1672TIP3    H2 5023   4.524   2.878   3.683
 1673TIP3   OH2 5024   2.321   2.565   0.937
 1673TIP3    H1 5025   2.367   2.497   0.888
 1673TIP3    H2 5026   2.337   2.543   1.029
 1674TIP3   OH2 5027   4.579   5.403   4.986
 1674TIP3    H1 5028   4.505   5.364   5.032
 1674TIP3    H2 5029   4.632   5.327   4.958
 1675TIP3   OH2 5030   1.861   0.075   0.629
 1675TIP3    H1 5031   1.775   0.091   0.669
 1675TIP3    H2 5032   1.843   0.010   0.561
 1676TIP3   OH2 5033   1.989   0.145   4.372
 1676TIP3    H1 5034   1.918   0.152   4.308
 1676TIP3    H2 5035   1.984   0.055   4.405
 1677TIP3   OH2 5036   4.666   1.253   0.957
 1677TIP3    H1 5037   4.695   1.343   0.970
 1677TIP3    H2 5038   4.587   1.260   0.904
 1678TIP3   OH2 5039   0.188   5.242   3.184
 1678TIP3    H1 5040   0.209   5.163   3.134
 1678TIP3    H2 5041   0.100   5.266   3.154
 1679TIP3   OH2 5042   3.431   4.455   1.083
 1679TIP3    H1 5043   3.468   4.422   1.165
 1679TIP3    H2 5044   3.372   4.386   1.054
 1680TIP3   OH2 5045   4.783   3.829   3.504
 1680TIP3    H1 5046   4.742   3.765   3.563
 1680TIP3    H2 5047   4.720   3.902   3.501
 1681TIP3   OH2 5048   5.463   1.889   3.111
 1681TIP3    H1 5049   5.492   1.799   3.096
 1681TIP3    H2 5050   5.524   1.942   3.061
 1682TIP3   OH2 5051   0.841   2.439   3.102
 1682TIP3    H1 5052   0.886   2.385   3.167
 1682TIP3    H2 5053   0.883   2.417   3.019
 1683TIP3   OH2 5054   6.323   2.247   0.571
 1683TIP3    H1 5055   6.251   2.273   0.628
 1683TIP3    H2 5056   6.299   2.282   0.485
 1684TIP3   OH2 5057   0.747   3.312   4.108
 1684TIP3    H1 5058   0.754   3.358   4.191
 1684TIP3    H2 5059   0.678   3.247   4.121
 1685TIP3   OH2 5060   2.875   0.658   0.346
 1685TIP3    H1 5061   2.861   0.605   0.268
 1685TIP3    H2 5062   2.909   0.741   0.313
 1686TIP3   OH2 5063   4.826   3.489   0.575
 1686TIP3    H1 5064   4.881   3.564   0.551
 1686TIP3    H2 5065   4.740   3.510   0.540
 1687TIP3   OH2 5066   2.775   1.659   1.321
 1687TIP3    H1 5067   2.862   1.634   1.351
 1687TIP3    H2 5068   2.735   1.704   1.396
 1688TIP3   OH2 5069   1.008   1.326   2.053
 1688TIP3    H1 5070   1.063   1.400   2.079
 1688TIP3    H2 5071   0.929   1.336   2.106
 1689TIP3   OH2 5072   1.189   5.428   2.229
 1689TIP3    H1 5073   1.115   5.384   2.188
 1689TIP3    H2 5074   1.245   5.454   2.155
 1690TIP3   OH2 5075   1.731   5.019   3.973
 1690TIP3    H1 5076   1.749   5.094   4.030
 1690TIP3    H2 5077   1.702   5.058   3.891
 1691TIP3   OH2 5078   0.952   0.350   1.883
 1691TIP3    H1 5079   0.867   0.395   1.889
 1691TIP3    H2 5080   0.942   0.290   1.809
 1692TIP3   OH2 5081   1.608   2.819   3.435
 1692TIP3    H1 5082   1.596   2.855   3.522
 1692TIP3    H2 5083   1.640   2.730   3.449
 1693TIP3   OH2 5084   4.908   3.777   2.378
 1693TIP3    H1 5085   4.853   3.701   2.395
 1693TIP3    H2 5086   4.887   3.838   2.449
 1694TIP3   OH2 5087   5.761   5.660   2.835
 1694TIP3    H1 5088   5.730   5.733   2.889
 1694TIP3    H2 5089   5.681   5.623   2.798
 1695TIP3   OH2 5090   4.955   5.595   1.860
 1695TIP3    H1 5091   4.870   5.638   1.851
 1695TIP3    H2 5092   5.012   5.663   1.897
 1696TIP3   OH2 5093   3.879   1.980   3.835
 1696TIP3    H1 5094   3.808   1.920   3.811
 1696TIP3    H2 5095   3.959   1.930   3.822
 1697TIP3   OH2 5096   1.090   5.312   2.924
 1697TIP3    H1 5097   1.070   5.385   2.982
 1697TIP3    H2 5098   1.184   5.297   2.936
 1698TIP3   OH2 5099   0.707   2.580   2.606
 1698TIP3    H1 5100   0.743   2.552   2.522
 1698TIP3    H2 5101   0.628   2.628   2.584
 1699TIP3   OH2 5102   5.923   1.451   0.801
 1699TIP3    H1 5103   5.910   1.447   0.707
 1699TIP3    H2 5104   5.850   1.401   0.838
 1700TIP3   OH2 5105   4.361   4.302   0.850
 1700TIP3    H1 5106   4.327   4.243   0.782
 1700TIP3    H2 5107   4.286   4.319   0.906
 1701TIP3   OH2 5108   0.598   0.808   4.210
 1701TIP3    H1 5109   0.647   0.888   4.194
 1701TIP3    H2 5110   0.658   0.738   4.185
 1702TIP3   OH2 5111   1.854   0.890   1.561
 1702TIP3    H1 5112   1.781   0.940   1.597
 1702TIP3    H2 5113   1.819   0.801   1.550
 1703TIP3   OH2 5114   1.630   5.193   0.765
 1703TIP3    H1 5115   1.718   5.230   0.768
 1703TIP3    H2 5116   1.587   5.237   0.692
 1704TIP3   OH2 5117   2.681   4.190   0.567
 1704TIP3    H1 5118   2.721   4.268   0.528
 1704TIP3    H2 5119   2.619   4.224   0.631
 1705TIP3   OH2 5120   4.439   0.886   3.180
 1705TIP3    H1 5121   4.373   0.955   3.175
 1705TIP3    H2 5122   4.413   0.834   3.256
 1706TIP3   OH2 5123   5.076   1.591   2.763
 1706TIP3    H1 5124   4.990   1.627   2.744
 1706TIP3    H2 5125   5.137   1.647   2.715
 1707TIP3   OH2 5126   3.366   0.271   0.902
 1707TIP3    H1 5127   3.284   0.223   0.902
 1707TIP3    H2 5128   3.382   0.291   0.809
 1708TIP3   OH2 5129   2.612   2.748   2.948
 1708TIP3    H1 5130   2.621   2.839   2.975
 1708TIP3    H2 5131   2.636   2.697   3.025
 1709TIP3   OH2 5132   4.443   5.125   4.988
 1709TIP3    H1 5133   4.467   5.092   5.075
 1709TIP3    H2 5134   4.491   5.069   4.927
 1710TIP3   OH2 5135   2.470   1.980   5.084
 1710TIP3    H1 5136   2.554   1.951   5.047
 1710TIP3    H2 5137   2.418   2.007   5.008
 1711TIP3   OH2 5138   1.975   1.102   4.170
 1711TIP3    H1 5139   2.062   1.070   4.194
 1711TIP3    H2 5140   1.990   1.164   4.099
 1712TIP3   OH2 5141   0.400   0.221   2.809
 1712TIP3    H1 5142   0.364   0.269   2.735
 1712TIP3    H2 5143   0.364   0.265   2.886
 1713TIP3   OH2 5144   5.419   5.815   3.370
 1713TIP3    H1 5145   5.371   5.820   3.287
 1713TIP3    H2 5146   5.351   5.796   3.435
 1714TIP3   OH2 5147   1.057   4.465   0.025
 1714TIP3    H1 5148   1.010   4.387   0.057
 1714TIP3    H2 5149   1.040   4.532   0.091
 1715TIP3   OH2 5150   2.231   4.485   1.194
 1715TIP3    H1 5151   2.284   4.470   1.273
 1715TIP3    H2 5152   2.144   4.509   1.228
 1716TIP3   OH2 5153   3.127   0.052   4.473
 1716TIP3    H1 5154   3.177  -0.011   4.526
 1716TIP3    H2 5155   3.183   0.130   4.470
 1717TIP3   OH2 5156   5.599   1.503   4.276
 1717TIP3    H1 5157   5.585   1.556   4.198
 1717TIP3    H2 5158   5.538   1.539   4.340
 1718TIP3   OH2 5159   4.358   5.049   2.390
 1718TIP3    H1 5160   4.448   5.065   2.361
 1718TIP3    H2 5161   4.367   4.987   2.462
 1719TIP3   OH2 5162   4.749   2.893   4.751
 1719TIP3    H1 5163   4.724   2.910   4.660
 1719TIP3    H2 5164   4.754   2.979   4.791
 1720TIP3   OH2 5165   4.130   2.420   0.158
 1720TIP3    H1 5166   4.063   2.381   0.101
 1720TIP3    H2 5167   4.208   2.426   0.102
 1721TIP3   OH2 5168   0.681   1.292   3.552
 1721TIP3    H1 5169   0.743   1.346   3.502
 1721TIP3    H2 5170   0.702   1.202   3.527
 1722TIP3   OH2 5171   4.579   0.191   0.784
 1722TIP3    H1 5172   4.539   0.145   0.710
 1722TIP3    H2 5173   4.584   0.125   0.853
 1723TIP3   OH2 5174   2.841   1.341   1.902
 1723TIP3    H1 5175   2.837   1.329   1.997
 1723TIP3    H2 5176   2.862   1.433   1.890
 1724TIP3   OH2 5177   3.222   4.034   1.492
 1724TIP3    H1 5178   3.167   3.955   1.491
 1724TIP3    H2 5179   3.236   4.055   1.400
 1725TIP3   OH2 5180   5.665   1.230   1.278
 1725TIP3    H1 5181   5.691   1.299   1.217
 1725TIP3    H2 5182   5.608   1.275   1.341
 1726TIP3   OH2 5183   4.045   4.868   3.790
 1726TIP3    H1 5184   4.014   4.791   3.838
 1726TIP3    H2 5185   3.982   4.880   3.719
 1727TIP3   OH2 5186   4.325   5.521   0.827
 1727TIP3    H1 5187   4.281   5.469   0.894
 1727TIP3    H2 5188   4.341   5.459   0.756
 1728TIP3   OH2 5189   4.607   3.525   0.942
 1728TIP3    H1 5190   4.680   3.470   0.970
 1728TIP3    H2 5191   4.645   3.612   0.927
 1729TIP3   OH2 5192   2.911   1.756   2.270
 1729TIP3    H1 5193   2.991   1.807   2.255
 1729TIP3    H2 5194   2.846   1.821   2.296
 1730TIP3   OH2 5195   5.484   0.752   4.749
 1730TIP3    H1 5196   5.524   0.727   4.666
 1730TIP3    H2 5197   5.555   0.790   4.800
 1731TIP3   OH2 5198   4.209   3.787   1.477
 1731TIP3    H1 5199   4.201   3.776   1.572
 1731TIP3    H2 5200   4.144   3.854   1.455
 1732TIP3   OH2 5201   5.903   1.243   0.274
 1732TIP3    H1 5202   5.889   1.149   0.269
 1732TIP3    H2 5203   5.855   1.279   0.200
 1733TIP3   OH2 5204   6.215   4.012   0.606
 1733TIP3    H1 5205   6.190   3.997   0.698
 1733TIP3    H2 5206   6.309   3.992   0.604
 1734TIP3   OH2 5207   3.565   4.001   0.169
 1734TIP3    H1 5208   3.586   4.077   0.223
 1734TIP3    H2 5209   3.595   3.926   0.220
 1735TIP3   OH2 5210   4.923   4.355   3.439
 1735TIP3    H1 5211   4.859   4.419   3.470
 1735TIP3    H2 5212   4.871   4.285   3.399
 1736TIP3   OH2 5213   3.143   1.386   0.367
 1736TIP3    H1 5214   3.116   1.295   0.372
 1736TIP3    H2 5215   3.075   1.429   0.316
 1737TIP3   OH2 5216   0.280   0.209   0.778
 1737TIP3    H1 5217   0.196   0.165   0.790
 1737TIP3    H2 5218   0.313   0.176   0.695
 1738TIP3   OH2 5219   3.429   0.340   1.570
 1738TIP3    H1 5220   3.481   0.404   1.521
 1738TIP3    H2 5221   3.494   0.280   1.607
 1739TIP3   OH2 5222   2.628   2.404   3.873
 1739TIP3    H1 5223   2.644   2.312   3.895
 1739TIP3    H2 5224   2.673   2.417   3.789
 1740TIP3   OH2 5225   0.234   4.487   3.986
 1740TIP3    H1 5226   0.186   4.421   3.936
 1740TIP3    H2 5227   0.250   4.445   4.071
 1741TIP3   OH2 5228   2.549   1.753   4.074
 1741TIP3    H1 5229   2.594   1.824   4.028
 1741TIP3    H2 5230   2.609   1.679   4.067
 1742TIP3   OH2 5231   5.912   3.854   2.959
 1742TIP3    H1 5232   5.964   3.906   2.898
 1742TIP3    H2 5233   5.972   3.787   2.992
 1743TIP3   OH2 5234   5.811   0.281   4.806
 1743TIP3    H1 5235   5.740   0.220   4.826
 1743TIP3    H2 5236   5.821   0.334   4.885
 1744TIP3   OH2 5237   0.293   0.866   1.524
 1744TIP3    H1 5238   0.325   0.876   1.434
 1744TIP3    H2 5239   0.354   0.803   1.563
 1745TIP3   OH2 5240   2.677   5.026   3.830
 1745TIP3    H1 5241   2.673   4.993   3.919
 1745TIP3    H2 5242   2.626   4.964   3.778
 1746TIP3   OH2 5243   5.663   1.882   4.329
 1746TIP3    H1 5244   5.732   1.817   4.342
 1746TIP3    H2 5245   5.710   1.962   4.306
 1747TIP3   OH2 5246   1.082   2.631   1.657
 1747TIP3    H1 5247   1.060   2.560   1.597
 1747TIP3    H2 5248   1.094   2.707   1.600
 1748TIP3   OH2 5249   1.282   3.410   1.744
 1748TIP3    H1 5250   1.230   3.469   1.690
 1748TIP3    H2 5251   1.335   3.468   1.799
 1749TIP3   OH2 5252   5.117   3.433   1.969
 1749TIP3    H1 5253   5.051   3.442   1.901
 1749TIP3    H2 5254   5.068   3.402   2.045
 1750TIP3   OH2 5255   4.665   5.515   2.507
 1750TIP3    H1 5256   4.689   5.451   2.440
 1750TIP3    H2 5257   4.676   5.468   2.590
 1751TIP3   OH2 5258   0.996   0.671   1.228
 1751TIP3    H1 5259   1.053   0.702   1.158
 1751TIP3    H2 5260   1.056   0.630   1.291
 1752TIP3   OH2 5261   0.335   4.680   2.839
 1752TIP3    H1 5262   0.265   4.642   2.892
 1752TIP3    H2 5263   0.383   4.736   2.899
 1753TIP3   OH2 5264   0.857   1.433   3.405
 1753TIP3    H1 5265   0.868   1.526   3.427
 1753TIP3    H2 5266   0.820   1.433   3.317
 1754TIP3   OH2 5267   1.426   0.190   2.958
 1754TIP3    H1 5268   1.398   0.101   2.980
 1754TIP3    H2 5269   1.468   0.182   2.873
 1755TIP3   OH2 5270   2.352   4.437   1.428
 1755TIP3    H1 5271   2.275   4.478   1.467
 1755TIP3    H2 5272   2.409   4.418   1.502
 1756TIP3   OH2 5273   6.268   4.269   3.906
 1756TIP3    H1 5274   6.342   4.263   3.845
 1756TIP3    H2 5275   6.192   4.285   3.850
 1757TIP3   OH2 5276   0.462   2.316   1.612
 1757TIP3    H1 5277   0.552   2.298   1.639
 1757TIP3    H2 5278   0.411   2.314   1.693
 1758TIP3   OH2 5279   1.456   1.284   0.075
 1758TIP3    H1 5280   1.384   1.257   0.132
 1758TIP3    H2 5281   1.430   1.254  -0.012
 1759TIP3   OH2 5282   2.713   5.755   2.749
 1759TIP3    H1 5283   2.645   5.730   2.687
 1759TIP3    H2 5284   2.670   5.751   2.835
 1760TIP3   OH2 5285   4.371   0.487   4.809
 1760TIP3    H1 5286   4.306   0.543   4.766
 1760TIP3    H2 5287   4.444   0.484   4.748
 1761TIP3   OH2 5288   0.326   4.102   2.610
 1761TIP3    H1 5289   0.315   4.111   2.515
 1761TIP3    H2 5290   0.236   4.098   2.644
 1762TIP3   OH2 5291   4.736   0.424   1.073
 1762TIP3    H1 5292   4.783   0.445   0.992
 1762TIP3    H2 5293   4.760   0.494   1.133
 1763TIP3   OH2 5294   5.289   3.964   2.661
 1763TIP3    H1 5295   5.273   3.875   2.692
 1763TIP3    H2 5296   5.384   3.974   2.665
 1764TIP3   OH2 5297   5.006   3.896   1.809
 1764TIP3    H1 5298   5.027   3.890   1.902
 1764TIP3    H2 5299   5.004   3.805   1.779
 1765TIP3   OH2 5300   5.314   1.161   0.380
 1765TIP3    H1 5301   5.320   1.079   0.331
 1765TIP3    H2 5302   5.312   1.229   0.313
 1766TIP3   OH2 5303   4.671   4.688   1.451
 1766TIP3    H1 5304   4.741   4.744   1.418
 1766TIP3    H2 5305   4.612   4.677   1.376
 1767TIP3   OH2 5306   3.990   2.549   1.045
 1767TIP3    H1 5307   3.952   2.554   0.957
 1767TIP3    H2 5308   4.050   2.624   1.049
 1768TIP3   OH2 5309   3.669   3.966   0.855
 1768TIP3    H1 5310   3.602   4.032   0.872
 1768TIP3    H2 5311   3.639   3.888   0.902
 1769TIP3   OH2 5312   4.725   4.535   4.456
 1769TIP3    H1 5313   4.736   4.442   4.476
 1769TIP3    H2 5314   4.686   4.536   4.368
 1770TIP3   OH2 5315   1.064   0.373   1.088
 1770TIP3    H1 5316   1.098   0.455   1.053
 1770TIP3    H2 5317   0.981   0.359   1.043
 1771TIP3   OH2 5318   0.147   3.154   3.546
 1771TIP3    H1 5319   0.148   3.144   3.451
 1771TIP3    H2 5320   0.229   3.198   3.566
 1772TIP3   OH2 5321   5.199   2.261   0.198
 1772TIP3    H1 5322   5.223   2.272   0.290
 1772TIP3    H2 5323   5.153   2.341   0.175
 1773TIP3   OH2 5324   5.329   0.926   0.176
 1773TIP3    H1 5325   5.242   0.903   0.208
 1773TIP3    H2 5326   5.328   0.904   0.083
 1774TIP3   OH2 5327   6.274   0.145   2.927
 1774TIP3    H1 5328   6.266   0.075   2.992
 1774TIP3    H2 5329   6.360   0.131   2.887
 1775TIP3   OH2 5330   2.759   2.708   2.400
 1775TIP3    H1 5331   2.780   2.792   2.441
 1775TIP3    H2 5332   2.748   2.648   2.474
 1776TIP3   OH2 5333   6.309   2.689   5.097
 1776TIP3    H1 5334   6.334   2.779   5.116
 1776TIP3    H2 5335   6.299   2.685   5.002
 1777TIP3   OH2 5336   0.892   3.092   0.671
 1777TIP3    H1 5337   0.836   3.139   0.610
 1777TIP3    H2 5338   0.898   3.004   0.635
 1778TIP3   OH2 5339   1.520   3.782   0.170
 1778TIP3    H1 5340   1.512   3.701   0.221
 1778TIP3    H2 5341   1.589   3.831   0.215
 1779TIP3   OH2 5342   1.618   1.386   2.390
 1779TIP3    H1 5343   1.540   1.377   2.335
 1779TIP3    H2 5344   1.584   1.388   2.479
 1780TIP3   OH2 5345   0.002   0.753   1.605
 1780TIP3    H1 5346  -0.022   0.804   1.528
 1780TIP3    H2 5347   0.065   0.688   1.572
 1781TIP3   OH2 5348   5.929   0.390   3.717
 1781TIP3    H1 5349   5.923   0.453   3.789
 1781TIP3    H2 5350   5.862   0.419   3.655
 1782TIP3   OH2 5351   0.542   0.197   1.190
 1782TIP3    H1 5352   0.497   0.178   1.107
 1782TIP3    H2 5353   0.632   0.215   1.165
 1783TIP3   OH2 5354   3.712   4.094   4.376
 1783TIP3    H1 5355   3.621   4.072   4.356
 1783TIP3    H2 5356   3.763   4.045   4.311
 1784TIP3   OH2 5357   0.214   5.922   0.703
 1784TIP3    H1 5358   0.132   5.963   0.730
 1784TIP3    H2 5359   0.187   5.851   0.645
 1785TIP3   OH2 5360   1.083   3.442   4.397
 1785TIP3    H1 5361   1.169   3.469   4.428
 1785TIP3    H2 5362   1.071   3.489   4.315
 1786TIP3   OH2 5363   0.877   5.645   3.375
 1786TIP3    H1 5364   0.809   5.582   3.353
 1786TIP3    H2 5365   0.838   5.700   3.443
 1787TIP3   OH2 5366   6.231   0.277   1.080
 1787TIP3    H1 5367   6.218   0.266   1.174
 1787TIP3    H2 5368   6.195   0.197   1.042
 1788TIP3   OH2 5369   5.787   2.109   4.224
 1788TIP3    H1 5370   5.880   2.103   4.244
 1788TIP3    H2 5371   5.783   2.141   4.134
 1789TIP3   OH2 5372   5.032   3.556   3.956
 1789TIP3    H1 5373   5.001   3.547   3.866
 1789TIP3    H2 5374   4.972   3.503   4.008
 1790TIP3   OH2 5375   3.797   5.654   1.555
 1790TIP3    H1 5376   3.753   5.591   1.498
 1790TIP3    H2 5377   3.739   5.663   1.630
 1791TIP3   OH2 5378   5.363   2.075   5.091
 1791TIP3    H1 5379   5.342   2.135   5.164
 1791TIP3    H2 5380   5.380   1.991   5.134
 1792TIP3   OH2 5381   4.200   5.941   2.569
 1792TIP3    H1 5382   4.113   5.976   2.588
 1792TIP3    H2 5383   4.184   5.854   2.534
 1793TIP3   OH2 5384   5.778   0.785   1.168
 1793TIP3    H1 5385   5.686   0.784   1.141
 1793TIP3    H2 5386   5.786   0.861   1.225
 1794TIP3   OH2 5387   1.578   0.812   1.006
 1794TIP3    H1 5388   1.619   0.887   1.050
 1794TIP3    H2 5389   1.583   0.741   1.070
 1795TIP3   OH2 5390   2.326   4.060   2.199
 1795TIP3    H1 5391   2.381   4.129   2.162
 1795TIP3    H2 5392   2.280   4.022   2.124
 1796TIP3   OH2 5393   0.326   3.363   2.556
 1796TIP3    H1 5394   0.379   3.294   2.596
 1796TIP3    H2 5395   0.357   3.444   2.598
 1797TIP3   OH2 5396   2.789   1.003   4.779
 1797TIP3    H1 5397   2.801   1.046   4.694
 1797TIP3    H2 5398   2.878   0.996   4.816
 1798TIP3   OH2 5399   3.075   0.014   1.214
 1798TIP3    H1 5400   3.063   0.109   1.204
 1798TIP3    H2 5401   3.018  -0.024   1.148
 1799TIP3   OH2 5402   3.875   3.741   0.759
 1799TIP3    H1 5403   3.829   3.820   0.785
 1799TIP3    H2 5404   3.965   3.754   0.789
 1800TIP3   OH2 5405   3.071   1.687   2.659
 1800TIP3    H1 5406   3.066   1.657   2.568
 1800TIP3    H2 5407   2.995   1.650   2.701
 1801TIP3   OH2 5408   5.091   0.023   3.912
 1801TIP3    H1 5409   5.075   0.097   3.970
 1801TIP3    H2 5410   5.004  -0.001   3.879
 1802TIP3   OH2 5411   3.847   0.718   1.577
 1802TIP3    H1 5412   3.754   0.740   1.575
 1802TIP3    H2 5413   3.850   0.624   1.561
 1803TIP3   OH2 5414   3.593   2.710   4.708
 1803TIP3    H1 5415   3.559   2.635   4.660
 1803TIP3    H2 5416   3.662   2.746   4.651
 1804TIP3   OH2 5417   5.052   5.237   0.551
 1804TIP3    H1 5418   4.984   5.171   0.536
 1804TIP3    H2 5419   5.005   5.320   0.552
 1805TIP3   OH2 5420   4.702   5.110   4.049
 1805TIP3    H1 5421   4.767   5.180   4.047
 1805TIP3    H2 5422   4.729   5.050   3.979
 1806TIP3   OH2 5423   6.211   2.574   2.857
 1806TIP3    H1 5424   6.175   2.612   2.776
 1806TIP3    H2 5425   6.146   2.510   2.885
 1807TIP3   OH2 5426   1.358   2.335   2.230
 1807TIP3    H1 5427   1.293   2.404   2.238
 1807TIP3    H2 5428   1.433   2.377   2.188
 1808TIP3   OH2 5429   1.166   1.962   2.034
 1808TIP3    H1 5430   1.138   1.948   2.124
 1808TIP3    H2 5431   1.156   2.057   2.021
 1809TIP3   OH2 5432   2.887   5.429   2.731
 1809TIP3    H1 5433   2.980   5.432   2.711
 1809TIP3    H2 5434   2.847   5.494   2.673
 1810TIP3   OH2 5435   4.345   3.102   4.994
 1810TIP3    H1 5436   4.419   3.050   5.025
 1810TIP3    H2 5437   4.270   3.069   5.043
 1811TIP3   OH2 5438   2.576   5.909   3.175
 1811TIP3    H1 5439   2.654   5.855   3.185
 1811TIP3    H2 5440   2.518   5.857   3.118
 1812TIP3   OH2 5441   3.456   4.202   3.089
 1812TIP3    H1 5442   3.392   4.133   3.109
 1812TIP3    H2 5443   3.446   4.266   3.160
 1813TIP3   OH2 5444   2.382   0.922   4.741
 1813TIP3    H1 5445   2.384   0.975   4.821
 1813TIP3    H2 5446   2.289   0.912   4.721
 1814TIP3   OH2 5447   1.728   4.433   4.531
 1814TIP3    H1 5448   1.782   4.512   4.519
 1814TIP3    H2 5449   1.710   4.431   4.625
 1815TIP3   OH2 5450   0.412   5.134   1.565
 1815TIP3    H1 5451   0.362   5.215   1.554
 1815TIP3    H2 5452   0.459   5.145   1.647
 1816TIP3   OH2 5453   1.966   1.012   4.855
 1816TIP3    H1 5454   1.972   0.995   4.949
 1816TIP3    H2 5455   2.049   1.055   4.833
 1817TIP3   OH2 5456   3.675   3.709   4.097
 1817TIP3    H1 5457   3.632   3.693   4.181
 1817TIP3    H2 5458   3.673   3.804   4.086
 1818TIP3   OH2 5459   2.127   3.722   0.498
 1818TIP3    H1 5460   2.215   3.726   0.460
 1818TIP3    H2 5461   2.141   3.692   0.588
 1819TIP3   OH2 5462   2.612   0.768   4.831
 1819TIP3    H1 5463   2.537   0.806   4.785
 1819TIP3    H2 5464   2.671   0.843   4.846
 1820TIP3   OH2 5465   0.067   4.867   1.262
 1820TIP3    H1 5466   0.152   4.842   1.226
 1820TIP3    H2 5467   0.080   4.956   1.296
 1821TIP3   OH2 5468   5.245   2.536   4.597
 1821TIP3    H1 5469   5.267   2.451   4.557
 1821TIP3    H2 5470   5.247   2.598   4.525
 1822TIP3   OH2 5471   5.565   4.825   0.467
 1822TIP3    H1 5472   5.519   4.874   0.535
 1822TIP3    H2 5473   5.514   4.744   0.457
 1823TIP3   OH2 5474   1.612   3.160   3.814
 1823TIP3    H1 5475   1.588   3.143   3.905
 1823TIP3    H2 5476   1.582   3.083   3.766
 1824TIP3   OH2 5477   3.420   3.330   1.239
 1824TIP3    H1 5478   3.367   3.259   1.202
 1824TIP3    H2 5479   3.364   3.370   1.305
 1825TIP3   OH2 5480   0.865   1.931   1.947
 1825TIP3    H1 5481   0.951   1.972   1.940
 1825TIP3    H2 5482   0.884   1.839   1.966
 1826TIP3   OH2 5483   6.290   4.956   2.578
 1826TIP3    H1 5484   6.363   4.979   2.521
 1826TIP3    H2 5485   6.228   4.910   2.522
 1827TIP3   OH2 5486   0.701   2.820   3.939
 1827TIP3    H1 5487   0.682   2.847   4.028
 1827TIP3    H2 5488   0.619   2.782   3.907
 1828TIP3   OH2 5489   0.753   1.342   4.396
 1828TIP3    H1 5490   0.827   1.383   4.442
 1828TIP3    H2 5491   0.675   1.372   4.443
 1829TIP3   OH2 5492   2.590   1.665   2.025
 1829TIP3    H1 5493   2.576   1.575   1.997
 1829TIP3    H2 5494   2.547   1.670   2.111
 1830TIP3   OH2 5495   4.795   2.509   4.804
 1830TIP3    H1 5496   4.752   2.558   4.873
 1830TIP3    H2 5497   4.877   2.556   4.788
 1831TIP3   OH2 5498   5.171   2.340   2.208
 1831TIP3    H1 5499   5.258   2.308   2.230
 1831TIP3    H2 5500   5.173   2.351   2.113
 1832TIP3   OH2 5501   2.789   1.300   0.100
 1832TIP3    H1 5502   2.793   1.313   0.005
 1832TIP3    H2 5503   2.768   1.207   0.110
 1833TIP3   OH2 5504   3.766   2.005   1.902
 1833TIP3    H1 5505   3.673   1.986   1.891
 1833TIP3    H2 5506   3.777   2.093   1.864
 1834TIP3   OH2 5507   5.034   4.554   2.271
 1834TIP3    H1 5508   5.039   4.618   2.342
 1834TIP3    H2 5509   5.073   4.474   2.307
 1835TIP3   OH2 5510   1.994   5.675   2.113
 1835TIP3    H1 5511   2.078   5.629   2.106
 1835TIP3    H2 5512   1.928   5.608   2.093
 1836TIP3   OH2 5513   4.515   0.295   1.117
 1836TIP3    H1 5514   4.498   0.346   1.197
 1836TIP3    H2 5515   4.587   0.341   1.074
 1837TIP3   OH2 5516   6.172   3.801   2.621
 1837TIP3    H1 5517   6.250   3.796   2.677
 1837TIP3    H2 5518   6.141   3.710   2.616
 1838TIP3   OH2 5519   2.183   5.777   3.444
 1838TIP3    H1 5520   2.173   5.791   3.538
 1838TIP3    H2 5521   2.250   5.839   3.417
 1839TIP3   OH2 5522   2.232   4.130   1.405
 1839TIP3    H1 5523   2.157   4.106   1.459
 1839TIP3    H2 5524   2.302   4.148   1.467
 1840TIP3   OH2 5525   2.410   5.624   4.792
 1840TIP3    H1 5526   2.476   5.586   4.734
 1840TIP3    H2 5527   2.389   5.555   4.855
 1841TIP3   OH2 5528   0.626   2.619   4.583
 1841TIP3    H1 5529   0.552   2.560   4.602
 1841TIP3    H2 5530   0.674   2.575   4.513
 1842TIP3   OH2 5531   4.757   1.329   1.786
 1842TIP3    H1 5532   4.694   1.369   1.726
 1842TIP3    H2 5533   4.710   1.256   1.826
 1843TIP3   OH2 5534   6.280   5.094   3.529
 1843TIP3    H1 5535   6.323   5.180   3.524
 1843TIP3    H2 5536   6.190   5.114   3.556
 1844TIP3   OH2 5537   6.195   2.022   0.795
 1844TIP3    H1 5538   6.247   2.027   0.715
 1844TIP3    H2 5539   6.111   1.986   0.767
 1845TIP3   OH2 5540   0.949   3.018   1.207
 1845TIP3    H1 5541   0.940   3.096   1.152
 1845TIP3    H2 5542   0.951   2.945   1.144
 1846TIP3   OH2 5543   2.587   0.567   2.424
 1846TIP3    H1 5544   2.529   0.631   2.384
 1846TIP3    H2 5545   2.671   0.612   2.431
 1847TIP3   OH2 5546   5.159   1.860   2.821
 1847TIP3    H1 5547   5.167   1.951   2.850
 1847TIP3    H2 5548   5.145   1.866   2.726
 1848TIP3   OH2 5549   1.175   2.414   1.260
 1848TIP3    H1 5550   1.205   2.444   1.346
 1848TIP3    H2 5551   1.218   2.472   1.198
 1849TIP3   OH2 5552   1.938   3.633   0.066
 1849TIP3    H1 5553   2.023   3.675   0.080
 1849TIP3    H2 5554   1.879   3.677   0.127
 1850TIP3   OH2 5555   0.418   4.013   0.879
 1850TIP3    H1 5556   0.366   3.935   0.863
 1850TIP3    H2 5557   0.363   4.085   0.846
 1851TIP3   OH2 5558   2.533   2.534   4.230
 1851TIP3    H1 5559   2.562   2.511   4.318
 1851TIP3    H2 5560   2.559   2.626   4.220
 1852TIP3   OH2 5561   1.573   5.810   3.294
 1852TIP3    H1 5562   1.536   5.897   3.282
 1852TIP3    H2 5563   1.569   5.770   3.207
 1853TIP3   OH2 5564   2.910   0.515   1.637
 1853TIP3    H1 5565   2.953   0.592   1.600
 1853TIP3    H2 5566   2.982   0.461   1.669
 1854TIP3   OH2 5567   1.908   4.447   0.827
 1854TIP3    H1 5568   1.919   4.391   0.750
 1854TIP3    H2 5569   1.910   4.386   0.901
 1855TIP3   OH2 5570   2.318   4.614   2.941
 1855TIP3    H1 5571   2.318   4.706   2.965
 1855TIP3    H2 5572   2.403   4.581   2.969
 1856TIP3   OH2 5573   1.542   5.647   0.635
 1856TIP3    H1 5574   1.560   5.562   0.597
 1856TIP3    H2 5575   1.558   5.710   0.565
 1857TIP3   OH2 5576   0.848   3.960   0.522
 1857TIP3    H1 5577   0.921   3.920   0.568
 1857TIP3    H2 5578   0.889   4.014   0.454
 1858TIP3   OH2 5579   0.649   2.248   3.757
 1858TIP3    H1 5580   0.626   2.162   3.722
 1858TIP3    H2 5581   0.730   2.272   3.712
 1859TIP3   OH2 5582   0.183   0.984   5.134
 1859TIP3    H1 5583   0.201   0.912   5.073
 1859TIP3    H2 5584   0.267   1.031   5.141
 1860TIP3   OH2 5585   5.561   2.441   2.733
 1860TIP3    H1 5586   5.521   2.369   2.684
 1860TIP3    H2 5587   5.492   2.506   2.740
 1861TIP3   OH2 5588   0.870   4.474   4.377
 1861TIP3    H1 5589   0.819   4.499   4.299
 1861TIP3    H2 5590   0.852   4.381   4.389
 1862TIP3   OH2 5591   0.552   2.683   5.020
 1862TIP3    H1 5592   0.573   2.615   5.084
 1862TIP3    H2 5593   0.621   2.677   4.955
 1863TIP3   OH2 5594   3.038   1.553   0.841
 1863TIP3    H1 5595   3.096   1.530   0.769
 1863TIP3    H2 5596   3.038   1.475   0.898
 1864TIP3   OH2 5597   0.450   5.443   3.835
 1864TIP3    H1 5598   0.377   5.472   3.781
 1864TIP3    H2 5599   0.474   5.358   3.798
 1865TIP3   OH2 5600   0.328   2.916   1.002
 1865TIP3    H1 5601   0.322   3.003   1.042
 1865TIP3    H2 5602   0.265   2.918   0.931
 1866TIP3   OH2 5603   3.014   0.190   5.014
 1866TIP3    H1 5604   3.041   0.281   5.023
 1866TIP3    H2 5605   3.056   0.145   5.087
 1867TIP3   OH2 5606   1.434   4.927   4.074
 1867TIP3    H1 5607   1.470   4.974   4.149
 1867TIP3    H2 5608   1.419   4.994   4.008
 1868TIP3   OH2 5609   5.341   5.057   0.557
 1868TIP3    H1 5610   5.276   5.007   0.507
 1868TIP3    H2 5611   5.330   5.027   0.647
 1869TIP3   OH2 5612   2.593   4.819   3.679
 1869TIP3    H1 5613   2.570   4.838   3.587
 1869TIP3    H2 5614   2.518   4.769   3.712
 1870TIP3   OH2 5615   4.809   0.210   1.308
 1870TIP3    H1 5616   4.887   0.261   1.328
 1870TIP3    H2 5617   4.747   0.274   1.272
 1871TIP3   OH2 5618   3.183   0.713   2.997
 1871TIP3    H1 5619   3.137   0.750   2.921
 1871TIP3    H2 5620   3.246   0.780   3.022
 1872TIP3   OH2 5621   0.435   3.662   0.921
 1872TIP3    H1 5622   0.383   3.700   0.992
 1872TIP3    H2 5623   0.370   3.620   0.864
 1873TIP3   OH2 5624   0.600   4.274   1.793
 1873TIP3    H1 5625   0.533   4.207   1.803
 1873TIP3    H2 5626   0.642   4.255   1.710
 1874TIP3   OH2 5627   1.831   3.922  -0.022
 1874TIP3    H1 5628   1.884   3.980  -0.076
 1874TIP3    H2 5629   1.854   3.945   0.068
 1875TIP3   OH2 5630   2.651   4.776   1.555
 1875TIP3    H1 5631   2.705   4.714   1.507
 1875TIP3    H2 5632   2.693   4.861   1.541
 1876TIP3   OH2 5633   4.539   1.804   2.738
 1876TIP3    H1 5634   4.526   1.894   2.767
 1876TIP3    H2 5635   4.554   1.755   2.819
 1877TIP3   OH2 5636   4.291   2.429   3.198
 1877TIP3    H1 5637   4.350   2.502   3.217
 1877TIP3    H2 5638   4.210   2.452   3.242
 1878TIP3   OH2 5639   3.964   5.189   4.772
 1878TIP3    H1 5640   3.987   5.096   4.778
 1878TIP3    H2 5641   3.963   5.219   4.863
 1879TIP3   OH2 5642   3.617   4.821   1.819
 1879TIP3    H1 5643   3.696   4.797   1.868
 1879TIP3    H2 5644   3.586   4.738   1.782
 1880TIP3   OH2 5645   0.163   0.615   3.731
 1880TIP3    H1 5646   0.237   0.645   3.677
 1880TIP3    H2 5647   0.203   0.584   3.812
 1881TIP3   OH2 5648   1.984   3.627   4.948
 1881TIP3    H1 5649   2.061   3.645   4.893
 1881TIP3    H2 5650   2.017   3.567   5.015
 1882TIP3   OH2 5651   1.151   4.208   2.490
 1882TIP3    H1 5652   1.223   4.147   2.504
 1882TIP3    H2 5653   1.160   4.272   2.561
 1883TIP3   OH2 5654   6.161   2.683   3.812
 1883TIP3    H1 5655   6.114   2.612   3.855
 1883TIP3    H2 5656   6.201   2.732   3.884
 1884TIP3   OH2 5657   5.609   0.932   0.274
 1884TIP3    H1 5658   5.583   0.998   0.209
 1884TIP3    H2 5659   5.532   0.876   0.283
 1885TIP3   OH2 5660   2.549   0.725   1.402
 1885TIP3    H1 5661   2.589   0.721   1.489
 1885TIP3    H2 5662   2.486   0.796   1.407
 1886TIP3   OH2 5663   0.024   5.645   4.960
 1886TIP3    H1 5664   0.097   5.597   4.922
 1886TIP3    H2 5665   0.046   5.655   5.052
 1887TIP3   OH2 5666   1.750   0.437   0.196
 1887TIP3    H1 5667   1.702   0.465   0.119
 1887TIP3    H2 5668   1.769   0.518   0.243
 1888TIP3   OH2 5669   1.346   0.694   3.078
 1888TIP3    H1 5670   1.262   0.686   3.123
 1888TIP3    H2 5671   1.411   0.703   3.148
 1889TIP3   OH2 5672   1.019   5.010   1.190
 1889TIP3    H1 5673   1.006   5.054   1.274
 1889TIP3    H2 5674   1.020   4.917   1.211
 1890TIP3   OH2 5675   5.974   4.985   0.215
 1890TIP3    H1 5676   6.038   4.983   0.287
 1890TIP3    H2 5677   5.951   5.078   0.206
 1891TIP3   OH2 5678   3.765   4.580   0.659
 1891TIP3    H1 5679   3.683   4.545   0.694
 1891TIP3    H2 5680   3.767   4.671   0.689
 1892TIP3   OH2 5681   3.113   1.933   2.093
 1892TIP3    H1 5682   3.070   2.015   2.118
 1892TIP3    H2 5683   3.182   1.960   2.031
 1893TIP3   OH2 5684   5.146   0.487   0.766
 1893TIP3    H1 5685   5.128   0.476   0.673
 1893TIP3    H2 5686   5.065   0.525   0.801
 1894TIP3   OH2 5687   4.919   3.774   4.959
 1894TIP3    H1 5688   4.824   3.784   4.963
 1894TIP3    H2 5689   4.937   3.755   4.867
 1895TIP3   OH2 5690   6.128   4.069   1.389
 1895TIP3    H1 5691   6.082   4.130   1.332
 1895TIP3    H2 5692   6.170   4.125   1.455
 1896TIP3   OH2 5693  -0.015   3.326   2.217
 1896TIP3    H1 5694   0.054   3.281   2.168
 1896TIP3    H2 5695   0.032   3.387   2.274
 1897TIP3   OH2 5696   4.837   3.006   2.485
 1897TIP3    H1 5697   4.901   3.077   2.491
 1897TIP3    H2 5698   4.866   2.942   2.551
 1898TIP3   OH2 5699   3.675   3.280   2.365
 1898TIP3    H1 5700   3.644   3.356   2.415
 1898TIP3    H2 5701   3.673   3.309   2.274
 1899TIP3   OH2 5702   6.141   0.760   3.168
 1899TIP3    H1 5703   6.219   0.721   3.208
 1899TIP3    H2 5704   6.068   0.708   3.201
 1900TIP3   OH2 5705   2.821   2.633   0.403
 1900TIP3    H1 5706   2.877   2.556   0.397
 1900TIP3    H2 5707   2.753   2.609   0.466
 1901TIP3   OH2 5708   0.647   5.082   1.407
 1901TIP3    H1 5709   0.557   5.060   1.430
 1901TIP3    H2 5710   0.655   5.056   1.315
 1902TIP3   OH2 5711   2.998   2.043   1.600
 1902TIP3    H1 5712   3.034   1.954   1.604
 1902TIP3    H2 5713   2.911   2.035   1.639
 1903TIP3   OH2 5714   3.722   2.025   0.648
 1903TIP3    H1 5715   3.648   2.049   0.705
 1903TIP3    H2 5716   3.721   1.929   0.647
 1904TIP3   OH2 5717   3.699   2.502   2.734
 1904TIP3    H1 5718   3.691   2.585   2.688
 1904TIP3    H2 5719   3.612   2.486   2.771
 1905TIP3   OH2 5720   4.621   1.276   3.938
 1905TIP3    H1 5721   4.672   1.356   3.949
 1905TIP3    H2 5722   4.675   1.209   3.981
 1906TIP3   OH2 5723   5.159   0.047   4.915
 1906TIP3    H1 5724   5.077   0.047   4.963
 1906TIP3    H2 5725   5.176   0.139   4.894
 1907TIP3   OH2 5726   0.598   4.571   4.457
 1907TIP3    H1 5727   0.649   4.490   4.452
 1907TIP3    H2 5728   0.631   4.625   4.385
 1908TIP3   OH2 5729   4.716   5.920   0.499
 1908TIP3    H1 5730   4.770   5.996   0.520
 1908TIP3    H2 5731   4.628   5.956   0.487
 1909TIP3   OH2 5732   2.542   0.756   0.427
 1909TIP3    H1 5733   2.489   0.786   0.354
 1909TIP3    H2 5734   2.597   0.831   0.449
 1910TIP3   OH2 5735   5.613   2.884   0.598
 1910TIP3    H1 5736   5.696   2.837   0.601
 1910TIP3    H2 5737   5.615   2.942   0.674
 1911TIP3   OH2 5738   1.946   4.875   2.618
 1911TIP3    H1 5739   1.875   4.817   2.644
 1911TIP3    H2 5740   1.968   4.848   2.529
 1912TIP3   OH2 5741   3.645   5.029   4.512
 1912TIP3    H1 5742   3.600   5.111   4.496
 1912TIP3    H2 5743   3.575   4.967   4.534
 1913TIP3   OH2 5744   0.169   3.531   4.493
 1913TIP3    H1 5745   0.228   3.487   4.432
 1913TIP3    H2 5746   0.143   3.611   4.447
 1914TIP3   OH2 5747   0.523   3.348   1.432
 1914TIP3    H1 5748   0.600   3.313   1.387
 1914TIP3    H2 5749   0.486   3.273   1.479
 1915TIP3   OH2 5750   3.994   4.179   5.068
 1915TIP3    H1 5751   4.027   4.107   5.123
 1915TIP3    H2 5752   4.069   4.203   5.014
 1916TIP3   OH2 5753   5.087   3.250   3.735
 1916TIP3    H1 5754   5.047   3.267   3.820
 1916TIP3    H2 5755   5.119   3.160   3.741
 1917TIP3   OH2 5756   5.932   2.109   4.822
 1917TIP3    H1 5757   5.946   2.047   4.894
 1917TIP3    H2 5758   5.840   2.134   4.830
 1918TIP3   OH2 5759   0.156   4.628   3.402
 1918TIP3    H1 5760   0.067   4.594   3.406
 1918TIP3    H2 5761   0.152   4.714   3.445
 1919TIP3   OH2 5762   5.499   2.752   3.536
 1919TIP3    H1 5763   5.462   2.779   3.452
 1919TIP3    H2 5764   5.593   2.759   3.524
 1920TIP3   OH2 5765   0.061   3.858   2.858
 1920TIP3    H1 5766   0.154   3.839   2.873
 1920TIP3    H2 5767   0.015   3.779   2.890
 1921TIP3   OH2 5768   4.575   0.465   0.720
 1921TIP3    H1 5769   4.486   0.500   0.721
 1921TIP3    H2 5770   4.564   0.371   0.736
 1922TIP3   OH2 5771   2.182   1.159   1.997
 1922TIP3    H1 5772   2.154   1.069   2.015
 1922TIP3    H2 5773   2.207   1.158   1.904
 1923TIP3   OH2 5774   3.489   0.520   2.778
 1923TIP3    H1 5775   3.545   0.442   2.769
 1923TIP3    H2 5776   3.539   0.579   2.834
 1924TIP3   OH2 5777   0.351   4.037   1.147
 1924TIP3    H1 5778   0.257   4.022   1.150
 1924TIP3    H2 5779   0.370   4.052   1.054
 1925TIP3   OH2 5780   5.898   0.805   3.529
 1925TIP3    H1 5781   5.923   0.726   3.480
 1925TIP3    H2 5782   5.940   0.794   3.614
 1926TIP3   OH2 5783   0.357   5.102   2.614
 1926TIP3    H1 5784   0.320   5.014   2.624
 1926TIP3    H2 5785   0.424   5.107   2.683
 1927TIP3   OH2 5786   1.898   2.053   0.738
 1927TIP3    H1 5787   1.968   1.989   0.725
 1927TIP3    H2 5788   1.861   2.066   0.651
 1928TIP3   OH2 5789   1.906   2.351   1.517
 1928TIP3    H1 5790   1.840   2.303   1.567
 1928TIP3    H2 5791   1.970   2.379   1.583
 1929TIP3   OH2 5792   1.209   4.144   4.837
 1929TIP3    H1 5793   1.304   4.131   4.839
 1929TIP3    H2 5794   1.197   4.228   4.793
 1930TIP3   OH2 5795   0.701   0.869   0.755
 1930TIP3    H1 5796   0.782   0.881   0.804
 1930TIP3    H2 5797   0.723   0.805   0.687
 1931TIP3   OH2 5798   5.869   5.730   0.435
 1931TIP3    H1 5799   5.886   5.641   0.465
 1931TIP3    H2 5800   5.908   5.735   0.348
 1932TIP3   OH2 5801   4.487   1.100   3.799
 1932TIP3    H1 5802   4.392   1.103   3.803
 1932TIP3    H2 5803   4.516   1.162   3.866
 1933TIP3   OH2 5804   6.149   3.957   2.143
 1933TIP3    H1 5805   6.211   3.964   2.070
 1933TIP3    H2 5806   6.091   4.032   2.131
 1934TIP3   OH2 5807   5.561   0.752   1.372
 1934TIP3    H1 5808   5.532   0.728   1.460
 1934TIP3    H2 5809   5.650   0.785   1.385
 1935TIP3   OH2 5810   4.591   4.882   0.368
 1935TIP3    H1 5811   4.615   4.973   0.379
 1935TIP3    H2 5812   4.626   4.838   0.445
 1936TIP3   OH2 5813   4.498   5.133   3.845
 1936TIP3    H1 5814   4.419   5.118   3.794
 1936TIP3    H2 5815   4.548   5.052   3.837
 1937TIP3   OH2 5816   5.248   3.661   1.898
 1937TIP3    H1 5817   5.184   3.591   1.881
 1937TIP3    H2 5818   5.252   3.710   1.816
 1938TIP3   OH2 5819   3.349   1.085   4.659
 1938TIP3    H1 5820   3.364   1.014   4.721
 1938TIP3    H2 5821   3.350   1.164   4.712
 1939TIP3   OH2 5822   0.875   3.137   3.573
 1939TIP3    H1 5823   0.938   3.184   3.628
 1939TIP3    H2 5824   0.854   3.058   3.623
 1940TIP3   OH2 5825   1.047   2.149   3.578
 1940TIP3    H1 5826   1.073   2.064   3.544
 1940TIP3    H2 5827   0.990   2.129   3.653
 1941TIP3   OH2 5828   6.126   5.311   2.892
 1941TIP3    H1 5829   6.196   5.357   2.846
 1941TIP3    H2 5830   6.046   5.355   2.865
 1942TIP3   OH2 5831   5.495   2.814   2.755
 1942TIP3    H1 5832   5.432   2.746   2.729
 1942TIP3    H2 5833   5.579   2.783   2.721
 1943TIP3   OH2 5834   1.553   2.397   2.049
 1943TIP3    H1 5835   1.571   2.387   1.956
 1943TIP3    H2 5836   1.632   2.437   2.085
 1944TIP3   OH2 5837   5.974   3.976   2.705
 1944TIP3    H1 5838   5.895   3.958   2.654
 1944TIP3    H2 5839   6.041   3.918   2.668
 1945TIP3   OH2 5840   4.770   1.470   3.812
 1945TIP3    H1 5841   4.788   1.555   3.853
 1945TIP3    H2 5842   4.855   1.426   3.811
 1946TIP3   OH2 5843   3.903   0.209   0.998
 1946TIP3    H1 5844   3.821   0.200   0.951
 1946TIP3    H2 5845   3.897   0.295   1.040
 1947TIP3   OH2 5846   0.304   2.604   3.425
 1947TIP3    H1 5847   0.265   2.627   3.510
 1947TIP3    H2 5848   0.394   2.635   3.431
 1948TIP3   OH2 5849   2.164   1.172   0.650
 1948TIP3    H1 5850   2.111   1.204   0.576
 1948TIP3    H2 5851   2.208   1.251   0.683
 1949TIP3   OH2 5852   0.355   4.124   0.584
 1949TIP3    H1 5853   0.426   4.070   0.548
 1949TIP3    H2 5854   0.342   4.193   0.519
 1950TIP3   OH2 5855   0.178   2.926   4.302
 1950TIP3    H1 5856   0.222   2.905   4.385
 1950TIP3    H2 5857   0.208   2.858   4.242
 1951TIP3   OH2 5858   3.951   0.216   2.797
 1951TIP3    H1 5859   3.991   0.225   2.711
 1951TIP3    H2 5860   3.905   0.132   2.793
 1952TIP3   OH2 5861   1.282   3.867   2.822
 1952TIP3    H1 5862   1.306   3.774   2.826
 1952TIP3    H2 5863   1.260   3.882   2.730
 1953TIP3   OH2 5864   0.079   3.425   3.425
 1953TIP3    H1 5865  -0.004   3.380   3.407
 1953TIP3    H2 5866   0.055   3.517   3.428
 1954TIP3   OH2 5867   6.204   5.831   4.319
 1954TIP3    H1 5868   6.243   5.832   4.231
 1954TIP3    H2 5869   6.251   5.761   4.364
 1955TIP3   OH2 5870   3.925   1.189   1.531
 1955TIP3    H1 5871   3.933   1.227   1.619
 1955TIP3    H2 5872   3.843   1.224   1.497
 1956TIP3   OH2 5873   4.230   2.061   4.029
 1956TIP3    H1 5874   4.278   2.051   4.111
 1956TIP3    H2 5875   4.157   2.119   4.052
 1957TIP3   OH2 5876   3.301   4.563   1.651
 1957TIP3    H1 5877   3.336   4.616   1.723
 1957TIP3    H2 5878   3.348   4.594   1.574
 1958TIP3   OH2 5879   2.502   0.440   4.680
 1958TIP3    H1 5880   2.515   0.516   4.623
 1958TIP3    H2 5881   2.584   0.434   4.730
 1959TIP3   OH2 5882   3.644   0.179   0.872
 1959TIP3    H1 5883   3.681   0.103   0.828
 1959TIP3    H2 5884   3.551   0.159   0.882
 1960TIP3   OH2 5885   1.573   3.625   4.324
 1960TIP3    H1 5886   1.481   3.653   4.320
 1960TIP3    H2 5887   1.586   3.575   4.243
 1961TIP3   OH2 5888   5.804   2.940   0.288
 1961TIP3    H1 5889   5.731   3.002   0.295
 1961TIP3    H2 5890   5.881   2.990   0.316
 1962TIP3   OH2 5891   3.847   5.371   4.334
 1962TIP3    H1 5892   3.942   5.372   4.327
 1962TIP3    H2 5893   3.830   5.356   4.427
 1963TIP3   OH2 5894   1.705   1.464   1.772
 1963TIP3    H1 5895   1.793   1.483   1.740
 1963TIP3    H2 5896   1.702   1.502   1.859
 1964TIP3   OH2 5897   1.335   5.914   1.829
 1964TIP3    H1 5898   1.249   5.912   1.872
 1964TIP3    H2 5899   1.380   5.837   1.863
 1965TIP3   OH2 5900   0.457   0.672   2.695
 1965TIP3    H1 5901   0.543   0.632   2.680
 1965TIP3    H2 5902   0.434   0.713   2.612
 1966TIP3   OH2 5903   1.107   2.660   0.516
 1966TIP3    H1 5904   1.166   2.613   0.574
 1966TIP3    H2 5905   1.146   2.650   0.429
 1967TIP3   OH2 5906   4.136   3.241   3.977
 1967TIP3    H1 5907   4.145   3.326   3.934
 1967TIP3    H2 5908   4.080   3.190   3.918
 1968TIP3   OH2 5909   2.488   1.349   4.104
 1968TIP3    H1 5910   2.536   1.287   4.050
 1968TIP3    H2 5911   2.483   1.429   4.051
 1969TIP3   OH2 5912   4.660   0.711   0.841
 1969TIP3    H1 5913   4.571   0.747   0.845
 1969TIP3    H2 5914   4.648   0.618   0.824
 1970TIP3   OH2 5915   5.940   5.409   0.615
 1970TIP3    H1 5916   6.024   5.372   0.644
 1970TIP3    H2 5917   5.881   5.398   0.689
 1971TIP3   OH2 5918   3.824   4.699   1.973
 1971TIP3    H1 5919   3.840   4.658   2.058
 1971TIP3    H2 5920   3.909   4.733   1.946
 1972TIP3   OH2 5921   0.271   2.921   4.738
 1972TIP3    H1 5922   0.232   2.911   4.651
 1972TIP3    H2 5923   0.312   3.007   4.737
 1973TIP3   OH2 5924   1.644   5.717   3.940
 1973TIP3    H1 5925   1.702   5.771   3.886
 1973TIP3    H2 5926   1.567   5.771   3.954
 1974TIP3   OH2 5927   2.471   3.369   4.268
 1974TIP3    H1 5928   2.448   3.442   4.325
 1974TIP3    H2 5929   2.387   3.327   4.248
 1975TIP3   OH2 5930   4.850   5.641   4.273
 1975TIP3    H1 5931   4.777   5.604   4.324
 1975TIP3    H2 5932   4.808   5.693   4.205
 1976TIP3   OH2 5933   1.958   2.476   3.492
 1976TIP3    H1 5934   1.994   2.397   3.452
 1976TIP3    H2 5935   1.902   2.445   3.563
 1977TIP3   OH2 5936   6.346   4.567   2.065
 1977TIP3    H1 5937   6.392   4.620   2.131
 1977TIP3    H2 5938   6.253   4.585   2.081
 1978TIP3   OH2 5939   1.871   3.631   1.093
 1978TIP3    H1 5940   1.810   3.561   1.117
 1978TIP3    H2 5941   1.818   3.711   1.092
 1979TIP3   OH2 5942   4.938   3.501   0.130
 1979TIP3    H1 5943   4.957   3.585   0.088
 1979TIP3    H2 5944   4.974   3.509   0.218
 1980TIP3   OH2 5945   0.555   4.418   0.527
 1980TIP3    H1 5946   0.545   4.499   0.577
 1980TIP3    H2 5947   0.522   4.439   0.440
 1981TIP3   OH2 5948   3.606   0.842   0.390
 1981TIP3    H1 5949   3.649   0.847   0.475
 1981TIP3    H2 5950   3.622   0.753   0.360
 1982TIP3   OH2 5951   2.295   3.220   0.846
 1982TIP3    H1 5952   2.266   3.227   0.755
 1982TIP3    H2 5953   2.245   3.147   0.881
 1983TIP3   OH2 5954   2.155   5.895   2.029
 1983TIP3    H1 5955   2.092   5.825   2.046
 1983TIP3    H2 5956   2.198   5.909   2.113
 1984TIP3   OH2 5957   1.597   0.516   3.849
 1984TIP3    H1 5958   1.644   0.523   3.766
 1984TIP3    H2 5959   1.565   0.605   3.866
 1985TIP3   OH2 5960   0.650   1.094   1.941
 1985TIP3    H1 5961   0.631   1.027   2.006
 1985TIP3    H2 5962   0.660   1.175   1.991
 1986TIP3   OH2 5963   2.741   2.158   2.137
 1986TIP3    H1 5964   2.690   2.222   2.086
 1986TIP3    H2 5965   2.787   2.107   2.070
 1987TIP3   OH2 5966   1.298   0.379   3.158
 1987TIP3    H1 5967   1.209   0.380   3.123
 1987TIP3    H2 5968   1.349   0.333   3.091
 1988TIP3   OH2 5969   4.835   5.514   5.122
 1988TIP3    H1 5970   4.797   5.492   5.036
 1988TIP3    H2 5971   4.802   5.602   5.140
 1989TIP3   OH2 5972   4.079   4.391   1.969
 1989TIP3    H1 5973   4.047   4.302   1.955
 1989TIP3    H2 5974   4.041   4.442   1.898
 1990TIP3   OH2 5975   1.589   0.926   2.710
 1990TIP3    H1 5976   1.520   0.928   2.776
 1990TIP3    H2 5977   1.574   0.845   2.662
 1991TIP3   OH2 5978   1.401   3.796   1.209
 1991TIP3    H1 5979   1.436   3.778   1.296
 1991TIP3    H2 5980   1.406   3.711   1.163
 1992TIP3   OH2 5981   5.741   4.675   4.623
 1992TIP3    H1 5982   5.677   4.627   4.571
 1992TIP3    H2 5983   5.691   4.713   4.696
 1993TIP3   OH2 5984   3.142   2.486   2.130
 1993TIP3    H1 5985   3.051   2.511   2.146
 1993TIP3    H2 5986   3.170   2.444   2.211
 1994TIP3   OH2 5987   3.255   0.708   2.263
 1994TIP3    H1 5988   3.265   0.754   2.179
 1994TIP3    H2 5989   3.268   0.616   2.241
 1995TIP3   OH2 5990   3.662   4.373   2.921
 1995TIP3    H1 5991   3.616   4.294   2.950
 1995TIP3    H2 5992   3.593   4.437   2.906
 1996TIP3   OH2 5993   2.381   4.744   1.615
 1996TIP3    H1 5994   2.475   4.762   1.607
 1996TIP3    H2 5995   2.350   4.809   1.679
 1997TIP3   OH2 5996   5.902   3.896   1.395
 1997TIP3    H1 5997   5.878   3.947   1.473
 1997TIP3    H2 5998   5.975   3.944   1.356
 1998TIP3   OH2 5999   3.093   4.838   0.451
 1998TIP3    H1 6000   3.034   4.909   0.477
 1998TIP3    H2 6001   3.123   4.863   0.363
 1999TIP3   OH2 6002   3.532   3.423   3.006
 1999TIP3    H1 6003   3.602   3.488   3.003
 1999TIP3    H2 6004   3.485   3.442   3.087
 2000TIP3   OH2 6005   1.577   1.848   3.774
 2000TIP3    H1 6006   1.535   1.918   3.825
 2000TIP3    H2 6007   1.529   1.847   3.691
 2001TIP3   OH2 6008   0.909   1.048   4.605
 2001TIP3    H1 6009   0.845   1.009   4.665
 2001TIP3    H2 6010   0.874   1.028   4.518
 2002TIP3   OH2 6011   5.586   1.208   2.040
 2002TIP3    H1 6012   5.626   1.289   2.006
 2002TIP3    H2 6013   5.572   1.154   1.963
 2003TIP3   OH2 6014   6.269   1.136   0.480
 2003TIP3    H1 6015   6.194   1.078   0.487
 2003TIP3    H2 6016   6.248   1.195   0.407
 2004TIP3   OH2 6017   2.269   5.581   2.061
 2004TIP3    H1 6018   2.334   5.625   2.006
 2004TIP3    H2 6019   2.220   5.525   2.000
 2005TIP3   OH2 6020   0.424   0.195   4.181
 2005TIP3    H1 6021   0.514   0.215   4.207
 2005TIP3    H2 6022   0.430   0.111   4.136
 2006TIP3   OH2 6023   3.826   1.761   2.778
 2006TIP3    H1 6024   3.838   1.666   2.787
 2006TIP3    H2 6025   3.766   1.784   2.849
 2007TIP3   OH2 6026   1.895   0.991   2.054
 2007TIP3    H1 6027   1.895   1.049   2.130
 2007TIP3    H2 6028   1.828   1.027   1.996
 2008TIP3   OH2 6029   3.049   4.999   0.067
 2008TIP3    H1 6030   3.125   5.057   0.068
 2008TIP3    H2 6031   2.986   5.042   0.124
 2009TIP3   OH2 6032   5.599   5.732   2.404
 2009TIP3    H1 6033   5.543   5.655   2.389
 2009TIP3    H2 6034   5.688   5.700   2.389
 2010TIP3   OH2 6035   3.303   5.679   3.503
 2010TIP3    H1 6036   3.373   5.646   3.559
 2010TIP3    H2 6037   3.223   5.663   3.553
 2011TIP3   OH2 6038   3.720   0.688   2.861
 2011TIP3    H1 6039   3.735   0.756   2.796
 2011TIP3    H2 6040   3.800   0.636   2.862
 2012TIP3   OH2 6041   0.835   1.937   4.742
 2012TIP3    H1 6042   0.878   1.884   4.809
 2012TIP3    H2 6043   0.742   1.916   4.751
 2013TIP3   OH2 6044   3.982   0.766   2.555
 2013TIP3    H1 6045   3.995   0.671   2.546
 2013TIP3    H2 6046   3.901   0.774   2.603
 2014TIP3   OH2 6047   5.649   4.332   3.019
 2014TIP3    H1 6048   5.718   4.290   2.968
 2014TIP3    H2 6049   5.602   4.387   2.956
 2015TIP3   OH2 6050   0.699   3.200   0.016
 2015TIP3    H1 6051   0.692   3.165   0.105
 2015TIP3    H2 6052   0.667   3.130  -0.040
 2016TIP3   OH2 6053   2.812   5.340   0.500
 2016TIP3    H1 6054   2.873   5.407   0.533
 2016TIP3    H2 6055   2.726   5.373   0.524
 2017TIP3   OH2 6056   0.813   3.729   3.916
 2017TIP3    H1 6057   0.854   3.663   3.860
 2017TIP3    H2 6058   0.886   3.765   3.967
 2018TIP3   OH2 6059   4.500   0.782   0.412
 2018TIP3    H1 6060   4.406   0.772   0.396
 2018TIP3    H2 6061   4.507   0.859   0.467
 2019TIP3   OH2 6062   2.069   4.839   1.927
 2019TIP3    H1 6063   2.007   4.811   1.859
 2019TIP3    H2 6064   2.130   4.766   1.934
 2020TIP3   OH2 6065   6.104   3.324   2.048
 2020TIP3    H1 6066   6.044   3.253   2.070
 2020TIP3    H2 6067   6.163   3.329   2.123
 2021TIP3   OH2 6068   2.953   5.516   0.852
 2021TIP3    H1 6069   2.867   5.499   0.890
 2021TIP3    H2 6070   3.004   5.553   0.924
 2022TIP3   OH2 6071   5.945   1.072   2.870
 2022TIP3    H1 6072   5.917   0.987   2.903
 2022TIP3    H2 6073   5.940   1.130   2.946
 2023TIP3   OH2 6074   1.918   1.027   0.775
 2023TIP3    H1 6075   1.994   0.968   0.777
 2023TIP3    H2 6076   1.955   1.115   0.783
 2024TIP3   OH2 6077   0.509   0.607   2.122
 2024TIP3    H1 6078   0.438   0.543   2.115
 2024TIP3    H2 6079   0.491   0.670   2.052
 2025TIP3   OH2 6080   3.872   2.848   4.578
 2025TIP3    H1 6081   3.845   2.761   4.608
 2025TIP3    H2 6082   3.965   2.838   4.558
 2026TIP3   OH2 6083   5.823   5.137   2.167
 2026TIP3    H1 6084   5.906   5.169   2.130
 2026TIP3    H2 6085   5.841   5.130   2.261
 2027TIP3   OH2 6086   2.464   2.401   2.728
 2027TIP3    H1 6087   2.541   2.359   2.688
 2027TIP3    H2 6088   2.481   2.396   2.822
 2028TIP3   OH2 6089   0.284   2.387   1.087
 2028TIP3    H1 6090   0.319   2.409   1.173
 2028TIP3    H2 6091   0.312   2.297   1.071
 2029TIP3   OH2 6092   0.605   4.171   2.070
 2029TIP3    H1 6093   0.610   4.219   1.987
 2029TIP3    H2 6094   0.692   4.182   2.109
 2030TIP3   OH2 6095   0.308   5.565   0.236
 2030TIP3    H1 6096   0.261   5.639   0.199
 2030TIP3    H2 6097   0.352   5.524   0.161
 2031TIP3   OH2 6098   1.567   3.771   2.944
 2031TIP3    H1 6099   1.630   3.761   3.015
 2031TIP3    H2 6100   1.503   3.701   2.958
 2032TIP3   OH2 6101   0.761   0.694   3.536
 2032TIP3    H1 6102   0.755   0.603   3.505
 2032TIP3    H2 6103   0.783   0.744   3.458
 2033TIP3   OH2 6104   3.328   0.143   4.792
 2033TIP3    H1 6105   3.358   0.226   4.830
 2033TIP3    H2 6106   3.403   0.111   4.742
 2034TIP3   OH2 6107   2.187   0.293   3.572
 2034TIP3    H1 6108   2.101   0.314   3.609
 2034TIP3    H2 6109   2.197   0.354   3.499
 2035TIP3   OH2 6110   1.508   1.302   3.645
 2035TIP3    H1 6111   1.419   1.281   3.617
 2035TIP3    H2 6112   1.504   1.394   3.672
 2036TIP3   OH2 6113   5.362   2.820   1.459
 2036TIP3    H1 6114   5.364   2.905   1.502
 2036TIP3    H2 6115   5.368   2.840   1.366
 2037TIP3   OH2 6116   4.327   4.568   4.374
 2037TIP3    H1 6117   4.371   4.574   4.459
 2037TIP3    H2 6118   4.254   4.630   4.380
 2038TIP3   OH2 6119   0.444   2.285   2.943
 2038TIP3    H1 6120   0.530   2.246   2.957
 2038TIP3    H2 6121   0.426   2.334   3.023
 2039TIP3   OH2 6122   3.602   3.592   3.268
 2039TIP3    H1 6123   3.570   3.504   3.288
 2039TIP3    H2 6124   3.670   3.608   3.333
 2040TIP3   OH2 6125   5.024   0.681   4.892
 2040TIP3    H1 6126   5.015   0.755   4.832
 2040TIP3    H2 6127   5.054   0.609   4.837
 2041TIP3   OH2 6128   0.158   1.447   3.299
 2041TIP3    H1 6129   0.105   1.427   3.221
 2041TIP3    H2 6130   0.248   1.450   3.266
 2042TIP3   OH2 6131   3.285   0.586   4.968
 2042TIP3    H1 6132   3.356   0.566   5.029
 2042TIP3    H2 6133   3.249   0.669   4.998
 2043TIP3   OH2 6134   0.155   1.853   2.921
 2043TIP3    H1 6135   0.109   1.890   2.997
 2043TIP3    H2 6136   0.239   1.823   2.956
 2044TIP3   OH2 6137   2.489   0.338   3.048
 2044TIP3    H1 6138   2.452   0.317   2.962
 2044TIP3    H2 6139   2.562   0.397   3.029
 2045TIP3   OH2 6140   4.399   0.871   1.129
 2045TIP3    H1 6141   4.423   0.853   1.038
 2045TIP3    H2 6142   4.461   0.940   1.156
 2046TIP3   OH2 6143   3.048   3.605   3.358
 2046TIP3    H1 6144   2.973   3.593   3.300
 2046TIP3    H2 6145   3.079   3.516   3.376
 2047TIP3   OH2 6146   4.255   3.503   2.477
 2047TIP3    H1 6147   4.237   3.591   2.442
 2047TIP3    H2 6148   4.172   3.457   2.468
 2048TIP3   OH2 6149   4.506   2.928   1.698
 2048TIP3    H1 6150   4.559   2.857   1.735
 2048TIP3    H2 6151   4.488   2.899   1.609
 2049TIP3   OH2 6152   2.711   1.887   4.991
 2049TIP3    H1 6153   2.776   1.846   5.049
 2049TIP3    H2 6154   2.694   1.822   4.924
 2050TIP3   OH2 6155   2.420   1.930   3.555
 2050TIP3    H1 6156   2.478   1.908   3.482
 2050TIP3    H2 6157   2.479   1.962   3.623
 2051TIP3   OH2 6158   2.283   0.988   3.670
 2051TIP3    H1 6159   2.244   0.911   3.628
 2051TIP3    H2 6160   2.210   1.034   3.710
 2052TIP3   OH2 6161   0.175   3.696   4.282
 2052TIP3    H1 6162   0.212   3.702   4.194
 2052TIP3    H2 6163   0.115   3.771   4.288
 2053TIP3   OH2 6164   3.339   5.409   4.662
 2053TIP3    H1 6165   3.289   5.484   4.630
 2053TIP3    H2 6166   3.278   5.336   4.660
 2054TIP3   OH2 6167   2.201   5.847   5.141
 2054TIP3    H1 6168   2.158   5.837   5.056
 2054TIP3    H2 6169   2.242   5.934   5.138
 2055TIP3   OH2 6170   1.762   4.287   4.066
 2055TIP3    H1 6171   1.843   4.293   4.117
 2055TIP3    H2 6172   1.763   4.199   4.029
 2056TIP3   OH2 6173   6.230   1.502   2.500
 2056TIP3    H1 6174   6.195   1.542   2.420
 2056TIP3    H2 6175   6.325   1.511   2.491
 2057TIP3   OH2 6176   2.343   5.555   3.965
 2057TIP3    H1 6177   2.411   5.502   3.925
 2057TIP3    H2 6178   2.363   5.645   3.939
 2058TIP3   OH2 6179   6.161   2.071   2.846
 2058TIP3    H1 6180   6.196   2.023   2.771
 2058TIP3    H2 6181   6.209   2.038   2.921
 2059TIP3   OH2 6182   0.794   3.415   3.170
 2059TIP3    H1 6183   0.808   3.336   3.222
 2059TIP3    H2 6184   0.875   3.424   3.118
 2060TIP3   OH2 6185   4.277   4.779   4.836
 2060TIP3    H1 6186   4.252   4.866   4.867
 2060TIP3    H2 6187   4.257   4.721   4.909
 2061TIP3   OH2 6188   0.964   2.392   2.808
 2061TIP3    H1 6189   0.896   2.337   2.769
 2061TIP3    H2 6190   0.954   2.477   2.764
 2062TIP3   OH2 6191   5.257   1.806   2.521
 2062TIP3    H1 6192   5.345   1.780   2.546
 2062TIP3    H2 6193   5.254   1.796   2.426
 2063TIP3   OH2 6194   6.239   4.641   3.240
 2063TIP3    H1 6195   6.194   4.658   3.322
 2063TIP3    H2 6196   6.291   4.719   3.224
 2064TIP3   OH2 6197   1.700   0.572   3.609
 2064TIP3    H1 6198   1.795   0.569   3.595
 2064TIP3    H2 6199   1.662   0.530   3.532
 2065TIP3   OH2 6200   3.108   4.340   3.495
 2065TIP3    H1 6201   3.057   4.362   3.574
 2065TIP3    H2 6202   3.189   4.389   3.505
 2066TIP3   OH2 6203   1.987   3.942   0.215
 2066TIP3    H1 6204   2.053   3.893   0.167
 2066TIP3    H2 6205   2.013   4.033   0.207
 2067TIP3   OH2 6206   0.887   0.243   3.683
 2067TIP3    H1 6207   0.897   0.335   3.708
 2067TIP3    H2 6208   0.796   0.223   3.703
 2068TIP3   OH2 6209   2.882   0.386   4.527
 2068TIP3    H1 6210   2.957   0.435   4.494
 2068TIP3    H2 6211   2.807   0.444   4.513
 2069TIP3   OH2 6212   1.042   5.940   2.545
 2069TIP3    H1 6213   0.969   5.919   2.487
 2069TIP3    H2 6214   1.046   6.036   2.545
 2070TIP3   OH2 6215   3.075   0.468   4.116
 2070TIP3    H1 6216   3.086   0.554   4.076
 2070TIP3    H2 6217   3.164   0.434   4.126
 2071TIP3   OH2 6218   5.556   2.648   4.448
 2071TIP3    H1 6219   5.623   2.688   4.392
 2071TIP3    H2 6220   5.482   2.710   4.445
 2072TIP3   OH2 6221   6.271   4.232   1.857
 2072TIP3    H1 6222   6.288   4.138   1.842
 2072TIP3    H2 6223   6.278   4.242   1.952
 2073TIP3   OH2 6224   5.595   3.044   2.636
 2073TIP3    H1 6225   5.512   2.995   2.641
 2073TIP3    H2 6226   5.616   3.065   2.727
 2074TIP3   OH2 6227   2.617   2.479   0.564
 2074TIP3    H1 6228   2.675   2.464   0.638
 2074TIP3    H2 6229   2.555   2.545   0.595
 2075TIP3   OH2 6230   0.440   0.798   4.963
 2075TIP3    H1 6231   0.512   0.752   5.006
 2075TIP3    H2 6232   0.379   0.728   4.939
 2076TIP3   OH2 6233   1.851   4.872   0.590
 2076TIP3    H1 6234   1.858   4.825   0.673
 2076TIP3    H2 6235   1.778   4.933   0.603
 2077TIP3   OH2 6236   3.490   5.412   2.185
 2077TIP3    H1 6237   3.415   5.361   2.217
 2077TIP3    H2 6238   3.453   5.467   2.116
 2078TIP3   OH2 6239   5.002   5.712   0.756
 2078TIP3    H1 6240   5.034   5.679   0.672
 2078TIP3    H2 6241   5.080   5.749   0.798
 2079TIP3   OH2 6242   2.679   5.300   1.536
 2079TIP3    H1 6243   2.698   5.394   1.526
 2079TIP3    H2 6244   2.590   5.290   1.501
 2080TIP3   OH2 6245   5.139   2.905   3.175
 2080TIP3    H1 6246   5.222   2.858   3.162
 2080TIP3    H2 6247   5.165   2.995   3.193
 2081TIP3   OH2 6248   6.225   4.031   3.108
 2081TIP3    H1 6249   6.319   4.028   3.124
 2081TIP3    H2 6250   6.214   4.098   3.040
 2082TIP3   OH2 6251   5.625   3.841   4.367
 2082TIP3    H1 6252   5.606   3.934   4.355
 2082TIP3    H2 6253   5.650   3.810   4.280
 2083TIP3   OH2 6254   5.214   3.894   2.029
 2083TIP3    H1 6255   5.232   3.816   1.976
 2083TIP3    H2 6256   5.269   3.962   1.991
 2084TIP3   OH2 6257   6.133   1.392   0.329
 2084TIP3    H1 6258   6.114   1.485   0.338
 2084TIP3    H2 6259   6.057   1.357   0.283
 2085TIP3   OH2 6260   4.633   5.370   1.888
 2085TIP3    H1 6261   4.618   5.283   1.925
 2085TIP3    H2 6262   4.726   5.370   1.864
 2086TIP3   OH2 6263   4.156   2.512   1.679
 2086TIP3    H1 6264   4.213   2.518   1.602
 2086TIP3    H2 6265   4.068   2.501   1.642
 2087TIP3   OH2 6266   3.239   4.331   3.802
 2087TIP3    H1 6267   3.314   4.304   3.749
 2087TIP3    H2 6268   3.278   4.380   3.875
 2088TIP3   OH2 6269   3.148   0.331   1.455
 2088TIP3    H1 6270   3.233   0.352   1.494
 2088TIP3    H2 6271   3.094   0.304   1.529
 2089TIP3   OH2 6272   6.023   2.938   0.622
 2089TIP3    H1 6273   6.116   2.922   0.606
 2089TIP3    H2 6274   6.018   3.032   0.641
 2090TIP3   OH2 6275   1.249   3.485   4.075
 2090TIP3    H1 6276   1.186   3.517   4.010
 2090TIP3    H2 6277   1.335   3.497   4.033
 2091TIP3   OH2 6278   6.058   0.574   2.302
 2091TIP3    H1 6279   6.065   0.479   2.295
 2091TIP3    H2 6280   5.975   0.596   2.259
 2092TIP3   OH2 6281   5.619   4.211   4.182
 2092TIP3    H1 6282   5.636   4.292   4.134
 2092TIP3    H2 6283   5.658   4.225   4.268
 2093TIP3   OH2 6284   2.065   1.407   0.054
 2093TIP3    H1 6285   1.972   1.386   0.049
 2093TIP3    H2 6286   2.104   1.365  -0.022
 2094TIP3   OH2 6287   5.830   5.597   2.296
 2094TIP3    H1 6288   5.896   5.545   2.250
 2094TIP3    H2 6289   5.789   5.650   2.227
 2095TIP3   OH2 6290   4.632   4.220   4.126
 2095TIP3    H1 6291   4.592   4.307   4.132
 2095TIP3    H2 6292   4.726   4.238   4.116
 2096TIP3   OH2 6293   6.135   5.484   3.969
 2096TIP3    H1 6294   6.122   5.444   4.055
 2096TIP3    H2 6295   6.161   5.411   3.912
 2097TIP3   OH2 6296   0.209   5.646   0.963
 2097TIP3    H1 6297   0.144   5.696   1.012
 2097TIP3    H2 6298   0.268   5.712   0.928
 2098TIP3   OH2 6299   6.059   2.332   2.898
 2098TIP3    H1 6300   5.984   2.353   2.843
 2098TIP3    H2 6301   6.084   2.243   2.871
 2099TIP3   OH2 6302   5.582   5.786   0.411
 2099TIP3    H1 6303   5.677   5.797   0.406
 2099TIP3    H2 6304   5.555   5.772   0.320
 2100TIP3   OH2 6305   1.613   0.714   4.646
 2100TIP3    H1 6306   1.616   0.771   4.723
 2100TIP3    H2 6307   1.700   0.674   4.642
 2101TIP3   OH2 6308   1.380   1.451   2.116
 2101TIP3    H1 6309   1.409   1.525   2.061
 2101TIP3    H2 6310   1.357   1.492   2.200
 2102TIP3   OH2 6311   1.151   5.922   3.562
 2102TIP3    H1 6312   1.193   5.864   3.625
 2102TIP3    H2 6313   1.066   5.943   3.601
 2103TIP3   OH2 6314   2.994   2.691   4.738
 2103TIP3    H1 6315   2.920   2.705   4.797
 2103TIP3    H2 6316   3.057   2.641   4.790
 2104TIP3   OH2 6317   2.033   4.797   0.205
 2104TIP3    H1 6318   2.093   4.769   0.274
 2104TIP3    H2 6319   1.948   4.802   0.249
 2105TIP3   OH2 6320   2.762   2.395   3.630
 2105TIP3    H1 6321   2.845   2.367   3.592
 2105TIP3    H2 6322   2.695   2.359   3.571
 2106TIP3   OH2 6323   1.520   3.816   3.831
 2106TIP3    H1 6324   1.603   3.772   3.813
 2106TIP3    H2 6325   1.527   3.843   3.923
 2107TIP3   OH2 6326   3.419   1.802   5.180
 2107TIP3    H1 6327   3.465   1.835   5.104
 2107TIP3    H2 6328   3.465   1.840   5.255
 2108TIP3   OH2 6329   1.496   4.645   3.015
 2108TIP3    H1 6330   1.401   4.638   3.031
 2108TIP3    H2 6331   1.536   4.616   3.096
 2109TIP3   OH2 6332   6.211   2.005   0.329
 2109TIP3    H1 6333   6.143   2.024   0.265
 2109TIP3    H2 6334   6.177   2.039   0.412
 2110TIP3   OH2 6335   0.587   4.214   2.558
 2110TIP3    H1 6336   0.578   4.307   2.540
 2110TIP3    H2 6337   0.498   4.183   2.576
 2111TIP3   OH2 6338   0.635   4.929   4.839
 2111TIP3    H1 6339   0.658   4.847   4.795
 2111TIP3    H2 6340   0.711   4.985   4.826
 2112TIP3   OH2 6341   2.221   4.063   3.298
 2112TIP3    H1 6342   2.275   4.132   3.336
 2112TIP3    H2 6343   2.229   4.075   3.203
 2113TIP3   OH2 6344   3.071   2.280   4.465
 2113TIP3    H1 6345   3.048   2.205   4.409
 2113TIP3    H2 6346   3.030   2.355   4.422
 2114TIP3   OH2 6347   3.343   3.603   5.077
 2114TIP3    H1 6348   3.288   3.569   5.006
 2114TIP3    H2 6349   3.385   3.681   5.040
 2115TIP3   OH2 6350   4.318   5.308   4.135
 2115TIP3    H1 6351   4.385   5.372   4.157
 2115TIP3    H2 6352   4.363   5.243   4.081
 2116TIP3   OH2 6353   4.935   0.701   2.137
 2116TIP3    H1 6354   4.944   0.667   2.225
 2116TIP3    H2 6355   4.928   0.623   2.081
 2117TIP3   OH2 6356   6.012   4.660   4.720
 2117TIP3    H1 6357   6.056   4.667   4.636
 2117TIP3    H2 6358   5.919   4.657   4.698
 2118TIP3   OH2 6359   5.703   0.138   1.364
 2118TIP3    H1 6360   5.616   0.099   1.362
 2118TIP3    H2 6361   5.735   0.130   1.275
 2119TIP3   OH2 6362   5.647   4.868   2.472
 2119TIP3    H1 6363   5.557   4.836   2.466
 2119TIP3    H2 6364   5.638   4.962   2.485
 2120TIP3   OH2 6365   4.420   2.810   0.944
 2120TIP3    H1 6366   4.457   2.890   0.983
 2120TIP3    H2 6367   4.496   2.760   0.915
 2121TIP3   OH2 6368   0.391   4.855   2.004
 2121TIP3    H1 6369   0.423   4.931   2.051
 2121TIP3    H2 6370   0.340   4.806   2.069
 2122TIP3   OH2 6371   2.843   5.458   1.913
 2122TIP3    H1 6372   2.914   5.511   1.877
 2122TIP3    H2 6373   2.796   5.516   1.971
 2123TIP3   OH2 6374   3.218   1.452   0.622
 2123TIP3    H1 6375   3.166   1.452   0.541
 2123TIP3    H2 6376   3.292   1.510   0.602
 2124TIP3   OH2 6377   5.830   3.630   4.149
 2124TIP3    H1 6378   5.875   3.550   4.175
 2124TIP3    H2 6379   5.737   3.611   4.160
 2125TIP3   OH2 6380   3.175   3.183   0.719
 2125TIP3    H1 6381   3.235   3.114   0.747
 2125TIP3    H2 6382   3.088   3.145   0.733
 2126TIP3   OH2 6383   3.644   4.229   3.451
 2126TIP3    H1 6384   3.657   4.293   3.381
 2126TIP3    H2 6385   3.616   4.149   3.406
 2127TIP3   OH2 6386   2.384   1.603   2.696
 2127TIP3    H1 6387   2.466   1.559   2.675
 2127TIP3    H2 6388   2.317   1.534   2.693
 2128TIP3   OH2 6389   4.257   1.135   3.105
 2128TIP3    H1 6390   4.260   1.205   3.170
 2128TIP3    H2 6391   4.326   1.157   3.043
 2129TIP3   OH2 6392   0.172   4.711   0.639
 2129TIP3    H1 6393   0.224   4.651   0.692
 2129TIP3    H2 6394   0.161   4.788   0.693
 2130TIP3   OH2 6395   5.089   2.578   2.733
 2130TIP3    H1 6396   5.024   2.543   2.672
 2130TIP3    H2 6397   5.088   2.517   2.807
 2131TIP3   OH2 6398   1.732   4.181   0.465
 2131TIP3    H1 6399   1.796   4.214   0.529
 2131TIP3    H2 6400   1.668   4.134   0.519
 2132TIP3   OH2 6401   4.765   5.579   3.471
 2132TIP3    H1 6402   4.673   5.587   3.495
 2132TIP3    H2 6403   4.764   5.563   3.377
 2133TIP3   OH2 6404   3.554   5.287   4.756
 2133TIP3    H1 6405   3.526   5.196   4.746
 2133TIP3    H2 6406   3.488   5.338   4.710
 2134TIP3   OH2 6407   0.843   4.153   2.205
 2134TIP3    H1 6408   0.815   4.064   2.224
 2134TIP3    H2 6409   0.939   4.150   2.210
 2135TIP3   OH2 6410   1.084   2.228   5.057
 2135TIP3    H1 6411   1.109   2.270   5.139
 2135TIP3    H2 6412   0.989   2.218   5.063
 2136TIP3   OH2 6413   1.180   0.803   0.689
 2136TIP3    H1 6414   1.248   0.831   0.751
 2136TIP3    H2 6415   1.214   0.829   0.603
 2137TIP3   OH2 6416   2.879   4.683   4.278
 2137TIP3    H1 6417   2.913   4.727   4.200
 2137TIP3    H2 6418   2.918   4.596   4.275
 2138TIP3   OH2 6419   0.858   0.527   2.934
 2138TIP3    H1 6420   0.763   0.517   2.946
 2138TIP3    H2 6421   0.869   0.618   2.909
 2139TIP3   OH2 6422   2.795   2.992   3.464
 2139TIP3    H1 6423   2.772   2.899   3.460
 2139TIP3    H2 6424   2.889   2.994   3.446
 2140TIP3   OH2 6425   1.027   2.114   0.851
 2140TIP3    H1 6426   0.963   2.051   0.820
 2140TIP3    H2 6427   1.050   2.084   0.939
 2141TIP3   OH2 6428   4.454   5.676   4.255
 2141TIP3    H1 6429   4.489   5.763   4.276
 2141TIP3    H2 6430   4.361   5.682   4.276
 2142TIP3   OH2 6431   0.670   5.876   1.916
 2142TIP3    H1 6432   0.681   5.940   1.846
 2142TIP3    H2 6433   0.576   5.857   1.917
 2143TIP3   OH2 6434   6.237   0.512   2.557
 2143TIP3    H1 6435   6.255   0.418   2.562
 2143TIP3    H2 6436   6.149   0.518   2.520
 2144TIP3   OH2 6437   2.109   0.508   2.267
 2144TIP3    H1 6438   2.145   0.424   2.240
 2144TIP3    H2 6439   2.181   0.570   2.252
 2145TIP3   OH2 6440   2.762   4.393   1.624
 2145TIP3    H1 6441   2.851   4.423   1.646
 2145TIP3    H2 6442   2.735   4.342   1.700
 2146TIP3   OH2 6443   4.896   5.273   1.404
 2146TIP3    H1 6444   4.818   5.218   1.397
 2146TIP3    H2 6445   4.921   5.267   1.496
 2147TIP3   OH2 6446   5.748   0.208   2.341
 2147TIP3    H1 6447   5.702   0.172   2.416
 2147TIP3    H2 6448   5.681   0.219   2.273
 2148TIP3   OH2 6449   4.172   1.261   4.553
 2148TIP3    H1 6450   4.117   1.193   4.594
 2148TIP3    H2 6451   4.178   1.234   4.462
 2149TIP3   OH2 6452   6.019   2.395   1.298
 2149TIP3    H1 6453   6.070   2.476   1.289
 2149TIP3    H2 6454   5.933   2.425   1.328
 2150TIP3   OH2 6455   4.373   2.774   0.617
 2150TIP3    H1 6456   4.369   2.683   0.644
 2150TIP3    H2 6457   4.318   2.821   0.679
 2151TIP3   OH2 6458   2.857   1.224   4.046
 2151TIP3    H1 6459   2.825   1.255   3.961
 2151TIP3    H2 6460   2.950   1.210   4.034
 2152TIP3   OH2 6461   3.047   1.668   1.386
 2152TIP3    H1 6462   3.111   1.619   1.333
 2152TIP3    H2 6463   3.043   1.754   1.345
 2153TIP3   OH2 6464   1.933   2.989   0.717
 2153TIP3    H1 6465   1.862   2.946   0.670
 2153TIP3    H2 6466   2.012   2.941   0.690
 2154TIP3   OH2 6467   4.644   4.243   0.580
 2154TIP3    H1 6468   4.611   4.327   0.612
 2154TIP3    H2 6469   4.676   4.262   0.491
 2155TIP3   OH2 6470   1.402   0.463   0.282
 2155TIP3    H1 6471   1.366   0.435   0.366
 2155TIP3    H2 6472   1.470   0.398   0.263
 2156TIP3   OH2 6473   5.466   2.391   2.053
 2156TIP3    H1 6474   5.464   2.351   2.139
 2156TIP3    H2 6475   5.551   2.365   2.016
 2157TIP3   OH2 6476   0.053   1.191   3.916
 2157TIP3    H1 6477   0.128   1.207   3.859
 2157TIP3    H2 6478   0.063   1.100   3.944
 2158TIP3   OH2 6479   2.144   1.831   1.797
 2158TIP3    H1 6480   2.077   1.889   1.834
 2158TIP3    H2 6481   2.095   1.758   1.760
 2159TIP3   OH2 6482   6.152   3.985   4.662
 2159TIP3    H1 6483   6.157   3.974   4.757
 2159TIP3    H2 6484   6.130   4.078   4.650
 2160TIP3   OH2 6485   3.204   1.255   1.785
 2160TIP3    H1 6486   3.153   1.331   1.756
 2160TIP3    H2 6487   3.260   1.234   1.710
 2161TIP3   OH2 6488   4.443   5.217   1.640
 2161TIP3    H1 6489   4.397   5.181   1.564
 2161TIP3    H2 6490   4.482   5.299   1.608
 2162TIP3   OH2 6491   5.797   3.764   1.713
 2162TIP3    H1 6492   5.777   3.671   1.711
 2162TIP3    H2 6493   5.860   3.773   1.785
 2163TIP3   OH2 6494   2.791   1.575   4.079
 2163TIP3    H1 6495   2.847   1.536   4.146
 2163TIP3    H2 6496   2.820   1.533   3.997
 2164TIP3   OH2 6497   0.428   4.441   2.490
 2164TIP3    H1 6498   0.344   4.457   2.533
 2164TIP3    H2 6499   0.406   4.429   2.398
 2165TIP3   OH2 6500   2.270   1.435   1.989
 2165TIP3    H1 6501   2.192   1.390   2.021
 2165TIP3    H2 6502   2.276   1.514   2.044
 2166TIP3   OH2 6503   3.565   0.042   2.796
 2166TIP3    H1 6504   3.502   0.043   2.867
 2166TIP3    H2 6505   3.650   0.036   2.839
 2167TIP3   OH2 6506   2.397   0.319   3.936
 2167TIP3    H1 6507   2.439   0.338   4.020
 2167TIP3    H2 6508   2.447   0.369   3.871
 2168TIP3   OH2 6509   0.818   4.184   3.040
 2168TIP3    H1 6510   0.814   4.278   3.055
 2168TIP3    H2 6511   0.730   4.152   3.062
 2169TIP3   OH2 6512   4.504   3.534   1.679
 2169TIP3    H1 6513   4.414   3.499   1.674
 2169TIP3    H2 6514   4.500   3.600   1.748
 2170TIP3   OH2 6515   0.781   0.034   2.523
 2170TIP3    H1 6516   0.794   0.029   2.428
 2170TIP3    H2 6517   0.687   0.048   2.533
 2171TIP3   OH2 6518   4.849   3.448   4.615
 2171TIP3    H1 6519   4.896   3.371   4.647
 2171TIP3    H2 6520   4.855   3.443   4.519
 2172TIP3   OH2 6521   2.031   2.563   2.104
 2172TIP3    H1 6522   2.106   2.532   2.155
 2172TIP3    H2 6523   2.069   2.618   2.035
 2173TIP3   OH2 6524   1.160   5.616   4.764
 2173TIP3    H1 6525   1.110   5.552   4.814
 2173TIP3    H2 6526   1.155   5.696   4.816
 2174TIP3   OH2 6527   1.978   5.568   4.429
 2174TIP3    H1 6528   1.975   5.474   4.415
 2174TIP3    H2 6529   2.060   5.596   4.387
 2175TIP3   OH2 6530   5.631   2.234   1.393
 2175TIP3    H1 6531   5.581   2.293   1.336
 2175TIP3    H2 6532   5.580   2.232   1.474
 2176TIP3   OH2 6533   1.616   4.458   4.783
 2176TIP3    H1 6534   1.571   4.537   4.753
 2176TIP3    H2 6535   1.547   4.405   4.824
 2177TIP3   OH2 6536   0.402   3.320   0.796
 2177TIP3    H1 6537   0.492   3.345   0.818
 2177TIP3    H2 6538   0.409   3.278   0.711
 2178TIP3   OH2 6539   2.806   3.365   1.378
 2178TIP3    H1 6540   2.732   3.427   1.382
 2178TIP3    H2 6541   2.837   3.359   1.468
 2179TIP3   OH2 6542   6.203   4.263   4.572
 2179TIP3    H1 6543   6.202   4.330   4.504
 2179TIP3    H2 6544   6.138   4.293   4.636
 2180TIP3   OH2 6545   2.986   2.042   4.315
 2180TIP3    H1 6546   2.910   2.087   4.277
 2180TIP3    H2 6547   2.956   1.952   4.329
 2181TIP3   OH2 6548   1.882   4.848   1.326
 2181TIP3    H1 6549   1.937   4.904   1.382
 2181TIP3    H2 6550   1.850   4.780   1.386
 2182TIP3   OH2 6551   1.002   0.265   3.461
 2182TIP3    H1 6552   1.043   0.343   3.499
 2182TIP3    H2 6553   0.969   0.216   3.537
 2183TIP3   OH2 6554   3.088   2.090   0.798
 2183TIP3    H1 6555   3.060   2.000   0.815
 2183TIP3    H2 6556   3.008   2.142   0.811
 2184TIP3   OH2 6557   3.435   2.570   3.288
 2184TIP3    H1 6558   3.439   2.603   3.199
 2184TIP3    H2 6559   3.519   2.595   3.326
 2185TIP3   OH2 6560   4.153   2.105   3.046
 2185TIP3    H1 6561   4.181   2.136   3.132
 2185TIP3    H2 6562   4.089   2.036   3.066
 2186TIP3   OH2 6563   0.274   1.885   3.808
 2186TIP3    H1 6564   0.278   1.813   3.745
 2186TIP3    H2 6565   0.194   1.932   3.785
 2187TIP3   OH2 6566   3.153   3.997   3.753
 2187TIP3    H1 6567   3.227   3.958   3.707
 2187TIP3    H2 6568   3.171   4.091   3.751
 2188TIP3   OH2 6569   0.532   2.777   3.565
 2188TIP3    H1 6570   0.481   2.854   3.540
 2188TIP3    H2 6571   0.508   2.761   3.656
 2189TIP3   OH2 6572   2.664   1.907   4.334
 2189TIP3    H1 6573   2.729   1.838   4.351
 2189TIP3    H2 6574   2.629   1.886   4.248
 2190TIP3   OH2 6575   1.920   3.547   2.216
 2190TIP3    H1 6576   1.902   3.547   2.122
 2190TIP3    H2 6577   1.953   3.635   2.235
 2191TIP3   OH2 6578   1.438   2.266   1.287
 2191TIP3    H1 6579   1.481   2.341   1.328
 2191TIP3    H2 6580   1.404   2.300   1.204
 2192TIP3   OH2 6581   2.152   0.657   0.638
 2192TIP3    H1 6582   2.098   0.717   0.586
 2192TIP3    H2 6583   2.192   0.599   0.573
 2193TIP3   OH2 6584   4.313   0.834   4.427
 2193TIP3    H1 6585   4.239   0.774   4.430
 2193TIP3    H2 6586   4.377   0.792   4.371
 2194TIP3   OH2 6587   3.941   0.281   0.313
 2194TIP3    H1 6588   3.920   0.268   0.405
 2194TIP3    H2 6589   3.905   0.203   0.269
 2195TIP3   OH2 6590   5.725   4.075   0.527
 2195TIP3    H1 6591   5.729   4.031   0.612
 2195TIP3    H2 6592   5.777   4.155   0.539
 2196TIP3   OH2 6593   3.600   2.300   3.829
 2196TIP3    H1 6594   3.692   2.286   3.808
 2196TIP3    H2 6595   3.556   2.220   3.802
 2197TIP3   OH2 6596   2.030   1.975   4.277
 2197TIP3    H1 6597   1.994   1.999   4.192
 2197TIP3    H2 6598   2.075   1.892   4.261
 2198TIP3   OH2 6599   0.326   2.973   2.441
 2198TIP3    H1 6600   0.241   3.015   2.455
 2198TIP3    H2 6601   0.382   3.008   2.510
 2199TIP3   OH2 6602   4.544   4.621   2.308
 2199TIP3    H1 6603   4.478   4.557   2.281
 2199TIP3    H2 6604   4.539   4.623   2.403
 2200TIP3   OH2 6605   2.444   4.168   1.061
 2200TIP3    H1 6606   2.503   4.228   1.106
 2200TIP3    H2 6607   2.357   4.189   1.094
 2201TIP3   OH2 6608   0.636   3.283   3.846
 2201TIP3    H1 6609   0.700   3.269   3.776
 2201TIP3    H2 6610   0.688   3.277   3.926
 2202TIP3   OH2 6611   2.015   4.440   4.831
 2202TIP3    H1 6612   1.961   4.364   4.854
 2202TIP3    H2 6613   1.983   4.467   4.745
 2203TIP3   OH2 6614   5.457   5.138   1.582
 2203TIP3    H1 6615   5.502   5.221   1.571
 2203TIP3    H2 6616   5.437   5.109   1.493
 2204TIP3   OH2 6617   0.962   3.973   4.699
 2204TIP3    H1 6618   0.887   3.928   4.738
 2204TIP3    H2 6619   1.038   3.919   4.721
 2205TIP3   OH2 6620   0.557   2.304   1.176
 2205TIP3    H1 6621   0.531   2.220   1.139
 2205TIP3    H2 6622   0.502   2.313   1.254
 2206TIP3   OH2 6623   4.055   1.385   3.383
 2206TIP3    H1 6624   4.108   1.446   3.332
 2206TIP3    H2 6625   3.979   1.437   3.410
 2207TIP3   OH2 6626   2.860   2.368   2.394
 2207TIP3    H1 6627   2.817   2.292   2.356
 2207TIP3    H2 6628   2.888   2.419   2.318
 2208TIP3   OH2 6629   4.318   5.990   4.896
 2208TIP3    H1 6630   4.310   5.929   4.823
 2208TIP3    H2 6631   4.343   6.073   4.856
 2209TIP3   OH2 6632   2.753   4.601   4.861
 2209TIP3    H1 6633   2.702   4.669   4.817
 2209TIP3    H2 6634   2.776   4.638   4.946
 2210TIP3   OH2 6635   0.509   4.879   0.464
 2210TIP3    H1 6636   0.514   4.814   0.533
 2210TIP3    H2 6637   0.565   4.951   0.494
 2211TIP3   OH2 6638   1.052   3.149   4.507
 2211TIP3    H1 6639   1.045   3.233   4.461
 2211TIP3    H2 6640   0.979   3.097   4.473
 2212TIP3   OH2 6641   2.591   5.048   2.528
 2212TIP3    H1 6642   2.648   4.996   2.585
 2212TIP3    H2 6643   2.525   5.085   2.588
 2213TIP3   OH2 6644   4.910   0.746   0.617
 2213TIP3    H1 6645   4.958   0.800   0.679
 2213TIP3    H2 6646   4.837   0.709   0.667
 2214TIP3   OH2 6647   6.197   1.259   2.621
 2214TIP3    H1 6648   6.290   1.241   2.638
 2214TIP3    H2 6649   6.196   1.351   2.592
 2215TIP3   OH2 6650   5.492   2.979   0.083
 2215TIP3    H1 6651   5.509   3.072   0.068
 2215TIP3    H2 6652   5.492   2.970   0.178
 2216TIP3   OH2 6653   2.898   3.480   0.070
 2216TIP3    H1 6654   2.990   3.470   0.047
 2216TIP3    H2 6655   2.871   3.395   0.103
 2217TIP3   OH2 6656   0.275   0.490   0.777
 2217TIP3    H1 6657   0.368   0.515   0.775
 2217TIP3    H2 6658   0.274   0.399   0.749
 2218TIP3   OH2 6659   1.743   3.573   1.632
 2218TIP3    H1 6660   1.737   3.564   1.727
 2218TIP3    H2 6661   1.787   3.493   1.604
 2219TIP3   OH2 6662   0.045   2.483   0.187
 2219TIP3    H1 6663   0.116   2.527   0.141
 2219TIP3    H2 6664   0.028   2.404   0.136
 2220TIP3   OH2 6665   0.811   0.040   4.265
 2220TIP3    H1 6666   0.798   0.057   4.358
 2220TIP3    H2 6667   0.793   0.123   4.223
 2221TIP3   OH2 6668   4.019   1.796   0.847
 2221TIP3    H1 6669   3.950   1.792   0.913
 2221TIP3    H2 6670   4.089   1.846   0.888
 2222TIP3   OH2 6671   1.314   5.334   0.155
 2222TIP3    H1 6672   1.352   5.414   0.193
 2222TIP3    H2 6673   1.220   5.345   0.167
 2223TIP3   OH2 6674   2.932   2.143   3.622
 2223TIP3    H1 6675   2.978   2.208   3.675
 2223TIP3    H2 6676   3.002   2.091   3.583
 2224TIP3   OH2 6677   0.579   0.373   0.460
 2224TIP3    H1 6678   0.571   0.291   0.510
 2224TIP3    H2 6679   0.517   0.362   0.388
 2225TIP3   OH2 6680   1.648   3.813   1.001
 2225TIP3    H1 6681   1.582   3.745   1.014
 2225TIP3    H2 6682   1.645   3.833   0.908
 2226TIP3   OH2 6683   1.131   1.746   4.889
 2226TIP3    H1 6684   1.136   1.650   4.885
 2226TIP3    H2 6685   1.058   1.764   4.947
 2227TIP3   OH2 6686   0.185   4.973   2.434
 2227TIP3    H1 6687   0.263   5.025   2.457
 2227TIP3    H2 6688   0.207   4.884   2.461
 2228TIP3   OH2 6689   3.424   0.347   1.157
 2228TIP3    H1 6690   3.362   0.286   1.196
 2228TIP3    H2 6691   3.410   0.339   1.063
 2229TIP3   OH2 6692   4.822   1.831   2.777
 2229TIP3    H1 6693   4.740   1.876   2.795
 2229TIP3    H2 6694   4.875   1.897   2.730
 2230TIP3   OH2 6695   3.826   1.905   3.453
 2230TIP3    H1 6696   3.890   1.967   3.418
 2230TIP3    H2 6697   3.809   1.844   3.380
 2231TIP3   OH2 6698   2.552   4.259   0.799
 2231TIP3    H1 6699   2.614   4.321   0.837
 2231TIP3    H2 6700   2.498   4.231   0.873
 2232TIP3   OH2 6701   3.708   2.532   1.444
 2232TIP3    H1 6702   3.616   2.549   1.426
 2232TIP3    H2 6703   3.755   2.602   1.398
 2233TIP3   OH2 6704   1.683   5.143   3.739
 2233TIP3    H1 6705   1.651   5.233   3.735
 2233TIP3    H2 6706   1.765   5.144   3.689
 2234TIP3   OH2 6707   0.180   4.353   1.706
 2234TIP3    H1 6708   0.244   4.322   1.642
 2234TIP3    H2 6709   0.096   4.345   1.662
 2235TIP3   OH2 6710   6.197   4.692   4.508
 2235TIP3    H1 6711   6.287   4.694   4.540
 2235TIP3    H2 6712   6.188   4.607   4.466
 2236TIP3   OH2 6713   4.545   1.260   3.255
 2236TIP3    H1 6714   4.596   1.234   3.332
 2236TIP3    H2 6715   4.514   1.348   3.275
 2237TIP3   OH2 6716   3.655   0.323   2.755
 2237TIP3    H1 6717   3.607   0.242   2.736
 2237TIP3    H2 6718   3.747   0.301   2.740
 2238TIP3   OH2 6719   2.586   0.523   0.751
 2238TIP3    H1 6720   2.509   0.580   0.760
 2238TIP3    H2 6721   2.591   0.504   0.658
 2239TIP3   OH2 6722   6.204   2.210   4.411
 2239TIP3    H1 6723   6.152   2.154   4.354
 2239TIP3    H2 6724   6.166   2.199   4.498
 2240TIP3   OH2 6725   2.307   4.141   0.524
 2240TIP3    H1 6726   2.304   4.079   0.597
 2240TIP3    H2 6727   2.326   4.225   0.565
 2241TIP3   OH2 6728   4.380   2.342   4.238
 2241TIP3    H1 6729   4.420   2.312   4.320
 2241TIP3    H2 6730   4.286   2.342   4.255
 2242TIP3   OH2 6731   6.061   2.061   4.205
 2242TIP3    H1 6732   6.094   1.979   4.243
 2242TIP3    H2 6733   6.079   2.052   4.111
 2243TIP3   OH2 6734   0.055   2.330   5.078
 2243TIP3    H1 6735   0.025   2.287   4.998
 2243TIP3    H2 6736   0.128   2.385   5.051
 2244TIP3   OH2 6737   1.541   3.505   0.345
 2244TIP3    H1 6738   1.599   3.512   0.420
 2244TIP3    H2 6739   1.597   3.474   0.274
 2245TIP3   OH2 6740   4.673   5.524   4.454
 2245TIP3    H1 6741   4.620   5.444   4.447
 2245TIP3    H2 6742   4.639   5.568   4.532
 2246TIP3   OH2 6743   3.641   3.468   0.274
 2246TIP3    H1 6744   3.667   3.546   0.323
 2246TIP3    H2 6745   3.687   3.396   0.317
 2247TIP3   OH2 6746   2.087   0.178   2.929
 2247TIP3    H1 6747   2.035   0.103   2.899
 2247TIP3    H2 6748   2.044   0.206   3.010
 2248TIP3   OH2 6749   0.715   4.813   0.831
 2248TIP3    H1 6750   0.748   4.821   0.920
 2248TIP3    H2 6751   0.658   4.889   0.819
 2249TIP3   OH2 6752   4.152   3.641   5.085
 2249TIP3    H1 6753   4.157   3.549   5.110
 2249TIP3    H2 6754   4.072   3.673   5.127
 2250TIP3   OH2 6755   0.269   4.625   1.520
 2250TIP3    H1 6756   0.186   4.659   1.552
 2250TIP3    H2 6757   0.244   4.562   1.452
 2251TIP3   OH2 6758   4.056   3.076   4.251
 2251TIP3    H1 6759   4.106   3.106   4.328
 2251TIP3    H2 6760   4.012   3.155   4.219
 2252TIP3   OH2 6761   1.776   3.350   4.875
 2252TIP3    H1 6762   1.843   3.399   4.828
 2252TIP3    H2 6763   1.734   3.415   4.932
 2253TIP3   OH2 6764   2.400   2.119   1.058
 2253TIP3    H1 6765   2.472   2.134   1.119
 2253TIP3    H2 6766   2.357   2.204   1.050
 2254TIP3   OH2 6767   2.713   4.994   2.063
 2254TIP3    H1 6768   2.658   4.938   2.009
 2254TIP3    H2 6769   2.740   5.065   2.004
 2255TIP3   OH2 6770   0.171   5.400   0.535
 2255TIP3    H1 6771   0.180   5.405   0.440
 2255TIP3    H2 6772   0.211   5.316   0.559
 2256TIP3   OH2 6773   2.124   5.422   1.281
 2256TIP3    H1 6774   2.067   5.489   1.319
 2256TIP3    H2 6775   2.073   5.341   1.289
 2257TIP3   OH2 6776   4.887   0.942   4.727
 2257TIP3    H1 6777   4.855   0.998   4.656
 2257TIP3    H2 6778   4.887   0.998   4.804
 2258TIP3   OH2 6779   5.524   4.964   5.069
 2258TIP3    H1 6780   5.534   4.942   5.162
 2258TIP3    H2 6781   5.518   5.060   5.068
 2259TIP3   OH2 6782   5.500   1.372   0.116
 2259TIP3    H1 6783   5.489   1.436   0.046
 2259TIP3    H2 6784   5.411   1.358   0.150
 2260TIP3   OH2 6785   0.615   2.531   2.878
 2260TIP3    H1 6786   0.566   2.448   2.876
 2260TIP3    H2 6787   0.640   2.546   2.787
 2261TIP3   OH2 6788   0.350   5.544   1.219
 2261TIP3    H1 6789   0.412   5.601   1.175
 2261TIP3    H2 6790   0.281   5.603   1.249
 2262TIP3   OH2 6791   1.458   0.046   1.351
 2262TIP3    H1 6792   1.370   0.081   1.362
 2262TIP3    H2 6793   1.513   0.123   1.337
 2263TIP3   OH2 6794   2.600   2.172   1.266
 2263TIP3    H1 6795   2.680   2.188   1.316
 2263TIP3    H2 6796   2.540   2.132   1.329
 2264TIP3   OH2 6797   4.921   1.675   2.977
 2264TIP3    H1 6798   4.900   1.745   2.915
 2264TIP3    H2 6799   5.013   1.654   2.959
 2265TIP3   OH2 6800   1.284   1.080   3.256
 2265TIP3    H1 6801   1.359   1.038   3.298
 2265TIP3    H2 6802   1.302   1.173   3.261
 2266TIP3   OH2 6803   4.107   4.998   3.338
 2266TIP3    H1 6804   4.123   4.915   3.384
 2266TIP3    H2 6805   4.176   5.057   3.370
 2267TIP3   OH2 6806   5.878   0.094   0.209
 2267TIP3    H1 6807   5.831   0.022   0.251
 2267TIP3    H2 6808   5.961   0.056   0.182
 2268TIP3   OH2 6809   5.005   5.617   1.426
 2268TIP3    H1 6810   5.007   5.571   1.510
 2268TIP3    H2 6811   4.982   5.549   1.362
 2269TIP3   OH2 6812   1.411   1.552   0.030
 2269TIP3    H1 6813   1.453   1.582   0.111
 2269TIP3    H2 6814   1.394   1.459   0.045
 2270TIP3   OH2 6815   1.465   2.516   4.078
 2270TIP3    H1 6816   1.370   2.499   4.076
 2270TIP3    H2 6817   1.493   2.486   4.164
 2271TIP3   OH2 6818   4.662   1.610   5.142
 2271TIP3    H1 6819   4.606   1.665   5.088
 2271TIP3    H2 6820   4.701   1.547   5.081
 2272TIP3   OH2 6821   3.033   2.107   2.468
 2272TIP3    H1 6822   3.054   2.182   2.524
 2272TIP3    H2 6823   3.117   2.078   2.433
 2273TIP3   OH2 6824   0.014   0.926   2.769
 2273TIP3    H1 6825   0.109   0.931   2.757
 2273TIP3    H2 6826  -0.009   0.838   2.737
 2274TIP3   OH2 6827   0.612   5.961   0.562
 2274TIP3    H1 6828   0.523   5.925   0.561
 2274TIP3    H2 6829   0.665   5.892   0.522
 2275TIP3   OH2 6830   3.913   5.827   4.134
 2275TIP3    H1 6831   3.917   5.736   4.105
 2275TIP3    H2 6832   4.000   5.846   4.167
 2276TIP3   OH2 6833   4.761   1.118   4.101
 2276TIP3    H1 6834   4.748   1.074   4.184
 2276TIP3    H2 6835   4.853   1.102   4.079
 2277TIP3   OH2 6836   4.550   2.493   1.828
 2277TIP3    H1 6837   4.463   2.504   1.866
 2277TIP3    H2 6838   4.572   2.580   1.794
 2278TIP3   OH2 6839   2.388   2.577   3.094
 2278TIP3    H1 6840   2.389   2.668   3.062
 2278TIP3    H2 6841   2.470   2.540   3.061
 2279TIP3   OH2 6842   5.233   3.151   5.119
 2279TIP3    H1 6843   5.170   3.207   5.165
 2279TIP3    H2 6844   5.200   3.147   5.029
 2280TIP3   OH2 6845   4.489   2.647   3.788
 2280TIP3    H1 6846   4.557   2.593   3.828
 2280TIP3    H2 6847   4.439   2.681   3.862
 2281TIP3   OH2 6848   5.661   1.687   1.444
 2281TIP3    H1 6849   5.631   1.777   1.427
 2281TIP3    H2 6850   5.755   1.689   1.426
 2282TIP3   OH2 6851   4.691   4.488   4.902
 2282TIP3    H1 6852   4.661   4.558   4.960
 2282TIP3    H2 6853   4.751   4.437   4.955
 2283TIP3   OH2 6854   0.623   5.871   3.237
 2283TIP3    H1 6855   0.662   5.786   3.218
 2283TIP3    H2 6856   0.558   5.884   3.168
 2284TIP3   OH2 6857   0.013   3.540   2.642
 2284TIP3    H1 6858   0.018   3.445   2.632
 2284TIP3    H2 6859   0.104   3.569   2.645
 2285TIP3   OH2 6860   1.669   3.914   4.585
 2285TIP3    H1 6861   1.599   3.893   4.522
 2285TIP3    H2 6862   1.629   3.980   4.642
 2286TIP3   OH2 6863   3.898   0.202   3.939
 2286TIP3    H1 6864   3.954   0.235   3.869
 2286TIP3    H2 6865   3.839   0.140   3.897
 2287TIP3   OH2 6866   4.724   0.745   3.715
 2287TIP3    H1 6867   4.758   0.684   3.651
 2287TIP3    H2 6868   4.656   0.695   3.762
 2288TIP3   OH2 6869   4.064   2.850   4.879
 2288TIP3    H1 6870   4.105   2.825   4.796
 2288TIP3    H2 6871   4.024   2.769   4.910
 2289TIP3   OH2 6872   0.880   3.874   1.648
 2289TIP3    H1 6873   0.875   3.794   1.594
 2289TIP3    H2 6874   0.973   3.889   1.661
 2290TIP3   OH2 6875   1.765   6.019   0.160
 2290TIP3    H1 6876   1.840   5.970   0.193
 2290TIP3    H2 6877   1.690   5.961   0.175
 2291TIP3   OH2 6878   3.157   1.289   1.382
 2291TIP3    H1 6879   3.063   1.300   1.397
 2291TIP3    H2 6880   3.178   1.205   1.424
 2292TIP3   OH2 6881   3.744   0.910   1.921
 2292TIP3    H1 6882   3.838   0.900   1.936
 2292TIP3    H2 6883   3.716   0.825   1.888
 2293TIP3   OH2 6884   3.325   5.068   4.940
 2293TIP3    H1 6885   3.353   5.091   5.028
 2293TIP3    H2 6886   3.400   5.022   4.902
 2294TIP3   OH2 6887   0.168   1.025   0.569
 2294TIP3    H1 6888   0.077   1.042   0.544
 2294TIP3    H2 6889   0.183   1.080   0.645
 2295TIP3   OH2 6890   6.080   3.273   3.635
 2295TIP3    H1 6891   5.988   3.257   3.659
 2295TIP3    H2 6892   6.125   3.192   3.657
 2296TIP3   OH2 6893   4.465   5.122   3.240
 2296TIP3    H1 6894   4.535   5.170   3.285
 2296TIP3    H2 6895   4.397   5.188   3.224
 2297TIP3   OH2 6896   5.707   2.187   2.420
 2297TIP3    H1 6897   5.774   2.133   2.378
 2297TIP3    H2 6898   5.704   2.155   2.511
 2298TIP3   OH2 6899   4.176   4.941   0.656
 2298TIP3    H1 6900   4.202   5.031   0.637
 2298TIP3    H2 6901   4.218   4.921   0.739
 2299TIP3   OH2 6902   3.979   3.239   3.146
 2299TIP3    H1 6903   3.980   3.144   3.143
 2299TIP3    H2 6904   4.061   3.262   3.190
 2300TIP3   OH2 6905   4.863   5.315   2.361
 2300TIP3    H1 6906   4.870   5.276   2.448
 2300TIP3    H2 6907   4.872   5.241   2.300
 2301TIP3   OH2 6908   6.049   2.083   0.085
 2301TIP3    H1 6909   6.035   2.154   0.022
 2301TIP3    H2 6910   6.008   2.007   0.044
 2302TIP3   OH2 6911   2.844   1.542   3.361
 2302TIP3    H1 6912   2.873   1.551   3.270
 2302TIP3    H2 6913   2.869   1.452   3.385
 2303TIP3   OH2 6914   0.677   2.005   1.726
 2303TIP3    H1 6915   0.594   1.985   1.684
 2303TIP3    H2 6916   0.743   1.969   1.667
 2304TIP3   OH2 6917   1.883   1.268   1.346
 2304TIP3    H1 6918   1.950   1.316   1.297
 2304TIP3    H2 6919   1.815   1.250   1.281
 2305TIP3   OH2 6920   2.271   0.093   3.751
 2305TIP3    H1 6921   2.230   0.151   3.686
 2305TIP3    H2 6922   2.255   0.137   3.835
 2306TIP3   OH2 6923   5.110   2.046   4.312
 2306TIP3    H1 6924   5.099   1.984   4.384
 2306TIP3    H2 6925   5.132   1.990   4.237
 2307TIP3   OH2 6926   0.949   0.941   3.265
 2307TIP3    H1 6927   0.862   0.976   3.246
 2307TIP3    H2 6928   0.990   1.006   3.322
 2308TIP3   OH2 6929   3.171   4.473   2.597
 2308TIP3    H1 6930   3.176   4.478   2.693
 2308TIP3    H2 6931   3.199   4.559   2.567
 2309TIP3   OH2 6932   1.629   0.989   5.097
 2309TIP3    H1 6933   1.718   1.023   5.105
 2309TIP3    H2 6934   1.608   0.957   5.185
 2310TIP3   OH2 6935   2.607   1.901   3.328
 2310TIP3    H1 6936   2.549   1.893   3.253
 2310TIP3    H2 6937   2.605   1.814   3.369
 2311TIP3   OH2 6938   4.921   4.011   0.478
 2311TIP3    H1 6939   5.011   3.978   0.480
 2311TIP3    H2 6940   4.890   3.993   0.390
 2312TIP3   OH2 6941   3.519   3.993   3.396
 2312TIP3    H1 6942   3.593   3.937   3.374
 2312TIP3    H2 6943   3.460   3.985   3.322
 2313TIP3   OH2 6944   0.723   1.863   3.265
 2313TIP3    H1 6945   0.684   1.937   3.219
 2313TIP3    H2 6946   0.727   1.892   3.356
 2314TIP3   OH2 6947   2.049   4.931   5.041
 2314TIP3    H1 6948   2.023   4.853   5.092
 2314TIP3    H2 6949   1.970   4.955   4.993
 2315TIP3   OH2 6950   1.883   5.593   0.939
 2315TIP3    H1 6951   1.805   5.561   0.984
 2315TIP3    H2 6952   1.952   5.532   0.965
 2316TIP3   OH2 6953   1.031   2.302   3.881
 2316TIP3    H1 6954   0.942   2.299   3.918
 2316TIP3    H2 6955   1.039   2.220   3.833
 2317TIP3   OH2 6956   5.129   5.213   0.834
 2317TIP3    H1 6957   5.066   5.203   0.763
 2317TIP3    H2 6958   5.199   5.267   0.796
 2318TIP3   OH2 6959   4.766   3.606   1.613
 2318TIP3    H1 6960   4.715   3.673   1.566
 2318TIP3    H2 6961   4.707   3.531   1.620
 2319TIP3   OH2 6962   2.696   3.753   4.874
 2319TIP3    H1 6963   2.672   3.785   4.961
 2319TIP3    H2 6964   2.612   3.738   4.830
 2320TIP3   OH2 6965   1.508   1.859   4.492
 2320TIP3    H1 6966   1.506   1.832   4.400
 2320TIP3    H2 6967   1.516   1.777   4.541
 2321TIP3   OH2 6968   5.885   4.729   2.898
 2321TIP3    H1 6969   5.893   4.634   2.902
 2321TIP3    H2 6970   5.941   4.762   2.968
 2322TIP3   OH2 6971   3.801   2.307   4.950
 2322TIP3    H1 6972   3.818   2.288   4.857
 2322TIP3    H2 6973   3.709   2.287   4.962
 2323TIP3   OH2 6974   0.546   0.474   3.206
 2323TIP3    H1 6975   0.553   0.477   3.111
 2323TIP3    H2 6976   0.635   0.454   3.236
 2324TIP3   OH2 6977   5.752   2.895   1.720
 2324TIP3    H1 6978   5.804   2.913   1.642
 2324TIP3    H2 6979   5.669   2.940   1.705
 2325TIP3   OH2 6980   2.660   2.952   0.784
 2325TIP3    H1 6981   2.604   3.022   0.819
 2325TIP3    H2 6982   2.606   2.873   0.788
 2326TIP3   OH2 6983   2.571   5.933   0.268
 2326TIP3    H1 6984   2.622   5.888   0.201
 2326TIP3    H2 6985   2.594   6.026   0.257
 2327TIP3   OH2 6986   2.656   1.357   5.112
 2327TIP3    H1 6987   2.655   1.368   5.017
 2327TIP3    H2 6988   2.587   1.293   5.130
 2328TIP3   OH2 6989   1.424   1.245   4.879
 2328TIP3    H1 6990   1.439   1.164   4.832
 2328TIP3    H2 6991   1.348   1.284   4.838
 2329TIP3   OH2 6992   3.422   5.338   0.334
 2329TIP3    H1 6993   3.474   5.273   0.380
 2329TIP3    H2 6994   3.420   5.414   0.393
 2330TIP3   OH2 6995   2.984   0.713   2.595
 2330TIP3    H1 6996   2.927   0.738   2.522
 2330TIP3    H2 6997   3.052   0.781   2.595
 2331TIP3   OH2 6998   2.765   2.395   0.770
 2331TIP3    H1 6999   2.838   2.441   0.812
 2331TIP3    H2 7000   2.727   2.342   0.840
 2332TIP3   OH2 7001   0.516   1.404   0.853
 2332TIP3    H1 7002   0.601   1.360   0.864
 2332TIP3    H2 7003   0.461   1.367   0.922
 2333TIP3   OH2 7004   1.381   3.709   2.499
 2333TIP3    H1 7005   1.455   3.749   2.453
 2333TIP3    H2 7006   1.309   3.770   2.486
 2334TIP3   OH2 7007   2.735   4.423   0.430
 2334TIP3    H1 7008   2.785   4.492   0.473
 2334TIP3    H2 7009   2.673   4.470   0.374
 2335TIP3   OH2 7010   4.390   2.042   2.765
 2335TIP3    H1 7011   4.425   2.077   2.847
 2335TIP3    H2 7012   4.398   2.114   2.702
 2336TIP3   OH2 7013   1.048   3.067   2.088
 2336TIP3    H1 7014   0.985   3.093   2.020
 2336TIP3    H2 7015   1.019   2.981   2.116
 2337TIP3   OH2 7016   1.797   2.127   3.585
 2337TIP3    H1 7017   1.789   2.191   3.656
 2337TIP3    H2 7018   1.711   2.125   3.545
 2338TIP3   OH2 7019   0.747   2.278   1.633
 2338TIP3    H1 7020   0.816   2.221   1.602
 2338TIP3    H2 7021   0.726   2.246   1.721
 2339TIP3   OH2 7022   5.794   3.203   2.036
 2339TIP3    H1 7023   5.828   3.198   2.125
 2339TIP3    H2 7024   5.800   3.113   2.004
 2340TIP3   OH2 7025   3.305   2.965   0.046
 2340TIP3    H1 7026   3.396   2.986   0.068
 2340TIP3    H2 7027   3.311   2.885  -0.006
 2341TIP3   OH2 7028   4.383   5.003   4.041
 2341TIP3    H1 7029   4.344   4.958   3.966
 2341TIP3    H2 7030   4.454   5.055   4.004
 2342TIP3   OH2 7031   0.436   3.833   3.162
 2342TIP3    H1 7032   0.492   3.907   3.139
 2342TIP3    H2 7033   0.496   3.768   3.200
 2343TIP3   OH2 7034   1.487   2.891   3.702
 2343TIP3    H1 7035   1.484   2.846   3.786
 2343TIP3    H2 7036   1.396   2.918   3.686
 2344TIP3   OH2 7037   3.994   1.854   0.553
 2344TIP3    H1 7038   3.934   1.789   0.516
 2344TIP3    H2 7039   4.011   1.823   0.641
 2345TIP3   OH2 7040   0.194   2.246   3.741
 2345TIP3    H1 7041   0.223   2.283   3.658
 2345TIP3    H2 7042   0.223   2.309   3.807
 2346TIP3   OH2 7043   3.454   5.612   2.604
 2346TIP3    H1 7044   3.503   5.690   2.629
 2346TIP3    H2 7045   3.371   5.619   2.652
 2347TIP3   OH2 7046   0.984   4.075   1.413
 2347TIP3    H1 7047   1.051   4.017   1.378
 2347TIP3    H2 7048   0.917   4.016   1.447
 2348TIP3   OH2 7049   1.703   0.968   1.860
 2348TIP3    H1 7050   1.692   0.873   1.861
 2348TIP3    H2 7051   1.661   0.996   1.778
 2349TIP3   OH2 7052   4.143   0.611   3.477
 2349TIP3    H1 7053   4.072   0.662   3.437
 2349TIP3    H2 7054   4.174   0.667   3.549
 2350TIP3   OH2 7055   4.846   2.102   0.870
 2350TIP3    H1 7056   4.861   2.186   0.912
 2350TIP3    H2 7057   4.829   2.041   0.943
 2351TIP3   OH2 7058   4.151   0.864   3.245
 2351TIP3    H1 7059   4.151   0.955   3.275
 2351TIP3    H2 7060   4.079   0.822   3.294
 2352TIP3   OH2 7061   0.073   3.273   2.646
 2352TIP3    H1 7062   0.054   3.198   2.590
 2352TIP3    H2 7063   0.156   3.308   2.612
 2353TIP3   OH2 7064   3.841   0.203   4.906
 2353TIP3    H1 7065   3.751   0.201   4.871
 2353TIP3    H2 7066   3.895   0.171   4.834
 2354TIP3   OH2 7067   2.032   5.559   0.168
 2354TIP3    H1 7068   2.021   5.475   0.122
 2354TIP3    H2 7069   2.054   5.621   0.099
 2355TIP3   OH2 7070   2.345   5.837   1.822
 2355TIP3    H1 7071   2.276   5.866   1.882
 2355TIP3    H2 7072   2.425   5.875   1.857
 2356TIP3   OH2 7073   1.198   5.313   3.600
 2356TIP3    H1 7074   1.292   5.320   3.581
 2356TIP3    H2 7075   1.155   5.335   3.517
 2357TIP3   OH2 7076   0.582   4.792   2.294
 2357TIP3    H1 7077   0.494   4.801   2.332
 2357TIP3    H2 7078   0.622   4.720   2.343
 2358TIP3   OH2 7079   2.966   5.933   1.430
 2358TIP3    H1 7080   2.986   5.880   1.353
 2358TIP3    H2 7081   2.875   5.913   1.450
 2359TIP3   OH2 7082   6.080   3.657   1.687
 2359TIP3    H1 7083   5.999   3.656   1.738
 2359TIP3    H2 7084   6.125   3.577   1.713
 2360TIP3   OH2 7085   0.374   2.988   3.952
 2360TIP3    H1 7086   0.405   2.898   3.945
 2360TIP3    H2 7087   0.279   2.980   3.949
 2361TIP3   OH2 7088   5.567   0.998   3.870
 2361TIP3    H1 7089   5.648   0.950   3.887
 2361TIP3    H2 7090   5.580   1.039   3.784
 2362TIP3   OH2 7091   3.158   6.014   1.610
 2362TIP3    H1 7092   3.095   5.990   1.542
 2362TIP3    H2 7093   3.218   5.939   1.616
 2363TIP3   OH2 7094   5.870   4.458   4.844
 2363TIP3    H1 7095   5.884   4.540   4.796
 2363TIP3    H2 7096   5.899   4.477   4.933
 2364TIP3   OH2 7097   4.383   2.993   3.122
 2364TIP3    H1 7098   4.376   2.899   3.110
 2364TIP3    H2 7099   4.443   3.023   3.054
 2365TIP3   OH2 7100   1.058   0.049   3.758
 2365TIP3    H1 7101   1.089   0.074   3.845
 2365TIP3    H2 7102   0.983   0.106   3.741
 2366TIP3   OH2 7103   3.642   0.882   2.371
 2366TIP3    H1 7104   3.581   0.950   2.344
 2366TIP3    H2 7105   3.723   0.902   2.324
 2367TIP3   OH2 7106   2.155   4.299   4.447
 2367TIP3    H1 7107   2.172   4.354   4.523
 2367TIP3    H2 7108   2.225   4.322   4.386
 2368TIP3   OH2 7109   0.874   3.313   2.318
 2368TIP3    H1 7110   0.797   3.361   2.352
 2368TIP3    H2 7111   0.842   3.224   2.302
 2369TIP3   OH2 7112   4.541   2.690   1.449
 2369TIP3    H1 7113   4.632   2.678   1.478
 2369TIP3    H2 7114   4.548   2.728   1.361
 2370TIP3   OH2 7115   2.581   5.191   2.273
 2370TIP3    H1 7116   2.672   5.218   2.289
 2370TIP3    H2 7117   2.548   5.164   2.358
 2371TIP3   OH2 7118   5.488   2.638   1.111
 2371TIP3    H1 7119   5.498   2.728   1.142
 2371TIP3    H2 7120   5.496   2.645   1.016
 2372TIP3   OH2 7121   0.400   5.071   4.775
 2372TIP3    H1 7122   0.484   5.025   4.779
 2372TIP3    H2 7123   0.341   5.017   4.828
 2373TIP3   OH2 7124   2.751   2.656   3.697
 2373TIP3    H1 7125   2.689   2.677   3.628
 2373TIP3    H2 7126   2.772   2.564   3.683
 2374TIP3   OH2 7127   3.715   4.991   2.959
 2374TIP3    H1 7128   3.801   5.033   2.963
 2374TIP3    H2 7129   3.657   5.053   3.003
 2375TIP3   OH2 7130   2.970   1.546   2.419
 2375TIP3    H1 7131   2.887   1.547   2.467
 2375TIP3    H2 7132   2.960   1.613   2.352
 2376TIP3   OH2 7133   5.710   1.290   2.505
 2376TIP3    H1 7134   5.790   1.244   2.531
 2376TIP3    H2 7135   5.691   1.348   2.579
 2377TIP3   OH2 7136   1.695   0.557   1.118
 2377TIP3    H1 7137   1.759   0.616   1.157
 2377TIP3    H2 7138   1.743   0.512   1.048
 2378TIP3   OH2 7139   1.976   3.370   3.422
 2378TIP3    H1 7140   1.957   3.431   3.350
 2378TIP3    H2 7141   2.021   3.297   3.380
 2379TIP3   OH2 7142   4.586   4.219   2.220
 2379TIP3    H1 7143   4.551   4.163   2.151
 2379TIP3    H2 7144   4.579   4.165   2.299
 2380TIP3   OH2 7145   3.841   4.698   3.849
 2380TIP3    H1 7146   3.849   4.637   3.776
 2380TIP3    H2 7147   3.747   4.719   3.853
 2381TIP3   OH2 7148   3.084   0.669   1.453
 2381TIP3    H1 7149   3.167   0.663   1.501
 2381TIP3    H2 7150   3.110   0.676   1.361
 2382TIP3   OH2 7151   4.962   3.030   0.248
 2382TIP3    H1 7152   4.967   3.116   0.290
 2382TIP3    H2 7153   4.983   3.047   0.156
 2383TIP3   OH2 7154   0.355   0.279   1.442
 2383TIP3    H1 7155   0.331   0.349   1.382
 2383TIP3    H2 7156   0.392   0.211   1.386
 2384TIP3   OH2 7157   0.941   1.216   4.916
 2384TIP3    H1 7158   0.865   1.161   4.936
 2384TIP3    H2 7159   0.950   1.211   4.821
 2385TIP3   OH2 7160   3.918   3.162   2.098
 2385TIP3    H1 7161   3.883   3.080   2.063
 2385TIP3    H2 7162   3.985   3.134   2.161
 2386TIP3   OH2 7163   2.954   3.149   4.933
 2386TIP3    H1 7164   2.931   3.194   4.852
 2386TIP3    H2 7165   3.024   3.089   4.909
 2387TIP3   OH2 7166   1.797   2.529   0.517
 2387TIP3    H1 7167   1.860   2.487   0.576
 2387TIP3    H2 7168   1.750   2.456   0.476
 2388TIP3   OH2 7169   5.910   2.489   0.024
 2388TIP3    H1 7170   5.901   2.538  -0.058
 2388TIP3    H2 7171   5.910   2.556   0.092
 2389TIP3   OH2 7172   0.709   2.043   0.881
 2389TIP3    H1 7173   0.651   2.010   0.949
 2389TIP3    H2 7174   0.672   2.128   0.857
 2390TIP3   OH2 7175   1.183   2.882   2.584
 2390TIP3    H1 7176   1.189   2.790   2.556
 2390TIP3    H2 7177   1.103   2.913   2.542
 2391TIP3   OH2 7178   4.268   1.565   2.367
 2391TIP3    H1 7179   4.280   1.588   2.460
 2391TIP3    H2 7180   4.351   1.524   2.342
 2392TIP3   OH2 7181   4.262   1.847   3.282
 2392TIP3    H1 7182   4.342   1.856   3.230
 2392TIP3    H2 7183   4.293   1.843   3.372
 2393TIP3   OH2 7184   3.215   1.783   3.101
 2393TIP3    H1 7185   3.218   1.730   3.022
 2393TIP3    H2 7186   3.279   1.743   3.160
 2394TIP3   OH2 7187   4.558   3.107   2.462
 2394TIP3    H1 7188   4.541   3.098   2.368
 2394TIP3    H2 7189   4.638   3.057   2.477
 2395TIP3   OH2 7190   2.252   1.848   1.352
 2395TIP3    H1 7191   2.189   1.919   1.348
 2395TIP3    H2 7192   2.199   1.769   1.358
 2396TIP3   OH2 7193   5.894   2.901   4.970
 2396TIP3    H1 7194   5.981   2.933   4.993
 2396TIP3    H2 7195   5.889   2.910   4.875
 2397TIP3   OH2 7196   5.641   3.725   0.562
 2397TIP3    H1 7197   5.656   3.641   0.518
 2397TIP3    H2 7198   5.700   3.724   0.638
 2398TIP3   OH2 7199   4.064   5.424   3.077
 2398TIP3    H1 7200   4.101   5.377   3.002
 2398TIP3    H2 7201   3.998   5.481   3.040
 2399TIP3   OH2 7202   4.250   5.131   4.352
 2399TIP3    H1 7203   4.159   5.127   4.381
 2399TIP3    H2 7204   4.245   5.150   4.258
 2400TIP3   OH2 7205   6.049   2.048   3.224
 2400TIP3    H1 7206   6.068   2.006   3.308
 2400TIP3    H2 7207   6.046   1.976   3.162
 2401TIP3   OH2 7208   4.075   3.366   4.217
 2401TIP3    H1 7209   4.112   3.303   4.155
 2401TIP3    H2 7210   4.008   3.413   4.166
 2402TIP3   OH2 7211   3.624   3.815   0.418
 2402TIP3    H1 7212   3.681   3.742   0.444
 2402TIP3    H2 7213   3.656   3.890   0.468
 2403TIP3   OH2 7214   5.457   0.212   0.704
 2403TIP3    H1 7215   5.388   0.195   0.639
 2403TIP3    H2 7216   5.522   0.264   0.656
 2404TIP3   OH2 7217   1.271   4.753   0.092
 2404TIP3    H1 7218   1.217   4.699   0.150
 2404TIP3    H2 7219   1.328   4.690   0.048
 2405TIP3   OH2 7220   1.433   0.164   1.978
 2405TIP3    H1 7221   1.397   0.211   2.053
 2405TIP3    H2 7222   1.525   0.189   1.976
 2406TIP3   OH2 7223   3.000   3.520   2.559
 2406TIP3    H1 7224   2.992   3.426   2.542
 2406TIP3    H2 7225   2.954   3.562   2.487
 2407TIP3   OH2 7226   6.130   3.133   2.440
 2407TIP3    H1 7227   6.137   3.227   2.430
 2407TIP3    H2 7228   6.036   3.114   2.429
 2408TIP3   OH2 7229   5.166   1.996   0.333
 2408TIP3    H1 7230   5.144   2.055   0.261
 2408TIP3    H2 7231   5.100   1.927   0.327
 2409TIP3   OH2 7232   4.209   1.085   3.907
 2409TIP3    H1 7233   4.180   1.040   3.827
 2409TIP3    H2 7234   4.130   1.123   3.944
 2410TIP3   OH2 7235   6.208   1.506   3.338
 2410TIP3    H1 7236   6.297   1.541   3.348
 2410TIP3    H2 7237   6.160   1.577   3.295
 2411TIP3   OH2 7238   1.592   5.134   1.820
 2411TIP3    H1 7239   1.605   5.065   1.885
 2411TIP3    H2 7240   1.515   5.106   1.770
 2412TIP3   OH2 7241   1.989   0.852   0.478
 2412TIP3    H1 7242   1.983   0.947   0.483
 2412TIP3    H2 7243   2.055   0.836   0.411
 2413TIP3   OH2 7244   0.445   3.530   4.330
 2413TIP3    H1 7245   0.518   3.578   4.368
 2413TIP3    H2 7246   0.417   3.583   4.256
 2414TIP3   OH2 7247   4.096   2.741   0.347
 2414TIP3    H1 7248   4.149   2.807   0.301
 2414TIP3    H2 7249   4.007   2.754   0.315
 2415TIP3   OH2 7250   6.012   4.748   3.146
 2415TIP3    H1 7251   6.028   4.831   3.191
 2415TIP3    H2 7252   6.089   4.695   3.166
 2416TIP3   OH2 7253   2.438   5.844   4.069
 2416TIP3    H1 7254   2.357   5.885   4.098
 2416TIP3    H2 7255   2.507   5.893   4.114
 2417TIP3   OH2 7256   1.688   5.524   3.694
 2417TIP3    H1 7257   1.703   5.576   3.773
 2417TIP3    H2 7258   1.687   5.588   3.623
 2418TIP3   OH2 7259   3.398   0.728   4.026
 2418TIP3    H1 7260   3.372   0.719   4.118
 2418TIP3    H2 7261   3.446   0.811   4.024
 2419TIP3   OH2 7262   3.791   1.657   3.624
 2419TIP3    H1 7263   3.745   1.740   3.611
 2419TIP3    H2 7264   3.732   1.591   3.590
 2420TIP3   OH2 7265   4.522   5.805   2.381
 2420TIP3    H1 7266   4.527   5.709   2.373
 2420TIP3    H2 7267   4.485   5.820   2.468
 2421TIP3   OH2 7268   4.099   4.503   0.774
 2421TIP3    H1 7269   4.029   4.485   0.837
 2421TIP3    H2 7270   4.098   4.428   0.715
 2422TIP3   OH2 7271   0.325   5.853   0.150
 2422TIP3    H1 7272   0.380   5.818   0.079
 2422TIP3    H2 7273   0.294   5.937   0.116
 2423TIP3   OH2 7274   5.453   1.086   1.008
 2423TIP3    H1 7275   5.502   1.155   0.963
 2423TIP3    H2 7276   5.394   1.133   1.067
 2424TIP3   OH2 7277   1.232   4.773   2.132
 2424TIP3    H1 7278   1.295   4.728   2.189
 2424TIP3    H2 7279   1.147   4.736   2.157
 2425TIP3   OH2 7280   5.992   0.167   0.939
 2425TIP3    H1 7281   5.931   0.161   1.012
 2425TIP3    H2 7282   6.048   0.090   0.948
 2426TIP3   OH2 7283   1.573   3.705   1.819
 2426TIP3    H1 7284   1.514   3.635   1.847
 2426TIP3    H2 7285   1.543   3.783   1.866
 2427TIP3   OH2 7286   1.072   4.906   2.895
 2427TIP3    H1 7287   1.046   4.969   2.828
 2427TIP3    H2 7288   1.135   4.953   2.949
 2428TIP3   OH2 7289   3.552   0.204   5.142
 2428TIP3    H1 7290   3.542   0.243   5.055
 2428TIP3    H2 7291   3.647   0.202   5.156
 2429TIP3   OH2 7292   1.536   1.540   5.050
 2429TIP3    H1 7293   1.570   1.548   4.960
 2429TIP3    H2 7294   1.556   1.449   5.075
 2430TIP3   OH2 7295   1.929   3.792   3.935
 2430TIP3    H1 7296   2.024   3.779   3.943
 2430TIP3    H2 7297   1.894   3.763   4.019
 2431TIP3   OH2 7298   1.870   3.323   2.352
 2431TIP3    H1 7299   1.899   3.402   2.308
 2431TIP3    H2 7300   1.949   3.291   2.396
 2432TIP3   OH2 7301   2.493   0.303   4.968
 2432TIP3    H1 7302   2.525   0.323   4.880
 2432TIP3    H2 7303   2.515   0.381   5.019
 2433TIP3   OH2 7304   5.106   3.821   3.538
 2433TIP3    H1 7305   5.178   3.758   3.536
 2433TIP3    H2 7306   5.095   3.848   3.446
 2434TIP3   OH2 7307   1.540   2.009   1.366
 2434TIP3    H1 7308   1.494   2.086   1.332
 2434TIP3    H2 7309   1.552   2.027   1.459
 2435TIP3   OH2 7310   1.420   4.684   3.422
 2435TIP3    H1 7311   1.406   4.746   3.494
 2435TIP3    H2 7312   1.500   4.715   3.379
 2436TIP3   OH2 7313   1.767   4.834   1.794
 2436TIP3    H1 7314   1.819   4.754   1.785
 2436TIP3    H2 7315   1.689   4.805   1.841
 2437TIP3   OH2 7316   2.604   2.401   2.009
 2437TIP3    H1 7317   2.621   2.466   2.077
 2437TIP3    H2 7318   2.639   2.439   1.929
 2438TIP3   OH2 7319   0.982   2.243   3.295
 2438TIP3    H1 7320   0.978   2.243   3.390
 2438TIP3    H2 7321   1.009   2.154   3.272
 2439TIP3   OH2 7322   2.581   1.175   3.910
 2439TIP3    H1 7323   2.567   1.089   3.871
 2439TIP3    H2 7324   2.534   1.235   3.852
 2440TIP3   OH2 7325   1.584   3.883   4.090
 2440TIP3    H1 7326   1.585   3.838   4.174
 2440TIP3    H2 7327   1.523   3.956   4.103
 2441TIP3   OH2 7328   3.131   4.476   0.270
 2441TIP3    H1 7329   3.115   4.497   0.178
 2441TIP3    H2 7330   3.171   4.389   0.268
 2442TIP3   OH2 7331   5.252   2.559   3.839
 2442TIP3    H1 7332   5.228   2.467   3.828
 2442TIP3    H2 7333   5.271   2.568   3.933
 2443TIP3   OH2 7334   0.122   4.128   4.909
 2443TIP3    H1 7335   0.184   4.194   4.939
 2443TIP3    H2 7336   0.150   4.108   4.820
 2444TIP3   OH2 7337   0.293   3.177   4.690
 2444TIP3    H1 7338   0.248   3.238   4.749
 2444TIP3    H2 7339   0.314   3.230   4.613
 2445TIP3   OH2 7340   3.311   2.076   2.438
 2445TIP3    H1 7341   3.348   2.123   2.363
 2445TIP3    H2 7342   3.361   2.107   2.513
 2446TIP3   OH2 7343   5.931   4.382   3.170
 2446TIP3    H1 7344   5.915   4.431   3.251
 2446TIP3    H2 7345   5.971   4.300   3.200
 2447TIP3   OH2 7346   1.168   4.447   2.636
 2447TIP3    H1 7347   1.149   4.439   2.730
 2447TIP3    H2 7348   1.209   4.533   2.627
 2448TIP3   OH2 7349   5.318   5.898   2.026
 2448TIP3    H1 7350   5.254   5.829   2.008
 2448TIP3    H2 7351   5.403   5.854   2.016
 2449TIP3   OH2 7352   4.357   1.798   4.674
 2449TIP3    H1 7353   4.437   1.747   4.683
 2449TIP3    H2 7354   4.326   1.810   4.764
 2450TIP3   OH2 7355   0.407   2.482   0.523
 2450TIP3    H1 7356   0.430   2.538   0.597
 2450TIP3    H2 7357   0.491   2.447   0.492
 2451TIP3   OH2 7358   6.362   2.914   3.661
 2451TIP3    H1 7359   6.271   2.934   3.636
 2451TIP3    H2 7360   6.413   2.984   3.621
 2452TIP3   OH2 7361   2.237   0.215   0.205
 2452TIP3    H1 7362   2.178   0.154   0.160
 2452TIP3    H2 7363   2.208   0.214   0.297
 2453TIP3   OH2 7364   3.133   2.403   2.471
 2453TIP3    H1 7365   3.049   2.410   2.426
 2453TIP3    H2 7366   3.117   2.439   2.558
 2454TIP3   OH2 7367   4.854   3.949   2.596
 2454TIP3    H1 7368   4.807   4.031   2.614
 2454TIP3    H2 7369   4.877   3.915   2.682
 2455TIP3   OH2 7370   1.959   1.461   1.537
 2455TIP3    H1 7371   1.942   1.392   1.473
 2455TIP3    H2 7372   1.994   1.415   1.614
 2456TIP3   OH2 7373   0.611   3.531   1.208
 2456TIP3    H1 7374   0.547   3.578   1.262
 2456TIP3    H2 7375   0.590   3.438   1.222
 2457TIP3   OH2 7376   3.439   0.863   1.025
 2457TIP3    H1 7377   3.429   0.768   1.025
 2457TIP3    H2 7378   3.380   0.893   0.955
 2458TIP3   OH2 7379   4.274   0.213   1.589
 2458TIP3    H1 7380   4.195   0.217   1.643
 2458TIP3    H2 7381   4.345   0.242   1.647
 2459TIP3   OH2 7382   4.201   1.009   0.842
 2459TIP3    H1 7383   4.291   0.976   0.846
 2459TIP3    H2 7384   4.211   1.101   0.818
 2460TIP3   OH2 7385   0.216   1.526   0.003
 2460TIP3    H1 7386   0.249   1.457   0.061
 2460TIP3    H2 7387   0.184   1.594   0.063
 2461TIP3   OH2 7388   1.398   5.944   4.657
 2461TIP3    H1 7389   1.401   5.860   4.702
 2461TIP3    H2 7390   1.337   5.931   4.585
 2462TIP3   OH2 7391   4.899   2.664   4.428
 2462TIP3    H1 7392   4.914   2.601   4.358
 2462TIP3    H2 7393   4.812   2.641   4.462
 2463TIP3   OH2 7394   0.707   5.535   0.105
 2463TIP3    H1 7395   0.618   5.501   0.106
 2463TIP3    H2 7396   0.750   5.491   0.032
 2464TIP3   OH2 7397   3.559   1.079   1.393
 2464TIP3    H1 7398   3.476   1.091   1.348
 2464TIP3    H2 7399   3.609   1.158   1.373
 2465TIP3   OH2 7400   3.722   4.800   1.404
 2465TIP3    H1 7401   3.634   4.766   1.419
 2465TIP3    H2 7402   3.777   4.751   1.465
 2466TIP3   OH2 7403   2.454   3.243   3.937
 2466TIP3    H1 7404   2.370   3.269   3.974
 2466TIP3    H2 7405   2.499   3.197   4.008
 2467TIP3   OH2 7406   5.441   1.787   2.819
 2467TIP3    H1 7407   5.355   1.828   2.820
 2467TIP3    H2 7408   5.428   1.703   2.864
 2468TIP3   OH2 7409   4.140   1.319   0.750
 2468TIP3    H1 7410   4.109   1.407   0.769
 2468TIP3    H2 7411   4.062   1.274   0.716
 2469TIP3   OH2 7412   2.203   1.414   2.695
 2469TIP3    H1 7413   2.142   1.406   2.622
 2469TIP3    H2 7414   2.167   1.356   2.762
 2470TIP3   OH2 7415   3.348   0.244   0.294
 2470TIP3    H1 7416   3.333   0.335   0.318
 2470TIP3    H2 7417   3.415   0.248   0.226
 2471TIP3   OH2 7418   5.263   0.798   0.606
 2471TIP3    H1 7419   5.344   0.848   0.612
 2471TIP3    H2 7420   5.200   0.848   0.660
 2472TIP3   OH2 7421   1.744   2.416   0.151
 2472TIP3    H1 7422   1.782   2.364   0.222
 2472TIP3    H2 7423   1.793   2.498   0.153
 2473TIP3   OH2 7424   4.369   5.995   2.202
 2473TIP3    H1 7425   4.394   5.918   2.253
 2473TIP3    H2 7426   4.390   5.972   2.112
 2474TIP3   OH2 7427   3.939   1.128   3.946
 2474TIP3    H1 7428   3.944   1.033   3.957
 2474TIP3    H2 7429   3.861   1.154   3.996
 2475TIP3   OH2 7430   3.983   2.600   4.987
 2475TIP3    H1 7431   3.889   2.619   4.997
 2475TIP3    H2 7432   3.986   2.527   4.926
 2476TIP3   OH2 7433   2.973   4.965   1.354
 2476TIP3    H1 7434   3.067   4.954   1.336
 2476TIP3    H2 7435   2.929   4.933   1.276
 2477TIP3   OH2 7436   2.879   0.217   2.001
 2477TIP3    H1 7437   2.922   0.185   2.081
 2477TIP3    H2 7438   2.896   0.311   2.001
 2478TIP3   OH2 7439   1.226   3.107   1.654
 2478TIP3    H1 7440   1.217   3.048   1.728
 2478TIP3    H2 7441   1.222   3.195   1.692
 2479TIP3   OH2 7442   2.326   4.344   2.843
 2479TIP3    H1 7443   2.323   4.421   2.900
 2479TIP3    H2 7444   2.380   4.371   2.769
 2480TIP3   OH2 7445   1.192   5.022   2.052
 2480TIP3    H1 7446   1.106   5.057   2.078
 2480TIP3    H2 7447   1.197   4.936   2.093
 2481TIP3   OH2 7448   5.370   5.276   0.722
 2481TIP3    H1 7449   5.372   5.203   0.660
 2481TIP3    H2 7450   5.443   5.261   0.781
 2482TIP3   OH2 7451   6.227   5.020   1.862
 2482TIP3    H1 7452   6.167   4.951   1.890
 2482TIP3    H2 7453   6.197   5.098   1.908
 2483TIP3   OH2 7454   1.959   3.415   0.297
 2483TIP3    H1 7455   1.990   3.483   0.357
 2483TIP3    H2 7456   1.915   3.352   0.353
 2484TIP3   OH2 7457   3.021   1.295   4.623
 2484TIP3    H1 7458   3.074   1.351   4.566
 2484TIP3    H2 7459   2.985   1.355   4.689
 2485TIP3   OH2 7460   0.914   5.441   1.188
 2485TIP3    H1 7461   0.990   5.457   1.132
 2485TIP3    H2 7462   0.887   5.528   1.217
 2486TIP3   OH2 7463   3.509   5.875   2.998
 2486TIP3    H1 7464   3.562   5.869   3.077
 2486TIP3    H2 7465   3.467   5.789   2.990
 2487TIP3   OH2 7466   4.180   1.264   4.905
 2487TIP3    H1 7467   4.219   1.189   4.950
 2487TIP3    H2 7468   4.138   1.227   4.828
 2488TIP3   OH2 7469   5.277   3.500   0.657
 2488TIP3    H1 7470   5.234   3.417   0.634
 2488TIP3    H2 7471   5.365   3.492   0.620
 2489TIP3   OH2 7472   0.521   2.802   4.171
 2489TIP3    H1 7473   0.450   2.761   4.121
 2489TIP3    H2 7474   0.506   2.775   4.261
 2490TIP3   OH2 7475   4.538   5.855   1.555
 2490TIP3    H1 7476   4.461   5.799   1.542
 2490TIP3    H2 7477   4.558   5.889   1.468
 2491TIP3   OH2 7478   2.551   3.657   3.071
 2491TIP3    H1 7479   2.548   3.573   3.117
 2491TIP3    H2 7480   2.496   3.715   3.125
 2492TIP3   OH2 7481   3.715   0.155   0.510
 2492TIP3    H1 7482   3.622   0.152   0.535
 2492TIP3    H2 7483   3.739   0.247   0.516
 2493TIP3   OH2 7484   1.653   1.228   1.997
 2493TIP3    H1 7485   1.627   1.281   1.922
 2493TIP3    H2 7486   1.662   1.139   1.961
 2494TIP3   OH2 7487   3.496   4.592   0.571
 2494TIP3    H1 7488   3.400   4.585   0.579
 2494TIP3    H2 7489   3.513   4.686   0.571
 2495TIP3   OH2 7490   5.643   4.865   2.973
 2495TIP3    H1 7491   5.726   4.818   2.985
 2495TIP3    H2 7492   5.595   4.813   2.908
 2496TIP3   OH2 7493   5.044   0.966   4.436
 2496TIP3    H1 7494   5.054   0.915   4.516
 2496TIP3    H2 7495   5.124   1.018   4.431
 2497TIP3   OH2 7496   5.313   1.435   2.915
 2497TIP3    H1 7497   5.334   1.359   2.969
 2497TIP3    H2 7498   5.220   1.423   2.893
 2498TIP3   OH2 7499   3.763   0.924   4.718
 2498TIP3    H1 7500   3.725   0.890   4.799
 2498TIP3    H2 7501   3.688   0.949   4.664
 2499TIP3   OH2 7502   1.244   1.691   2.294
 2499TIP3    H1 7503   1.175   1.640   2.336
 2499TIP3    H2 7504   1.324   1.663   2.338
 2500TIP3   OH2 7505   3.162   5.428   2.144
 2500TIP3    H1 7506   3.141   5.417   2.237
 2500TIP3    H2 7507   3.114   5.507   2.118
 2501TIP3   OH2 7508   1.513   4.062   3.721
 2501TIP3    H1 7509   1.513   3.972   3.753
 2501TIP3    H2 7510   1.445   4.106   3.773
 2502TIP3   OH2 7511   4.674   3.094   1.816
 2502TIP3    H1 7512   4.603   3.041   1.781
 2502TIP3    H2 7513   4.693   3.158   1.746
 2503TIP3   OH2 7514   4.376   2.750   4.021
 2503TIP3    H1 7515   4.424   2.758   4.104
 2503TIP3    H2 7516   4.300   2.808   4.032
 2504TIP3   OH2 7517   6.194   5.584   3.645
 2504TIP3    H1 7518   6.247   5.509   3.619
 2504TIP3    H2 7519   6.115   5.545   3.682
 2505TIP3   OH2 7520   5.764   3.693   3.878
 2505TIP3    H1 7521   5.720   3.778   3.885
 2505TIP3    H2 7522   5.825   3.692   3.952
 2506TIP3   OH2 7523   5.865   0.677   0.407
 2506TIP3    H1 7524   5.945   0.663   0.459
 2506TIP3    H2 7525   5.893   0.665   0.317
 2507TIP3   OH2 7526   1.950   4.617   1.753
 2507TIP3    H1 7527   2.022   4.600   1.692
 2507TIP3    H2 7528   1.942   4.537   1.804
 2508TIP3   OH2 7529   1.460   0.460   0.590
 2508TIP3    H1 7530   1.377   0.475   0.635
 2508TIP3    H2 7531   1.508   0.401   0.649
 2509TIP3   OH2 7532   2.477   3.185   1.764
 2509TIP3    H1 7533   2.431   3.247   1.708
 2509TIP3    H2 7534   2.497   3.235   1.843
 2510TIP3   OH2 7535   1.772   1.908   0.474
 2510TIP3    H1 7536   1.851   1.943   0.432
 2510TIP3    H2 7537   1.799   1.824   0.510
 2511TIP3   OH2 7538   2.715   2.955   3.162
 2511TIP3    H1 7539   2.775   3.008   3.214
 2511TIP3    H2 7540   2.669   3.019   3.107
 2512TIP3   OH2 7541   3.049   4.667   0.727
 2512TIP3    H1 7542   3.081   4.635   0.643
 2512TIP3    H2 7543   3.116   4.640   0.790
 2513TIP3   OH2 7544   1.270   3.443   3.508
 2513TIP3    H1 7545   1.311   3.379   3.566
 2513TIP3    H2 7546   1.299   3.528   3.542
 2514TIP3   OH2 7547   1.328   3.948   0.111
 2514TIP3    H1 7548   1.356   4.038   0.128
 2514TIP3    H2 7549   1.397   3.894   0.148
 2515TIP3   OH2 7550   4.172   2.235   1.082
 2515TIP3    H1 7551   4.124   2.306   1.125
 2515TIP3    H2 7552   4.113   2.204   1.014
 2516TIP3   OH2 7553   0.838   1.256   0.555
 2516TIP3    H1 7554   0.856   1.331   0.612
 2516TIP3    H2 7555   0.921   1.208   0.552
 2517TIP3   OH2 7556   2.087   1.272   3.951
 2517TIP3    H1 7557   2.162   1.219   3.924
 2517TIP3    H2 7558   2.040   1.291   3.870
 2518TIP3   OH2 7559   3.095   3.275   4.124
 2518TIP3    H1 7560   3.072   3.358   4.084
 2518TIP3    H2 7561   3.186   3.285   4.150
 2519TIP3   OH2 7562   2.872   2.077   0.440
 2519TIP3    H1 7563   2.868   2.109   0.350
 2519TIP3    H2 7564   2.780   2.074   0.469
 2520TIP3   OH2 7565   1.476   0.853   4.456
 2520TIP3    H1 7566   1.523   0.816   4.531
 2520TIP3    H2 7567   1.470   0.781   4.393
 2521TIP3   OH2 7568   1.084   4.626   4.467
 2521TIP3    H1 7569   0.996   4.593   4.446
 2521TIP3    H2 7570   1.135   4.611   4.388
 2522TIP3   OH2 7571   0.229   0.264   3.915
 2522TIP3    H1 7572   0.297   0.331   3.926
 2522TIP3    H2 7573   0.273   0.181   3.933
 2523TIP3   OH2 7574   5.427   4.101   0.699
 2523TIP3    H1 7575   5.430   4.027   0.638
 2523TIP3    H2 7576   5.502   4.155   0.675
 2524TIP3   OH2 7577   5.593   3.911   2.760
 2524TIP3    H1 7578   5.628   3.890   2.846
 2524TIP3    H2 7579   5.588   3.827   2.715
 2525TIP3   OH2 7580   5.683   5.837   3.287
 2525TIP3    H1 7581   5.730   5.759   3.315
 2525TIP3    H2 7582   5.597   5.828   3.328
 2526TIP3   OH2 7583   2.153   4.868   0.899
 2526TIP3    H1 7584   2.138   4.923   0.822
 2526TIP3    H2 7585   2.072   4.819   0.909
 2527TIP3   OH2 7586   2.279   2.980   3.748
 2527TIP3    H1 7587   2.237   2.897   3.728
 2527TIP3    H2 7588   2.269   2.990   3.843
 2528TIP3   OH2 7589   3.322   3.864   3.593
 2528TIP3    H1 7590   3.309   3.811   3.515
 2528TIP3    H2 7591   3.417   3.863   3.608
 2529TIP3   OH2 7592   3.785   3.787   0.151
 2529TIP3    H1 7593   3.847   3.848   0.192
 2529TIP3    H2 7594   3.840   3.720   0.110
 2530TIP3   OH2 7595   1.696   2.845   0.275
 2530TIP3    H1 7596   1.698   2.753   0.250
 2530TIP3    H2 7597   1.756   2.851   0.349
 2531TIP3   OH2 7598   1.410   1.227   3.006
 2531TIP3    H1 7599   1.378   1.137   3.019
 2531TIP3    H2 7600   1.428   1.259   3.095
 2532TIP3   OH2 7601   1.392   0.553   4.592
 2532TIP3    H1 7602   1.470   0.499   4.578
 2532TIP3    H2 7603   1.426   0.635   4.629
 2533TIP3   OH2 7604   0.918   5.582   4.525
 2533TIP3    H1 7605   0.936   5.627   4.442
 2533TIP3    H2 7606   0.880   5.650   4.581
 2534TIP3   OH2 7607   5.487   1.668   0.686
 2534TIP3    H1 7608   5.392   1.654   0.693
 2534TIP3    H2 7609   5.510   1.718   0.765
 2535TIP3   OH2 7610   0.074   4.946   0.377
 2535TIP3    H1 7611  -0.015   4.950   0.343
 2535TIP3    H2 7612   0.119   4.885   0.319
 2536TIP3   OH2 7613   6.026   5.856   1.398
 2536TIP3    H1 7614   6.047   5.776   1.447
 2536TIP3    H2 7615   5.946   5.888   1.438
 2537TIP3   OH2 7616   5.159   1.560   1.482
 2537TIP3    H1 7617   5.154   1.547   1.387
 2537TIP3    H2 7618   5.071   1.589   1.507
 2538TIP3   OH2 7619   3.081   4.965   0.926
 2538TIP3    H1 7620   3.086   5.060   0.913
 2538TIP3    H2 7621   2.988   4.945   0.917
 2539TIP3   OH2 7622   5.019   1.360   2.886
 2539TIP3    H1 7623   4.925   1.351   2.906
 2539TIP3    H2 7624   5.025   1.445   2.842
 2540TIP3   OH2 7625   1.502   0.764   3.937
 2540TIP3    H1 7626   1.546   0.849   3.930
 2540TIP3    H2 7627   1.413   0.785   3.965
 2541TIP3   OH2 7628   0.652   5.682   1.300
 2541TIP3    H1 7629   0.638   5.625   1.376
 2541TIP3    H2 7630   0.725   5.738   1.325
 2542TIP3   OH2 7631   1.921   4.068   3.011
 2542TIP3    H1 7632   1.829   4.092   3.023
 2542TIP3    H2 7633   1.950   4.121   2.936
 2543TIP3   OH2 7634   5.365   1.321   4.390
 2543TIP3    H1 7635   5.410   1.385   4.444
 2543TIP3    H2 7636   5.311   1.373   4.330
 2544TIP3   OH2 7637   3.212   3.972   2.469
 2544TIP3    H1 7638   3.186   4.060   2.441
 2544TIP3    H2 7639   3.163   3.957   2.550
 2545TIP3   OH2 7640   0.215   2.629   0.978
 2545TIP3    H1 7641   0.256   2.702   1.023
 2545TIP3    H2 7642   0.262   2.552   1.010
 2546TIP3   OH2 7643   0.418   1.941   4.083
 2546TIP3    H1 7644   0.355   1.910   4.017
 2546TIP3    H2 7645   0.430   2.033   4.062
 2547TIP3   OH2 7646   3.601   4.535   0.288
 2547TIP3    H1 7647   3.575   4.558   0.378
 2547TIP3    H2 7648   3.691   4.568   0.280
 2548TIP3   OH2 7649   1.645   3.536   0.611
 2548TIP3    H1 7650   1.731   3.518   0.649
 2548TIP3    H2 7651   1.586   3.476   0.656
 2549TIP3   OH2 7652   1.206   5.850   0.322
 2549TIP3    H1 7653   1.214   5.898   0.405
 2549TIP3    H2 7654   1.221   5.916   0.254
 2550TIP3   OH2 7655   6.136   5.289   4.665
 2550TIP3    H1 7656   6.064   5.327   4.615
 2550TIP3    H2 7657   6.094   5.259   4.747
 2551TIP3   OH2 7658   1.505   5.351   4.896
 2551TIP3    H1 7659   1.472   5.264   4.872
 2551TIP3    H2 7660   1.428   5.398   4.928
 2552TIP3   OH2 7661   1.656   5.866   0.797
 2552TIP3    H1 7662   1.660   5.810   0.719
 2552TIP3    H2 7663   1.578   5.838   0.844
 2553TIP3   OH2 7664   1.512   2.979   0.467
 2553TIP3    H1 7665   1.513   3.002   0.374
 2553TIP3    H2 7666   1.502   2.884   0.468
 2554TIP3   OH2 7667   6.063   4.645   2.072
 2554TIP3    H1 7668   6.036   4.614   2.158
 2554TIP3    H2 7669   6.017   4.589   2.010
 2555TIP3   OH2 7670   0.135   3.810  -0.010
 2555TIP3    H1 7671   0.092   3.725  -0.003
 2555TIP3    H2 7672   0.229   3.789  -0.009
 2556TIP3   OH2 7673   4.322   5.695   1.773
 2556TIP3    H1 7674   4.274   5.640   1.835
 2556TIP3    H2 7675   4.382   5.635   1.729
 2557TIP3   OH2 7676   0.991   3.853   2.304
 2557TIP3    H1 7677   1.039   3.932   2.277
 2557TIP3    H2 7678   0.899   3.877   2.297
 2558TIP3   OH2 7679   4.918   1.982   2.567
 2558TIP3    H1 7680   4.934   1.888   2.554
 2558TIP3    H2 7681   4.862   2.008   2.494
 2559TIP3   OH2 7682   5.973   1.530   2.051
 2559TIP3    H1 7683   6.048   1.504   1.996
 2559TIP3    H2 7684   5.960   1.623   2.031
 2560TIP3   OH2 7685   0.719   3.413   1.866
 2560TIP3    H1 7686   0.753   3.327   1.843
 2560TIP3    H2 7687   0.630   3.414   1.830
 2561TIP3   OH2 7688   5.374   5.527   0.621
 2561TIP3    H1 7689   5.284   5.539   0.590
 2561TIP3    H2 7690   5.371   5.445   0.671
 2562TIP3   OH2 7691   4.006   2.959   3.602
 2562TIP3    H1 7692   4.095   2.951   3.634
 2562TIP3    H2 7693   4.003   3.045   3.560
 2563TIP3   OH2 7694   3.444   1.018   2.577
 2563TIP3    H1 7695   3.353   0.993   2.561
 2563TIP3    H2 7696   3.453   1.021   2.672
 2564TIP3   OH2 7697   3.822   5.045   3.924
 2564TIP3    H1 7698   3.915   5.021   3.923
 2564TIP3    H2 7699   3.804   5.076   3.835
 2565TIP3   OH2 7700   1.236   2.194   0.361
 2565TIP3    H1 7701   1.246   2.218   0.453
 2565TIP3    H2 7702   1.194   2.270   0.321
 2566TIP3   OH2 7703   3.322   0.469   3.596
 2566TIP3    H1 7704   3.377   0.394   3.572
 2566TIP3    H2 7705   3.371   0.513   3.665
 2567TIP3   OH2 7706   3.679   1.510   3.876
 2567TIP3    H1 7707   3.765   1.503   3.836
 2567TIP3    H2 7708   3.696   1.521   3.970
 2568TIP3   OH2 7709   3.446   2.904   4.827
 2568TIP3    H1 7710   3.429   2.842   4.898
 2568TIP3    H2 7711   3.487   2.852   4.759
 2569TIP3   OH2 7712   5.929   3.890   4.117
 2569TIP3    H1 7713   5.842   3.922   4.094
 2569TIP3    H2 7714   5.916   3.797   4.135
 2570TIP3   OH2 7715   3.475   5.748   3.855
 2570TIP3    H1 7716   3.411   5.797   3.804
 2570TIP3    H2 7717   3.422   5.688   3.908
 2571TIP3   OH2 7718   0.661   5.414   2.958
 2571TIP3    H1 7719   0.726   5.359   2.913
 2571TIP3    H2 7720   0.594   5.432   2.892
 2572TIP3   OH2 7721   0.936   3.112   2.701
 2572TIP3    H1 7722   0.865   3.164   2.739
 2572TIP3    H2 7723   0.973   3.064   2.775
 2573TIP3   OH2 7724   5.631   0.003   0.812
 2573TIP3    H1 7725   5.578   0.082   0.801
 2573TIP3    H2 7726   5.716   0.026   0.774
 2574TIP3   OH2 7727   0.411   5.079   0.980
 2574TIP3    H1 7728   0.502   5.071   1.010
 2574TIP3    H2 7729   0.363   5.107   1.057
 2575TIP3   OH2 7730   0.471   4.893   2.964
 2575TIP3    H1 7731   0.474   4.828   3.034
 2575TIP3    H2 7732   0.563   4.916   2.949
 2576TIP3   OH2 7733   4.319   1.243   2.003
 2576TIP3    H1 7734   4.280   1.200   2.079
 2576TIP3    H2 7735   4.409   1.210   2.000
 2577TIP3   OH2 7736   2.545   2.353   4.902
 2577TIP3    H1 7737   2.640   2.349   4.906
 2577TIP3    H2 7738   2.526   2.439   4.864
 2578TIP3   OH2 7739   2.586   3.225   0.200
 2578TIP3    H1 7740   2.546   3.265   0.123
 2578TIP3    H2 7741   2.522   3.161   0.230
 2579TIP3   OH2 7742   1.345   2.600   0.360
 2579TIP3    H1 7743   1.424   2.562   0.323
 2579TIP3    H2 7744   1.374   2.641   0.442
 2580TIP3   OH2 7745   4.710   2.617   2.855
 2580TIP3    H1 7746   4.637   2.586   2.801
 2580TIP3    H2 7747   4.745   2.692   2.808
 2581TIP3   OH2 7748   1.782   5.945   2.652
 2581TIP3    H1 7749   1.833   5.988   2.584
 2581TIP3    H2 7750   1.705   5.911   2.606
 2582TIP3   OH2 7751  -0.004   2.582   4.825
 2582TIP3    H1 7752   0.068   2.535   4.867
 2582TIP3    H2 7753   0.038   2.635   4.758
 2583TIP3   OH2 7754   3.573   3.705   4.368
 2583TIP3    H1 7755   3.504   3.753   4.415
 2583TIP3    H2 7756   3.572   3.618   4.408
 2584TIP3   OH2 7757   4.248   1.972   1.229
 2584TIP3    H1 7758   4.226   2.060   1.199
 2584TIP3    H2 7759   4.314   1.984   1.296
 2585TIP3   OH2 7760   1.166   0.418   0.184
 2585TIP3    H1 7761   1.148   0.328   0.211
 2585TIP3    H2 7762   1.258   0.431   0.204
 2586TIP3   OH2 7763   4.184   2.227   1.777
 2586TIP3    H1 7764   4.192   2.309   1.729
 2586TIP3    H2 7765   4.164   2.162   1.710
 2587TIP3   OH2 7766   4.032   3.274   0.601
 2587TIP3    H1 7767   4.127   3.283   0.594
 2587TIP3    H2 7768   4.004   3.354   0.647
 2588TIP3   OH2 7769   4.815   0.656   2.970
 2588TIP3    H1 7770   4.772   0.571   2.959
 2588TIP3    H2 7771   4.743   0.719   2.973
 2589TIP3   OH2 7772   5.715   0.499   0.240
 2589TIP3    H1 7773   5.744   0.412   0.269
 2589TIP3    H2 7774   5.750   0.559   0.306
 2590TIP3   OH2 7775   2.837   2.133   5.060
 2590TIP3    H1 7776   2.832   2.039   5.045
 2590TIP3    H2 7777   2.800   2.145   5.148
 2591TIP3   OH2 7778   2.890   1.676   4.645
 2591TIP3    H1 7779   2.961   1.649   4.704
 2591TIP3    H2 7780   2.855   1.593   4.612
 2592TIP3   OH2 7781   2.679   5.396   1.232
 2592TIP3    H1 7782   2.680   5.464   1.300
 2592TIP3    H2 7783   2.750   5.336   1.257
 2593TIP3   OH2 7784   5.235   0.377   2.594
 2593TIP3    H1 7785   5.237   0.469   2.621
 2593TIP3    H2 7786   5.174   0.335   2.656
 2594TIP3   OH2 7787   1.517   2.216   3.554
 2594TIP3    H1 7788   1.546   2.222   3.645
 2594TIP3    H2 7789   1.433   2.263   3.553
 2595TIP3   OH2 7790   1.277   2.527   0.080
 2595TIP3    H1 7791   1.231   2.552   0.160
 2595TIP3    H2 7792   1.369   2.546   0.098
 2596TIP3   OH2 7793   5.323   2.452   3.254
 2596TIP3    H1 7794   5.241   2.500   3.270
 2596TIP3    H2 7795   5.343   2.469   3.162
 2597TIP3   OH2 7796   3.669   2.047   0.138
 2597TIP3    H1 7797   3.718   2.016   0.214
 2597TIP3    H2 7798   3.578   2.025   0.159
 2598TIP3   OH2 7799   1.922   5.853   0.888
 2598TIP3    H1 7800   1.926   5.761   0.914
 2598TIP3    H2 7801   1.837   5.863   0.846
 2599TIP3   OH2 7802   3.524   2.511   0.028
 2599TIP3    H1 7803   3.575   2.548  -0.044
 2599TIP3    H2 7804   3.580   2.524   0.105
 2600TIP3   OH2 7805   1.503   5.688   3.560
 2600TIP3    H1 7806   1.523   5.691   3.467
 2600TIP3    H2 7807   1.444   5.762   3.575
 2601TIP3   OH2 7808   2.602   3.082   4.152
 2601TIP3    H1 7809   2.684   3.100   4.106
 2601TIP3    H2 7810   2.614   3.121   4.239
 2602TIP3   OH2 7811   5.933   5.390   4.504
 2602TIP3    H1 7812   5.853   5.339   4.494
 2602TIP3    H2 7813   5.938   5.443   4.424
 2603TIP3   OH2 7814   3.475   0.654   2.407
 2603TIP3    H1 7815   3.414   0.681   2.338
 2603TIP3    H2 7816   3.546   0.718   2.403
 2604TIP3   OH2 7817   5.317   1.600   3.845
 2604TIP3    H1 7818   5.313   1.566   3.756
 2604TIP3    H2 7819   5.339   1.693   3.835
 2605TIP3   OH2 7820   2.373   0.662   3.993
 2605TIP3    H1 7821   2.350   0.593   3.931
 2605TIP3    H2 7822   2.455   0.632   4.033
 2606TIP3   OH2 7823   4.129   4.397   3.059
 2606TIP3    H1 7824   4.039   4.392   3.025
 2606TIP3    H2 7825   4.162   4.480   3.024
 2607TIP3   OH2 7826   5.566   1.238   4.093
 2607TIP3    H1 7827   5.634   1.187   4.050
 2607TIP3    H2 7828   5.586   1.230   4.187
 2608TIP3   OH2 7829   2.292   4.865   4.917
 2608TIP3    H1 7830   2.205   4.871   4.958
 2608TIP3    H2 7831   2.353   4.881   4.989
 2609TIP3   OH2 7832   3.284   4.926   1.447
 2609TIP3    H1 7833   3.279   4.960   1.358
 2609TIP3    H2 7834   3.344   4.985   1.492
 2610TIP3   OH2 7835   3.702   4.220   1.071
 2610TIP3    H1 7836   3.629   4.178   1.026
 2610TIP3    H2 7837   3.719   4.164   1.147
 2611TIP3   OH2 7838   0.991   1.343   3.761
 2611TIP3    H1 7839   0.995   1.305   3.673
 2611TIP3    H2 7840   0.950   1.274   3.814
 2612TIP3   OH2 7841   0.469   3.237   2.296
 2612TIP3    H1 7842   0.468   3.216   2.389
 2612TIP3    H2 7843   0.462   3.333   2.293
 2613TIP3   OH2 7844   0.915   0.394   1.571
 2613TIP3    H1 7845   0.884   0.306   1.589
 2613TIP3    H2 7846   0.992   0.382   1.516
 2614TIP3   OH2 7847   4.808   5.571   0.925
 2614TIP3    H1 7848   4.757   5.650   0.944
 2614TIP3    H2 7849   4.870   5.599   0.858
 2615TIP3   OH2 7850   5.910   5.179   1.487
 2615TIP3    H1 7851   5.895   5.135   1.570
 2615TIP3    H2 7852   5.872   5.121   1.421
 2616TIP3   OH2 7853   2.333   3.525   1.784
 2616TIP3    H1 7854   2.349   3.450   1.841
 2616TIP3    H2 7855   2.281   3.585   1.838
 2617TIP3   OH2 7856   0.736   1.431   0.343
 2617TIP3    H1 7857   0.747   1.376   0.421
 2617TIP3    H2 7858   0.698   1.372   0.277
 2618TIP3   OH2 7859   5.003   3.558   3.683
 2618TIP3    H1 7860   4.954   3.488   3.640
 2618TIP3    H2 7861   5.033   3.614   3.612
 2619TIP3   OH2 7862   4.995   4.480   0.071
 2619TIP3    H1 7863   4.924   4.430   0.030
 2619TIP3    H2 7864   4.955   4.515   0.152
 2620TIP3   OH2 7865   5.673   1.338   4.743
 2620TIP3    H1 7866   5.685   1.415   4.799
 2620TIP3    H2 7867   5.710   1.364   4.659
 2621TIP3   OH2 7868   6.007   0.909   2.228
 2621TIP3    H1 7869   5.966   0.992   2.253
 2621TIP3    H2 7870   6.066   0.889   2.300
 2622TIP3   OH2 7871   3.690   1.566   0.882
 2622TIP3    H1 7872   3.708   1.560   0.976
 2622TIP3    H2 7873   3.707   1.478   0.849
 2623TIP3   OH2 7874   1.142   3.325   0.482
 2623TIP3    H1 7875   1.124   3.290   0.395
 2623TIP3    H2 7876   1.158   3.418   0.469
 2624TIP3   OH2 7877   5.912   2.098   4.489
 2624TIP3    H1 7878   5.939   2.044   4.415
 2624TIP3    H2 7879   5.984   2.090   4.552
 2625TIP3   OH2 7880   3.977   1.192   2.527
 2625TIP3    H1 7881   3.993   1.278   2.488
 2625TIP3    H2 7882   3.882   1.183   2.525
 2626TIP3   OH2 7883   1.908   0.938   4.367
 2626TIP3    H1 7884   1.989   0.890   4.348
 2626TIP3    H2 7885   1.908   1.011   4.304
 2627TIP3   OH2 7886   3.105   0.897   4.811
 2627TIP3    H1 7887   3.127   0.873   4.721
 2627TIP3    H2 7888   3.037   0.835   4.837
 2628TIP3   OH2 7889   4.199   2.286   2.788
 2628TIP3    H1 7890   4.270   2.330   2.835
 2628TIP3    H2 7891   4.173   2.214   2.846
 2629TIP3   OH2 7892   1.509   2.378   0.401
 2629TIP3    H1 7893   1.580   2.335   0.448
 2629TIP3    H2 7894   1.459   2.306   0.362
 2630TIP3   OH2 7895   1.842   1.463   3.571
 2630TIP3    H1 7896   1.810   1.551   3.551
 2630TIP3    H2 7897   1.847   1.460   3.666
 2631TIP3   OH2 7898   4.211   3.492   3.850
 2631TIP3    H1 7899   4.135   3.451   3.808
 2631TIP3    H2 7900   4.211   3.582   3.818
 2632TIP3   OH2 7901   5.902   3.884   4.579
 2632TIP3    H1 7902   5.890   3.957   4.519
 2632TIP3    H2 7903   5.990   3.898   4.615
 2633TIP3   OH2 7904   5.114   0.854   2.005
 2633TIP3    H1 7905   5.055   0.799   2.058
 2633TIP3    H2 7906   5.157   0.911   2.068
 2634TIP3   OH2 7907   5.999   4.115   3.267
 2634TIP3    H1 7908   5.951   4.032   3.273
 2634TIP3    H2 7909   6.087   4.090   3.239
 2635TIP3   OH2 7910   1.121   4.020   1.889
 2635TIP3    H1 7911   1.045   3.984   1.936
 2635TIP3    H2 7912   1.128   3.966   1.810
 2636TIP3   OH2 7913   5.196   1.779   1.061
 2636TIP3    H1 7914   5.266   1.751   1.002
 2636TIP3    H2 7915   5.117   1.775   1.007
 2637TIP3   OH2 7916   5.802   4.666   0.498
 2637TIP3    H1 7917   5.747   4.742   0.515
 2637TIP3    H2 7918   5.881   4.702   0.458
 2638TIP3   OH2 7919   5.153   3.282   4.493
 2638TIP3    H1 7920   5.204   3.338   4.434
 2638TIP3    H2 7921   5.196   3.292   4.578
 2639TIP3   OH2 7922   5.038   5.727   4.452
 2639TIP3    H1 7923   5.054   5.813   4.413
 2639TIP3    H2 7924   5.004   5.673   4.380
 2640TIP3   OH2 7925   5.165   5.228   1.341
 2640TIP3    H1 7926   5.198   5.293   1.403
 2640TIP3    H2 7927   5.070   5.228   1.355
 2641TIP3   OH2 7928   4.221   1.831   4.924
 2641TIP3    H1 7929   4.217   1.879   5.007
 2641TIP3    H2 7930   4.137   1.786   4.919
 2642TIP3   OH2 7931   4.755   0.487   4.175
 2642TIP3    H1 7932   4.808   0.411   4.150
 2642TIP3    H2 7933   4.759   0.545   4.099
 2643TIP3   OH2 7934   1.976   0.354   1.860
 2643TIP3    H1 7935   2.064   0.337   1.826
 2643TIP3    H2 7936   1.950   0.272   1.901
 2644TIP3   OH2 7937   1.770   0.140   2.562
 2644TIP3    H1 7938   1.685   0.152   2.521
 2644TIP3    H2 7939   1.826   0.208   2.523
 2645TIP3   OH2 7940   4.042   1.952   2.187
 2645TIP3    H1 7941   3.993   2.020   2.232
 2645TIP3    H2 7942   4.110   1.927   2.249
 2646TIP3   OH2 7943   4.899   3.518   2.952
 2646TIP3    H1 7944   4.835   3.485   2.889
 2646TIP3    H2 7945   4.868   3.606   2.974
 2647TIP3   OH2 7946   1.376   1.146   4.133
 2647TIP3    H1 7947   1.305   1.183   4.080
 2647TIP3    H2 7948   1.447   1.210   4.125
 2648TIP3   OH2 7949   3.225   3.948   1.208
 2648TIP3    H1 7950   3.207   3.854   1.206
 2648TIP3    H2 7951   3.321   3.954   1.200
 2649TIP3   OH2 7952   0.539   3.164   4.823
 2649TIP3    H1 7953   0.454   3.159   4.779
 2649TIP3    H2 7954   0.549   3.079   4.866
 2650TIP3   OH2 7955   0.125   4.183   1.341
 2650TIP3    H1 7956   0.056   4.232   1.385
 2650TIP3    H2 7957   0.182   4.152   1.411
 2651TIP3   OH2 7958   0.894   3.627   4.252
 2651TIP3    H1 7959   0.876   3.703   4.307
 2651TIP3    H2 7960   0.912   3.663   4.166
 2652TIP3   OH2 7961   4.941   5.474   2.883
 2652TIP3    H1 7962   4.955   5.488   2.789
 2652TIP3    H2 7963   5.027   5.487   2.922
 2653TIP3   OH2 7964   2.596   0.631   1.905
 2653TIP3    H1 7965   2.610   0.725   1.917
 2653TIP3    H2 7966   2.501   0.619   1.912
 2654TIP3   OH2 7967   3.022   5.469   1.490
 2654TIP3    H1 7968   3.069   5.390   1.462
 2654TIP3    H2 7969   3.072   5.541   1.451
 2655TIP3   OH2 7970   4.884   2.050   3.336
 2655TIP3    H1 7971   4.819   2.121   3.337
 2655TIP3    H2 7972   4.854   1.990   3.404
 2656TIP3   OH2 7973   4.877   3.193   3.118
 2656TIP3    H1 7974   4.929   3.177   3.039
 2656TIP3    H2 7975   4.942   3.210   3.187
 2657TIP3   OH2 7976   3.059   1.129   0.391
 2657TIP3    H1 7977   3.038   1.053   0.337
 2657TIP3    H2 7978   2.999   1.124   0.465
 2658TIP3   OH2 7979   0.534   2.442   3.268
 2658TIP3    H1 7980   0.459   2.453   3.209
 2658TIP3    H2 7981   0.564   2.531   3.286
 2659TIP3   OH2 7982   3.367   5.003   3.438
 2659TIP3    H1 7983   3.353   5.070   3.505
 2659TIP3    H2 7984   3.453   5.024   3.401
 2660TIP3   OH2 7985   6.153   2.324   1.896
 2660TIP3    H1 7986   6.075   2.379   1.895
 2660TIP3    H2 7987   6.121   2.237   1.874
 2661TIP3   OH2 7988   1.500   0.667   2.566
 2661TIP3    H1 7989   1.590   0.640   2.549
 2661TIP3    H2 7990   1.449   0.586   2.558
 2662TIP3   OH2 7991   0.214   4.032   2.348
 2662TIP3    H1 7992   0.221   3.974   2.272
 2662TIP3    H2 7993   0.120   4.042   2.362
 2663TIP3   OH2 7994   3.200   2.081   0.298
 2663TIP3    H1 7995   3.165   2.119   0.379
 2663TIP3    H2 7996   3.147   2.119   0.229
 2664TIP3   OH2 7997   5.097   5.772   5.129
 2664TIP3    H1 7998   5.146   5.717   5.069
 2664TIP3    H2 7999   5.125   5.744   5.216
 2665TIP3   OH2 8000   0.890   1.133   3.924
 2665TIP3    H1 8001   0.804   1.102   3.896
 2665TIP3    H2 8002   0.877   1.161   4.014
 2666TIP3   OH2 8003   3.121   0.090   0.361
 2666TIP3    H1 8004   3.067   0.147   0.415
 2666TIP3    H2 8005   3.203   0.138   0.348
 2667TIP3   OH2 8006   2.013   5.287   4.394
 2667TIP3    H1 8007   2.061   5.263   4.315
 2667TIP3    H2 8008   2.073   5.269   4.466
 2668TIP3   OH2 8009   5.969   3.191   0.703
 2668TIP3    H1 8010   5.997   3.191   0.795
 2668TIP3    H2 8011   5.902   3.259   0.699
 2669TIP3   OH2 8012   5.171   5.459   4.342
 2669TIP3    H1 8013   5.112   5.400   4.389
 2669TIP3    H2 8014   5.188   5.415   4.259
 2670TIP3   OH2 8015   5.168   3.183   4.066
 2670TIP3    H1 8016   5.149   3.108   4.010
 2670TIP3    H2 8017   5.097   3.245   4.049
 2671TIP3   OH2 8018   2.389   2.550   4.515
 2671TIP3    H1 8019   2.472   2.505   4.501
 2671TIP3    H2 8020   2.413   2.631   4.559
 2672TIP3   OH2 8021   5.959   4.860   5.147
 2672TIP3    H1 8022   5.914   4.886   5.228
 2672TIP3    H2 8023   6.037   4.814   5.176
 2673TIP3   OH2 8024   2.885   1.034   2.172
 2673TIP3    H1 8025   2.898   0.943   2.146
 2673TIP3    H2 8026   2.974   1.070   2.178
 2674TIP3   OH2 8027   1.133   5.860   4.887
 2674TIP3    H1 8028   1.038   5.860   4.875
 2674TIP3    H2 8029   1.167   5.915   4.816
 2675TIP3   OH2 8030   3.393   2.487   2.670
 2675TIP3    H1 8031   3.409   2.526   2.756
 2675TIP3    H2 8032   3.315   2.533   2.638
 2676TIP3   OH2 8033   3.651   1.731   4.182
 2676TIP3    H1 8034   3.619   1.815   4.149
 2676TIP3    H2 8035   3.728   1.712   4.128
 2677TIP3   OH2 8036   3.858   3.259   0.919
 2677TIP3    H1 8037   3.841   3.314   0.842
 2677TIP3    H2 8038   3.791   3.191   0.916
 2678TIP3   OH2 8039   0.158   1.088   2.169
 2678TIP3    H1 8040   0.100   1.048   2.105
 2678TIP3    H2 8041   0.136   1.046   2.252
 2679TIP3   OH2 8042   1.293   5.968   4.148
 2679TIP3    H1 8043   1.224   5.938   4.207
 2679TIP3    H2 8044   1.373   5.967   4.200
 2680TIP3   OH2 8045   2.823   5.915   2.059
 2680TIP3    H1 8046   2.784   5.867   2.132
 2680TIP3    H2 8047   2.837   5.849   1.991
 2681TIP3   OH2 8048   1.466   2.896   4.239
 2681TIP3    H1 8049   1.384   2.896   4.288
 2681TIP3    H2 8050   1.531   2.861   4.301
 2682TIP3   OH2 8051   6.226   0.094   2.218
 2682TIP3    H1 8052   6.167   0.031   2.176
 2682TIP3    H2 8053   6.314   0.065   2.192
 2683TIP3   OH2 8054   3.066   3.720   0.489
 2683TIP3    H1 8055   3.020   3.803   0.471
 2683TIP3    H2 8056   3.158   3.740   0.476
 2684TIP3   OH2 8057   5.945   5.489   3.297
 2684TIP3    H1 8058   5.872   5.480   3.236
 2684TIP3    H2 8059   5.914   5.553   3.362
 2685TIP3   OH2 8060   3.221   4.600   0.519
 2685TIP3    H1 8061   3.201   4.693   0.517
 2685TIP3    H2 8062   3.186   4.566   0.437
 2686TIP3   OH2 8063   4.733   5.534   1.561
 2686TIP3    H1 8064   4.786   5.463   1.526
 2686TIP3    H2 8065   4.713   5.589   1.485
 2687TIP3   OH2 8066   4.901   5.572   2.316
 2687TIP3    H1 8067   4.895   5.477   2.324
 2687TIP3    H2 8068   4.817   5.599   2.279
 2688TIP3   OH2 8069   0.353   5.165   0.713
 2688TIP3    H1 8070   0.378   5.249   0.752
 2688TIP3    H2 8071   0.353   5.103   0.787
 2689TIP3   OH2 8072   3.614   0.175   1.728
 2689TIP3    H1 8073   3.550   0.107   1.707
 2689TIP3    H2 8074   3.681   0.129   1.780
 2690TIP3   OH2 8075   0.952   2.304   1.167
 2690TIP3    H1 8076   1.029   2.355   1.191
 2690TIP3    H2 8077   0.979   2.213   1.178
 2691TIP3   OH2 8078   0.933   5.813   3.725
 2691TIP3    H1 8079   0.972   5.726   3.718
 2691TIP3    H2 8080   0.850   5.799   3.771
 2692TIP3   OH2 8081   3.467   5.856   2.319
 2692TIP3    H1 8082   3.433   5.892   2.401
 2692TIP3    H2 8083   3.393   5.805   2.284
 2693TIP3   OH2 8084   5.570   5.471   2.712
 2693TIP3    H1 8085   5.584   5.405   2.780
 2693TIP3    H2 8086   5.624   5.441   2.639
 2694TIP3   OH2 8087   2.519   1.427   0.153
 2694TIP3    H1 8088   2.568   1.503   0.184
 2694TIP3    H2 8089   2.583   1.375   0.105
 2695TIP3   OH2 8090   4.082   4.190   3.529
 2695TIP3    H1 8091   4.001   4.199   3.580
 2695TIP3    H2 8092   4.062   4.230   3.444
 2696TIP3   OH2 8093   0.980   5.229   0.536
 2696TIP3    H1 8094   0.983   5.280   0.455
 2696TIP3    H2 8095   0.901   5.260   0.581
 2697TIP3   OH2 8096   3.860   3.516   1.053
 2697TIP3    H1 8097   3.935   3.576   1.050
 2697TIP3    H2 8098   3.894   3.437   1.096
 2698TIP3   OH2 8099   2.185   5.369   2.704
 2698TIP3    H1 8100   2.216   5.327   2.784
 2698TIP3    H2 8101   2.092   5.386   2.720
 2699TIP3   OH2 8102   1.756   0.099   4.228
 2699TIP3    H1 8103   1.756   0.128   4.137
 2699TIP3    H2 8104   1.667   0.066   4.242
 2700TIP3   OH2 8105   2.620   3.177   1.476
 2700TIP3    H1 8106   2.678   3.229   1.421
 2700TIP3    H2 8107   2.533   3.215   1.463
 2701TIP3   OH2 8108   2.091   4.191   2.821
 2701TIP3    H1 8109   2.141   4.122   2.779
 2701TIP3    H2 8110   2.148   4.267   2.819
 2702TIP3   OH2 8111   1.220   3.885   0.892
 2702TIP3    H1 8112   1.203   3.868   0.799
 2702TIP3    H2 8113   1.185   3.808   0.937
 2703TIP3   OH2 8114   2.970   0.549   0.899
 2703TIP3    H1 8115   2.920   0.548   0.817
 2703TIP3    H2 8116   3.060   0.528   0.873
 2704TIP3   OH2 8117   5.210   2.121   2.913
 2704TIP3    H1 8118   5.159   2.121   2.994
 2704TIP3    H2 8119   5.148   2.146   2.845
 2705TIP3   OH2 8120   2.210   4.190   3.695
 2705TIP3    H1 8121   2.197   4.103   3.658
 2705TIP3    H2 8122   2.126   4.212   3.736
 2706TIP3   OH2 8123   1.461   1.790   0.865
 2706TIP3    H1 8124   1.553   1.817   0.870
 2706TIP3    H2 8125   1.441   1.790   0.771
 2707TIP3   OH2 8126   3.481   4.094   2.459
 2707TIP3    H1 8127   3.504   4.081   2.551
 2707TIP3    H2 8128   3.389   4.066   2.453
 2708TIP3   OH2 8129   4.990   2.771   3.991
 2708TIP3    H1 8130   5.005   2.697   4.049
 2708TIP3    H2 8131   4.985   2.733   3.903
 2709TIP3   OH2 8132   2.757   0.946   4.117
 2709TIP3    H1 8133   2.785   1.030   4.083
 2709TIP3    H2 8134   2.662   0.955   4.130
 2710TIP3   OH2 8135   4.238   3.092   2.846
 2710TIP3    H1 8136   4.158   3.131   2.810
 2710TIP3    H2 8137   4.306   3.157   2.829
 2711TIP3   OH2 8138   5.274   0.289   0.910
 2711TIP3    H1 8139   5.238   0.348   0.845
 2711TIP3    H2 8140   5.348   0.247   0.867
 2712TIP3   OH2 8141   3.933   4.260   1.288
 2712TIP3    H1 8142   3.997   4.331   1.282
 2712TIP3    H2 8143   3.985   4.180   1.286
 2713TIP3   OH2 8144   2.843   5.371   2.263
 2713TIP3    H1 8145   2.905   5.357   2.334
 2713TIP3    H2 8146   2.880   5.324   2.188
 2714TIP3   OH2 8147   2.514   5.412   4.393
 2714TIP3    H1 8148   2.471   5.342   4.442
 2714TIP3    H2 8149   2.590   5.371   4.352
 2715TIP3   OH2 8150   2.328   0.232   0.578
 2715TIP3    H1 8151   2.244   0.214   0.536
 2715TIP3    H2 8152   2.394   0.204   0.514
 2716TIP3   OH2 8153   1.975   1.998   4.917
 2716TIP3    H1 8154   1.912   1.925   4.919
 2716TIP3    H2 8155   1.936   2.060   4.855
 2717TIP3   OH2 8156   1.239   4.356   1.063
 2717TIP3    H1 8157   1.240   4.264   1.091
 2717TIP3    H2 8158   1.243   4.352   0.967
 2718TIP3   OH2 8159   3.182   5.209   4.751
 2718TIP3    H1 8160   3.225   5.169   4.827
 2718TIP3    H2 8161   3.115   5.146   4.725
 2719TIP3   OH2 8162   1.798   2.802   0.537
 2719TIP3    H1 8163   1.703   2.803   0.551
 2719TIP3    H2 8164   1.823   2.711   0.554
 2720TIP3   OH2 8165   6.027   2.457   3.465
 2720TIP3    H1 8166   6.066   2.449   3.378
 2720TIP3    H2 8167   6.092   2.421   3.525
 2721TIP3   OH2 8168   2.526   5.043   5.120
 2721TIP3    H1 8169   2.445   4.996   5.140
 2721TIP3    H2 8170   2.555   5.079   5.203
 2722TIP3   OH2 8171   5.075   0.400   2.823
 2722TIP3    H1 8172   5.074   0.479   2.876
 2722TIP3    H2 8173   4.989   0.398   2.782
 2723TIP3   OH2 8174   2.401   3.977   2.900
 2723TIP3    H1 8175   2.377   3.890   2.930
 2723TIP3    H2 8176   2.346   3.992   2.823
 2724TIP3   OH2 8177   2.290   2.311   1.401
 2724TIP3    H1 8178   2.273   2.352   1.485
 2724TIP3    H2 8179   2.329   2.226   1.423
 2725TIP3   OH2 8180   5.774   1.076   0.597
 2725TIP3    H1 8181   5.760   1.163   0.559
 2725TIP3    H2 8182   5.804   1.093   0.686
 2726TIP3   OH2 8183   2.467   0.388   4.227
 2726TIP3    H1 8184   2.476   0.293   4.223
 2726TIP3    H2 8185   2.540   0.417   4.281
 2727TIP3   OH2 8186   0.254   3.023   3.297
 2727TIP3    H1 8187   0.255   3.099   3.237
 2727TIP3    H2 8188   0.333   3.034   3.350
 2728TIP3   OH2 8189   0.256   2.246   0.552
 2728TIP3    H1 8190   0.296   2.333   0.553
 2728TIP3    H2 8191   0.163   2.262   0.572
 2729TIP3   OH2 8192   2.712   4.383   4.698
 2729TIP3    H1 8193   2.727   4.460   4.753
 2729TIP3    H2 8194   2.638   4.338   4.738
 2730TIP3   OH2 8195   5.420   3.773   5.034
 2730TIP3    H1 8196   5.512   3.768   5.062
 2730TIP3    H2 8197   5.420   3.735   4.946
 2731TIP3   OH2 8198   2.231   4.010   2.680
 2731TIP3    H1 8199   2.180   3.942   2.636
 2731TIP3    H2 8200   2.292   4.042   2.613
 2732TIP3   OH2 8201   0.319   1.800   4.287
 2732TIP3    H1 8202   0.361   1.859   4.350
 2732TIP3    H2 8203   0.321   1.849   4.205
 2733TIP3   OH2 8204   3.288   0.232   3.809
 2733TIP3    H1 8205   3.352   0.201   3.745
 2733TIP3    H2 8206   3.305   0.326   3.816
 2734TIP3   OH2 8207   6.016   1.412   3.836
 2734TIP3    H1 8208   5.931   1.445   3.866
 2734TIP3    H2 8209   6.072   1.489   3.832
 2735TIP3   OH2 8210   0.517   5.360   4.974
 2735TIP3    H1 8211   0.601   5.334   4.937
 2735TIP3    H2 8212   0.506   5.305   5.051
 2736TIP3   OH2 8213   4.881   2.052   3.718
 2736TIP3    H1 8214   4.864   2.036   3.811
 2736TIP3    H2 8215   4.824   2.125   3.696
 2737TIP3   OH2 8216   2.354   2.866   4.269
 2737TIP3    H1 8217   2.348   2.949   4.222
 2737TIP3    H2 8218   2.294   2.807   4.223
 2738TIP3   OH2 8219   5.176   4.375   2.062
 2738TIP3    H1 8220   5.145   4.464   2.077
 2738TIP3    H2 8221   5.100   4.320   2.079
 2739TIP3   OH2 8222   0.992   1.178   2.918
 2739TIP3    H1 8223   1.047   1.206   2.846
 2739TIP3    H2 8224   1.026   1.092   2.943
 2740TIP3   OH2 8225   5.682   4.878   0.204
 2740TIP3    H1 8226   5.634   4.849   0.282
 2740TIP3    H2 8227   5.732   4.954   0.233
 2741TIP3   OH2 8228   4.735   4.260   2.632
 2741TIP3    H1 8229   4.642   4.246   2.649
 2741TIP3    H2 8230   4.771   4.290   2.715
 2742TIP3   OH2 8231   2.923   1.084   3.752
 2742TIP3    H1 8232   2.926   0.990   3.733
 2742TIP3    H2 8233   2.831   1.107   3.746
 2743TIP3   OH2 8234   3.604   5.380   3.385
 2743TIP3    H1 8235   3.674   5.332   3.340
 2743TIP3    H2 8236   3.579   5.449   3.325
 2744TIP3   OH2 8237   2.057   2.831   1.425
 2744TIP3    H1 8238   2.150   2.851   1.418
 2744TIP3    H2 8239   2.026   2.830   1.334
 2745TIP3   OH2 8240   5.141   2.766   1.831
 2745TIP3    H1 8241   5.180   2.853   1.830
 2745TIP3    H2 8242   5.202   2.713   1.882
 2746TIP3   OH2 8243   3.197   0.452   0.561
 2746TIP3    H1 8244   3.155   0.538   0.563
 2746TIP3    H2 8245   3.271   0.461   0.621
 2747TIP3   OH2 8246   3.830   3.667   1.800
 2747TIP3    H1 8247   3.818   3.687   1.893
 2747TIP3    H2 8248   3.758   3.609   1.778
 2748TIP3   OH2 8249   3.326   1.893   0.483
 2748TIP3    H1 8250   3.314   1.937   0.399
 2748TIP3    H2 8251   3.241   1.901   0.527
 2749TIP3   OH2 8252   3.727   3.604   2.039
 2749TIP3    H1 8253   3.652   3.657   2.066
 2749TIP3    H2 8254   3.697   3.514   2.048
 2750TIP3   OH2 8255   0.381   2.940   0.686
 2750TIP3    H1 8256   0.433   3.020   0.690
 2750TIP3    H2 8257   0.291   2.969   0.704
 2751TIP3   OH2 8258   3.389   0.948   1.800
 2751TIP3    H1 8259   3.451   0.921   1.868
 2751TIP3    H2 8260   3.422   1.033   1.770
 2752TIP3   OH2 8261   0.158   2.018   0.310
 2752TIP3    H1 8262   0.064   1.999   0.315
 2752TIP3    H2 8263   0.193   1.987   0.394
 2753TIP3   OH2 8264   6.232   4.521   1.337
 2753TIP3    H1 8265   6.147   4.507   1.296
 2753TIP3    H2 8266   6.291   4.543   1.265
 2754TIP3   OH2 8267   2.247   4.410   3.253
 2754TIP3    H1 8268   2.165   4.449   3.223
 2754TIP3    H2 8269   2.274   4.352   3.182
 2755TIP3   OH2 8270   3.484   4.777   3.028
 2755TIP3    H1 8271   3.419   4.844   3.004
 2755TIP3    H2 8272   3.567   4.811   2.995
 2756TIP3   OH2 8273   5.017   5.301   5.051
 2756TIP3    H1 8274   5.107   5.291   5.020
 2756TIP3    H2 8275   5.012   5.391   5.083
 2757TIP3   OH2 8276   4.097   3.189   4.605
 2757TIP3    H1 8277   4.089   3.280   4.575
 2757TIP3    H2 8278   4.187   3.184   4.639
 2758TIP3   OH2 8279   2.603   3.245   4.962
 2758TIP3    H1 8280   2.516   3.208   4.945
 2758TIP3    H2 8281   2.594   3.338   4.942
 2759TIP3   OH2 8282   2.873   1.080   4.540
 2759TIP3    H1 8283   2.929   1.152   4.569
 2759TIP3    H2 8284   2.844   1.107   4.452
 2760TIP3   OH2 8285   5.463   2.682   0.391
 2760TIP3    H1 8286   5.408   2.750   0.429
 2760TIP3    H2 8287   5.477   2.620   0.462
 2761TIP3   OH2 8288   1.999   2.167   3.941
 2761TIP3    H1 8289   2.076   2.205   3.985
 2761TIP3    H2 8290   1.951   2.243   3.909
 2762TIP3   OH2 8291   5.059   1.137   0.141
 2762TIP3    H1 8292   5.059   1.107   0.232
 2762TIP3    H2 8293   4.980   1.099   0.103
 2763TIP3   OH2 8294   1.342   0.739   4.822
 2763TIP3    H1 8295   1.305   0.821   4.855
 2763TIP3    H2 8296   1.347   0.682   4.899
 2764TIP3   OH2 8297   0.142   5.987   3.175
 2764TIP3    H1 8298   0.122   5.945   3.259
 2764TIP3    H2 8299   0.093   5.936   3.111
 2765TIP3   OH2 8300   5.831   2.718   1.261
 2765TIP3    H1 8301   5.833   2.811   1.283
 2765TIP3    H2 8302   5.918   2.686   1.286
 2766TIP3   OH2 8303   4.154   0.009   4.910
 2766TIP3    H1 8304   4.147   0.039   5.000
 2766TIP3    H2 8305   4.222   0.065   4.871
 2767TIP3   OH2 8306   0.755   5.257   1.052
 2767TIP3    H1 8307   0.676   5.280   1.101
 2767TIP3    H2 8308   0.824   5.311   1.090
 2768TIP3   OH2 8309   1.751   4.263   2.758
 2768TIP3    H1 8310   1.780   4.309   2.680
 2768TIP3    H2 8311   1.793   4.309   2.831
 2769TIP3   OH2 8312   3.905   1.759   4.436
 2769TIP3    H1 8313   3.943   1.757   4.348
 2769TIP3    H2 8314   3.937   1.840   4.474
 2770TIP3   OH2 8315   5.058   2.443   2.956
 2770TIP3    H1 8316   4.994   2.514   2.960
 2770TIP3    H2 8317   5.006   2.364   2.943
 2771TIP3   OH2 8318   4.492   0.620   4.304
 2771TIP3    H1 8319   4.539   0.537   4.311
 2771TIP3    H2 8320   4.419   0.601   4.245
 2772TIP3   OH2 8321   1.455   2.821   1.619
 2772TIP3    H1 8322   1.473   2.885   1.688
 2772TIP3    H2 8323   1.518   2.751   1.634
 2773TIP3   OH2 8324   5.121   0.567   3.987
 2773TIP3    H1 8325   5.063   0.641   4.002
 2773TIP3    H2 8326   5.069   0.491   4.014
 2774TIP3   OH2 8327   3.930   3.984   0.297
 2774TIP3    H1 8328   3.960   3.918   0.360
 2774TIP3    H2 8329   3.979   4.063   0.319
 2775TIP3   OH2 8330   0.532   4.718   3.161
 2775TIP3    H1 8331   0.505   4.629   3.186
 2775TIP3    H2 8332   0.620   4.727   3.197
 2776TIP3   OH2 8333   2.002   0.983   0.045
 2776TIP3    H1 8334   1.951   0.910   0.011
 2776TIP3    H2 8335   2.043   0.950   0.125
 2777TIP3   OH2 8336   5.435   1.477   1.856
 2777TIP3    H1 8337   5.525   1.447   1.844
 2777TIP3    H2 8338   5.383   1.396   1.856
 2778TIP3   OH2 8339   2.520   3.600   0.756
 2778TIP3    H1 8340   2.508   3.695   0.749
 2778TIP3    H2 8341   2.569   3.588   0.837
 2779TIP3   OH2 8342   2.379   5.099   2.667
 2779TIP3    H1 8343   2.408   5.159   2.736
 2779TIP3    H2 8344   2.354   5.020   2.714
 2780TIP3   OH2 8345   4.676   0.866   3.404
 2780TIP3    H1 8346   4.647   0.944   3.356
 2780TIP3    H2 8347   4.601   0.843   3.459
 2781TIP3   OH2 8348   5.549   4.896   4.339
 2781TIP3    H1 8349   5.633   4.877   4.380
 2781TIP3    H2 8350   5.485   4.890   4.410
 2782TIP3   OH2 8351   1.167   3.899   1.315
 2782TIP3    H1 8352   1.247   3.871   1.271
 2782TIP3    H2 8353   1.119   3.818   1.330
 2783TIP3   OH2 8354   6.107   3.178   0.964
 2783TIP3    H1 8355   6.128   3.139   1.048
 2783TIP3    H2 8356   6.191   3.201   0.925
 2784TIP3   OH2 8357   5.525   0.824   1.046
 2784TIP3    H1 8358   5.578   0.806   0.969
 2784TIP3    H2 8359   5.511   0.919   1.043
 2785TIP3   OH2 8360   0.592   3.101   0.769
 2785TIP3    H1 8361   0.671   3.134   0.811
 2785TIP3    H2 8362   0.619   3.076   0.681
 2786TIP3   OH2 8363   6.275   2.686   4.295
 2786TIP3    H1 8364   6.355   2.645   4.261
 2786TIP3    H2 8365   6.229   2.615   4.339
 2787TIP3   OH2 8366   5.428   4.109   1.313
 2787TIP3    H1 8367   5.366   4.047   1.274
 2787TIP3    H2 8368   5.514   4.076   1.288
 2788TIP3   OH2 8369   3.476   5.556   4.990
 2788TIP3    H1 8370   3.405   5.512   4.942
 2788TIP3    H2 8371   3.448   5.556   5.081
 2789TIP3   OH2 8372   0.896   2.827   1.437
 2789TIP3    H1 8373   0.887   2.878   1.356
 2789TIP3    H2 8374   0.951   2.753   1.412
 2790TIP3   OH2 8375   3.288   2.294   1.292
 2790TIP3    H1 8376   3.252   2.206   1.286
 2790TIP3    H2 8377   3.374   2.282   1.333
 2791TIP3   OH2 8378   5.694   3.537   3.120
 2791TIP3    H1 8379   5.776   3.518   3.165
 2791TIP3    H2 8380   5.720   3.561   3.031
 2792TIP3   OH2 8381   3.761   1.726   3.232
 2792TIP3    H1 8382   3.708   1.684   3.164
 2792TIP3    H2 8383   3.847   1.736   3.192
 2793TIP3   OH2 8384   4.535   0.584   2.437
 2793TIP3    H1 8385   4.581   0.552   2.514
 2793TIP3    H2 8386   4.484   0.658   2.468
 2794TIP3   OH2 8387   1.384   3.970   3.152
 2794TIP3    H1 8388   1.362   3.923   3.233
 2794TIP3    H2 8389   1.437   3.908   3.102
 2795TIP3   OH2 8390   6.321   4.978  -0.021
 2795TIP3    H1 8391   6.385   5.010   0.043
 2795TIP3    H2 8392   6.262   4.923   0.030
 2796TIP3   OH2 8393   5.910   0.839   3.025
 2796TIP3    H1 8394   5.860   0.765   3.058
 2796TIP3    H2 8395   5.967   0.864   3.098
 2797TIP3   OH2 8396   4.385   1.194   2.874
 2797TIP3    H1 8397   4.414   1.214   2.785
 2797TIP3    H2 8398   4.294   1.225   2.877
 2798TIP3   OH2 8399   5.788   3.424   4.888
 2798TIP3    H1 8400   5.807   3.430   4.795
 2798TIP3    H2 8401   5.801   3.332   4.909
 2799TIP3   OH2 8402   2.805   4.041   1.677
 2799TIP3    H1 8403   2.724   4.005   1.640
 2799TIP3    H2 8404   2.842   4.095   1.607
 2800TIP3   OH2 8405   0.423   1.067   1.240
 2800TIP3    H1 8406   0.506   1.098   1.204
 2800TIP3    H2 8407   0.410   0.982   1.199
 2801TIP3   OH2 8408   1.221   5.168   4.937
 2801TIP3    H1 8409   1.203   5.164   5.031
 2801TIP3    H2 8410   1.218   5.261   4.916
 2802TIP3   OH2 8411   3.246   2.697   0.935
 2802TIP3    H1 8412   3.212   2.614   0.904
 2802TIP3    H2 8413   3.287   2.737   0.858
 2803TIP3   OH2 8414   0.771   5.863   0.807
 2803TIP3    H1 8415   0.729   5.898   0.729
 2803TIP3    H2 8416   0.751   5.927   0.876
 2804TIP3   OH2 8417   5.808   1.184   5.055
 2804TIP3    H1 8418   5.894   1.198   5.094
 2804TIP3    H2 8419   5.826   1.143   4.971
 2805TIP3   OH2 8420   5.666   2.457   2.368
 2805TIP3    H1 8421   5.722   2.471   2.292
 2805TIP3    H2 8422   5.673   2.364   2.387
 2806TIP3   OH2 8423   5.889   3.602   3.455
 2806TIP3    H1 8424   5.809   3.611   3.506
 2806TIP3    H2 8425   5.953   3.566   3.516
 2807TIP3   OH2 8426   2.244   0.139   1.344
 2807TIP3    H1 8427   2.278   0.073   1.405
 2807TIP3    H2 8428   2.166   0.099   1.307
 2808TIP3   OH2 8429   2.101   4.133   5.212
 2808TIP3    H1 8430   2.140   4.202   5.158
 2808TIP3    H2 8431   2.007   4.146   5.203
 2809TIP3   OH2 8432   1.011   3.061   2.447
 2809TIP3    H1 8433   0.950   3.096   2.382
 2809TIP3    H2 8434   0.983   3.100   2.530
 2810TIP3   OH2 8435   6.294   0.052   3.785
 2810TIP3    H1 8436   6.264   0.136   3.818
 2810TIP3    H2 8437   6.389   0.054   3.796
 2811TIP3   OH2 8438   2.227   5.637   2.684
 2811TIP3    H1 8439   2.220   5.543   2.703
 2811TIP3    H2 8440   2.247   5.676   2.769
 2812TIP3   OH2 8441   1.823   1.771   4.960
 2812TIP3    H1 8442   1.794   1.709   5.026
 2812TIP3    H2 8443   1.811   1.725   4.877
 2813TIP3   OH2 8444   3.538   1.960   2.752
 2813TIP3    H1 8445   3.602   1.995   2.690
 2813TIP3    H2 8446   3.477   1.910   2.697
 2814TIP3   OH2 8447   5.586   2.074   3.903
 2814TIP3    H1 8448   5.524   2.094   3.833
 2814TIP3    H2 8449   5.532   2.042   3.975
 2815TIP3   OH2 8450   5.551   1.664   1.168
 2815TIP3    H1 8451   5.610   1.735   1.141
 2815TIP3    H2 8452   5.540   1.677   1.263
 2816TIP3   OH2 8453   3.981   5.611   0.777
 2816TIP3    H1 8454   3.898   5.657   0.769
 2816TIP3    H2 8455   3.962   5.521   0.751
 2817TIP3   OH2 8456   1.171   4.096   5.095
 2817TIP3    H1 8457   1.198   4.163   5.158
 2817TIP3    H2 8458   1.181   4.139   5.009
 2818TIP3   OH2 8459   0.863   5.502   3.126
 2818TIP3    H1 8460   0.866   5.597   3.118
 2818TIP3    H2 8461   0.795   5.474   3.066
 2819TIP3   OH2 8462   4.601   2.261   0.361
 2819TIP3    H1 8463   4.620   2.294   0.449
 2819TIP3    H2 8464   4.507   2.245   0.360
 2820TIP3   OH2 8465   4.681   0.803   2.107
 2820TIP3    H1 8466   4.655   0.819   2.198
 2820TIP3    H2 8467   4.775   0.789   2.111
 2821TIP3   OH2 8468   3.908   2.910   2.695
 2821TIP3    H1 8469   3.870   2.968   2.760
 2821TIP3    H2 8470   3.891   2.952   2.611
 2822TIP3   OH2 8471   0.679   3.718   2.959
 2822TIP3    H1 8472   0.647   3.796   2.914
 2822TIP3    H2 8473   0.774   3.730   2.965
 2823TIP3   OH2 8474  -0.004   3.304   4.511
 2823TIP3    H1 8475   0.077   3.356   4.513
 2823TIP3    H2 8476  -0.030   3.297   4.603
 2824TIP3   OH2 8477   4.268   4.771   3.907
 2824TIP3    H1 8478   4.202   4.813   3.852
 2824TIP3    H2 8479   4.218   4.727   3.976
 2825TIP3   OH2 8480   4.757   2.966   0.914
 2825TIP3    H1 8481   4.843   2.996   0.883
 2825TIP3    H2 8482   4.715   2.929   0.837
 2826TIP3   OH2 8483   1.476   2.645   5.086
 2826TIP3    H1 8484   1.425   2.723   5.066
 2826TIP3    H2 8485   1.418   2.592   5.141
 2827TIP3   OH2 8486   5.870   5.091   2.425
 2827TIP3    H1 8487   5.942   5.051   2.474
 2827TIP3    H2 8488   5.791   5.050   2.460
 2828TIP3   OH2 8489   0.186   3.486   2.349
 2828TIP3    H1 8490   0.159   3.574   2.374
 2828TIP3    H2 8491   0.233   3.453   2.426
 2829TIP3   OH2 8492   4.094   4.715   4.412
 2829TIP3    H1 8493   4.086   4.733   4.506
 2829TIP3    H2 8494   4.031   4.773   4.371
 2830TIP3   OH2 8495   5.174   5.598   3.794
 2830TIP3    H1 8496   5.151   5.645   3.874
 2830TIP3    H2 8497   5.090   5.569   3.758
 2831TIP3   OH2 8498   2.905   1.247   3.168
 2831TIP3    H1 8499   2.882   1.157   3.147
 2831TIP3    H2 8500   2.842   1.300   3.118
 2832TIP3   OH2 8501   5.242   3.019   2.597
 2832TIP3    H1 8502   5.171   2.964   2.631
 2832TIP3    H2 8503   5.252   3.088   2.662
 2833TIP3   OH2 8504   0.510   0.492   4.360
 2833TIP3    H1 8505   0.523   0.570   4.413
 2833TIP3    H2 8506   0.454   0.521   4.288
 2834TIP3   OH2 8507   1.195   5.272   1.192
 2834TIP3    H1 8508   1.131   5.267   1.263
 2834TIP3    H2 8509   1.229   5.183   1.184
 2835TIP3   OH2 8510   1.569   2.675   3.114
 2835TIP3    H1 8511   1.588   2.768   3.116
 2835TIP3    H2 8512   1.640   2.635   3.164
 2836TIP3   OH2 8513   6.097   3.525   2.718
 2836TIP3    H1 8514   6.188   3.551   2.701
 2836TIP3    H2 8515   6.104   3.438   2.756
 2837TIP3   OH2 8516   4.531  -0.014  -0.027
 2837TIP3    H1 8517   4.531  -0.035   0.066
 2837TIP3    H2 8518   4.514   0.080  -0.032
 2838TIP3   OH2 8519   0.935   0.661   2.682
 2838TIP3    H1 8520   0.852   0.670   2.635
 2838TIP3    H2 8521   0.989   0.607   2.624
 2839TIP3   OH2 8522   2.851   1.042   0.562
 2839TIP3    H1 8523   2.766   1.082   0.544
 2839TIP3    H2 8524   2.832   0.948   0.565
 2840TIP3   OH2 8525   1.445   0.372   4.216
 2840TIP3    H1 8526   1.436   0.397   4.308
 2840TIP3    H2 8527   1.527   0.412   4.188
 2841TIP3   OH2 8528   3.002   4.671   1.165
 2841TIP3    H1 8529   3.091   4.652   1.135
 2841TIP3    H2 8530   2.958   4.707   1.088
 2842TIP3   OH2 8531   6.023   4.574   3.585
 2842TIP3    H1 8532   6.040   4.633   3.511
 2842TIP3    H2 8533   6.033   4.630   3.662
 2843TIP3   OH2 8534   2.012   5.535   3.665
 2843TIP3    H1 8535   1.941   5.482   3.628
 2843TIP3    H2 8536   2.025   5.606   3.603
 2844TIP3   OH2 8537   5.857   0.203   3.518
 2844TIP3    H1 8538   5.916   0.226   3.447
 2844TIP3    H2 8539   5.897   0.241   3.597
 2845TIP3   OH2 8540   5.114   2.548   1.618
 2845TIP3    H1 8541   5.122   2.503   1.702
 2845TIP3    H2 8542   5.113   2.641   1.641
 2846TIP3   OH2 8543   4.303   4.106   4.076
 2846TIP3    H1 8544   4.259   4.171   4.130
 2846TIP3    H2 8545   4.356   4.056   4.138
 2847TIP3   OH2 8546   2.004   2.437   4.744
 2847TIP3    H1 8547   2.098   2.435   4.727
 2847TIP3    H2 8548   1.975   2.347   4.730
 2848TIP3   OH2 8549   2.687   0.388   1.758
 2848TIP3    H1 8550   2.764   0.427   1.718
 2848TIP3    H2 8551   2.651   0.457   1.813
 2849TIP3   OH2 8552   0.285   2.271   4.238
 2849TIP3    H1 8553   0.380   2.256   4.238
 2849TIP3    H2 8554   0.250   2.205   4.297
 2850TIP3   OH2 8555   2.154   0.691   4.845
 2850TIP3    H1 8556   2.126   0.661   4.931
 2850TIP3    H2 8557   2.195   0.615   4.805
 2851TIP3   OH2 8558   3.223   2.890   1.253
 2851TIP3    H1 8559   3.147   2.886   1.310
 2851TIP3    H2 8560   3.233   2.801   1.220
 2852TIP3   OH2 8561   0.143   1.505   2.808
 2852TIP3    H1 8562   0.066   1.548   2.846
 2852TIP3    H2 8563   0.142   1.530   2.716
 2853TIP3   OH2 8564   4.460   0.282   0.072
 2853TIP3    H1 8565   4.379   0.326   0.045
 2853TIP3    H2 8566   4.498   0.340   0.138
 2854TIP3   OH2 8567   4.227   4.657   2.971
 2854TIP3    H1 8568   4.320   4.681   2.966
 2854TIP3    H2 8569   4.183   4.719   2.914
 2855TIP3   OH2 8570   0.728   3.918   2.305
 2855TIP3    H1 8571   0.636   3.926   2.279
 2855TIP3    H2 8572   0.724   3.878   2.392
 2856TIP3   OH2 8573   0.460   4.097   4.098
 2856TIP3    H1 8574   0.535   4.151   4.122
 2856TIP3    H2 8575   0.444   4.042   4.175
 2857TIP3   OH2 8576   0.925   2.566   1.882
 2857TIP3    H1 8577   0.849   2.539   1.831
 2857TIP3    H2 8578   0.991   2.590   1.817
 2858TIP3   OH2 8579   0.433   1.964   3.440
 2858TIP3    H1 8580   0.405   1.902   3.373
 2858TIP3    H2 8581   0.479   1.911   3.505
 2859TIP3   OH2 8582   4.620   1.142   3.015
 2859TIP3    H1 8583   4.551   1.163   2.952
 2859TIP3    H2 8584   4.588   1.178   3.098
 2860TIP3   OH2 8585   5.206   0.636   4.645
 2860TIP3    H1 8586   5.212   0.731   4.659
 2860TIP3    H2 8587   5.240   0.623   4.556
 2861TIP3   OH2 8588   0.917   2.768   2.406
 2861TIP3    H1 8589   0.874   2.853   2.420
 2861TIP3    H2 8590   0.932   2.733   2.494
 2862TIP3   OH2 8591   1.783   3.608   3.366
 2862TIP3    H1 8592   1.741   3.558   3.436
 2862TIP3    H2 8593   1.742   3.574   3.285
 2863TIP3   OH2 8594   5.000   4.892   3.291
 2863TIP3    H1 8595   5.060   4.844   3.234
 2863TIP3    H2 8596   4.984   4.974   3.244
 2864TIP3   OH2 8597   1.714   0.066   0.901
 2864TIP3    H1 8598   1.809   0.052   0.892
 2864TIP3    H2 8599   1.698   0.054   0.995
 2865TIP3   OH2 8600   5.737   4.733   3.768
 2865TIP3    H1 8601   5.683   4.674   3.714
 2865TIP3    H2 8602   5.779   4.791   3.705
 2866TIP3   OH2 8603   0.683   0.154   0.255
 2866TIP3    H1 8604   0.590   0.175   0.258
 2866TIP3    H2 8605   0.708   0.170   0.164
 2867TIP3   OH2 8606   5.570   0.341   1.751
 2867TIP3    H1 8607   5.568   0.419   1.806
 2867TIP3    H2 8608   5.617   0.368   1.672
 2868TIP3   OH2 8609   2.238   0.424   5.131
 2868TIP3    H1 8610   2.287   0.503   5.153
 2868TIP3    H2 8611   2.156   0.455   5.094
 2869TIP3   OH2 8612   0.536   4.673   2.659
 2869TIP3    H1 8613   0.461   4.649   2.713
 2869TIP3    H2 8614   0.547   4.599   2.599
 2870TIP3   OH2 8615   0.538   2.044   3.146
 2870TIP3    H1 8616   0.487   2.080   3.218
 2870TIP3    H2 8617   0.595   2.116   3.118
 2871TIP3   OH2 8618   3.103   1.303   3.677
 2871TIP3    H1 8619   3.187   1.276   3.638
 2871TIP3    H2 8620   3.063   1.221   3.707
 2872TIP3   OH2 8621   5.980   0.925   3.873
 2872TIP3    H1 8622   5.992   0.982   3.798
 2872TIP3    H2 8623   6.053   0.863   3.869
 2873TIP3   OH2 8624   6.055   2.548   4.756
 2873TIP3    H1 8625   6.015   2.548   4.844
 2873TIP3    H2 8626   6.149   2.551   4.773
 2874TIP3   OH2 8627   4.867   0.417   0.818
 2874TIP3    H1 8628   4.914   0.371   0.748
 2874TIP3    H2 8629   4.777   0.423   0.786
 2875TIP3   OH2 8630   2.719   1.957   4.016
 2875TIP3    H1 8631   2.800   1.907   4.030
 2875TIP3    H2 8632   2.749   2.047   4.003
 2876TIP3   OH2 8633   4.128   0.125   5.157
 2876TIP3    H1 8634   4.186   0.154   5.228
 2876TIP3    H2 8635   4.124   0.201   5.098
 2877TIP3   OH2 8636   0.490   5.202   0.198
 2877TIP3    H1 8637   0.397   5.220   0.209
 2877TIP3    H2 8638   0.520   5.180   0.287
 2878TIP3   OH2 8639   0.958   2.045   2.894
 2878TIP3    H1 8640   0.899   2.106   2.850
 2878TIP3    H2 8641   0.915   1.960   2.885
 2879TIP3   OH2 8642   5.853   0.768   5.093
 2879TIP3    H1 8643   5.797   0.769   5.170
 2879TIP3    H2 8644   5.928   0.822   5.116
 2880TIP3   OH2 8645   3.483   2.862   1.843
 2880TIP3    H1 8646   3.573   2.874   1.873
 2880TIP3    H2 8647   3.476   2.915   1.763
 2881TIP3   OH2 8648   0.158   0.707   0.304
 2881TIP3    H1 8649   0.082   0.649   0.293
 2881TIP3    H2 8650   0.124   0.794   0.287
 2882TIP3   OH2 8651   1.156   3.899   2.549
 2882TIP3    H1 8652   1.102   3.864   2.478
 2882TIP3    H2 8653   1.095   3.944   2.607
 2883TIP3   OH2 8654   5.351   4.324   2.978
 2883TIP3    H1 8655   5.407   4.350   2.905
 2883TIP3    H2 8656   5.294   4.257   2.942
 2884TIP3   OH2 8657   1.268   4.422   2.285
 2884TIP3    H1 8658   1.194   4.447   2.341
 2884TIP3    H2 8659   1.330   4.380   2.345
 2885TIP3   OH2 8660   1.102   2.295   2.473
 2885TIP3    H1 8661   1.030   2.305   2.535
 2885TIP3    H2 8662   1.181   2.300   2.527
 2886TIP3   OH2 8663   3.908   3.064   3.850
 2886TIP3    H1 8664   3.816   3.089   3.840
 2886TIP3    H2 8665   3.927   3.011   3.773
 2887TIP3   OH2 8666   2.614   4.925   4.096
 2887TIP3    H1 8667   2.591   4.893   4.183
 2887TIP3    H2 8668   2.532   4.922   4.047
 2888TIP3   OH2 8669   1.557   5.820   0.179
 2888TIP3    H1 8670   1.507   5.739   0.171
 2888TIP3    H2 8671   1.506   5.885   0.132
 2889TIP3   OH2 8672   5.636   3.718   0.250
 2889TIP3    H1 8673   5.679   3.675   0.324
 2889TIP3    H2 8674   5.707   3.761   0.202
 2890TIP3   OH2 8675   5.525   4.506   1.633
 2890TIP3    H1 8676   5.536   4.414   1.654
 2890TIP3    H2 8677   5.473   4.542   1.705
 2891TIP3   OH2 8678   3.577   2.243   3.100
 2891TIP3    H1 8679   3.633   2.166   3.097
 2891TIP3    H2 8680   3.574   2.266   3.193
 2892TIP3   OH2 8681   0.291   3.624   2.679
 2892TIP3    H1 8682   0.277   3.647   2.771
 2892TIP3    H2 8683   0.373   3.667   2.656
 2893TIP3   OH2 8684   0.758   0.264   5.048
 2893TIP3    H1 8685   0.822   0.192   5.048
 2893TIP3    H2 8686   0.810   0.341   5.070
 2894TIP3   OH2 8687   0.050   5.091   4.582
 2894TIP3    H1 8688   0.016   5.034   4.651
 2894TIP3    H2 8689   0.129   5.129   4.620
 2895TIP3   OH2 8690   3.288   1.326   2.786
 2895TIP3    H1 8691   3.282   1.251   2.845
 2895TIP3    H2 8692   3.204   1.327   2.741
 2896TIP3   OH2 8693   3.213   3.008   4.155
 2896TIP3    H1 8694   3.237   3.084   4.208
 2896TIP3    H2 8695   3.285   2.998   4.092
 2897TIP3   OH2 8696   2.447   5.107   4.796
 2897TIP3    H1 8697   2.361   5.080   4.829
 2897TIP3    H2 8698   2.509   5.048   4.838
 2898TIP3   OH2 8699   3.802   1.063   2.969
 2898TIP3    H1 8700   3.810   1.137   3.029
 2898TIP3    H2 8701   3.872   1.003   2.996
 2899TIP3   OH2 8702   2.101   2.443   1.711
 2899TIP3    H1 8703   2.187   2.473   1.739
 2899TIP3    H2 8704   2.079   2.373   1.773
 2900TIP3   OH2 8705   1.837   3.689   4.170
 2900TIP3    H1 8706   1.793   3.604   4.179
 2900TIP3    H2 8707   1.776   3.751   4.211
 2901TIP3   OH2 8708   2.842   3.660   1.599
 2901TIP3    H1 8709   2.797   3.693   1.522
 2901TIP3    H2 8710   2.935   3.672   1.580
 2902TIP3   OH2 8711   3.149   3.804   1.818
 2902TIP3    H1 8712   3.199   3.828   1.896
 2902TIP3    H2 8713   3.058   3.823   1.841
 2903TIP3   OH2 8714   1.091   0.355   2.123
 2903TIP3    H1 8715   1.056   0.387   2.039
 2903TIP3    H2 8716   1.028   0.289   2.152
 2904TIP3   OH2 8717   5.453   1.899   3.398
 2904TIP3    H1 8718   5.435   1.894   3.304
 2904TIP3    H2 8719   5.368   1.881   3.439
 2905TIP3   OH2 8720   4.598   4.335   1.676
 2905TIP3    H1 8721   4.660   4.383   1.621
 2905TIP3    H2 8722   4.624   4.355   1.766
 2906TIP3   OH2 8723   1.767   3.245   4.416
 2906TIP3    H1 8724   1.729   3.327   4.449
 2906TIP3    H2 8725   1.710   3.177   4.451
 2907TIP3   OH2 8726   2.856   0.530   0.090
 2907TIP3    H1 8727   2.932   0.562   0.041
 2907TIP3    H2 8728   2.783   0.536   0.029
 2908TIP3   OH2 8729   4.438   1.713   5.050
 2908TIP3    H1 8730   4.355   1.708   5.003
 2908TIP3    H2 8731   4.414   1.740   5.139
 2909TIP3   OH2 8732   3.552   3.375   3.657
 2909TIP3    H1 8733   3.565   3.442   3.724
 2909TIP3    H2 8734   3.487   3.413   3.597
 2910TIP3   OH2 8735   2.657   4.084   2.895
 2910TIP3    H1 8736   2.633   4.158   2.951
 2910TIP3    H2 8737   2.573   4.047   2.867
 2911TIP3   OH2 8738   2.389   4.924   0.616
 2911TIP3    H1 8739   2.383   4.830   0.633
 2911TIP3    H2 8740   2.302   4.957   0.638
 2912TIP3   OH2 8741   3.330   3.619   1.138
 2912TIP3    H1 8742   3.331   3.659   1.225
 2912TIP3    H2 8743   3.414   3.574   1.131
 2913TIP3   OH2 8744   5.089   0.370   3.491
 2913TIP3    H1 8745   5.160   0.434   3.489
 2913TIP3    H2 8746   5.111   0.307   3.423
 2914TIP3   OH2 8747   3.547   0.757   0.093
 2914TIP3    H1 8748   3.489   0.817   0.139
 2914TIP3    H2 8749   3.561   0.685   0.154
 2915TIP3   OH2 8750   3.503   1.998   4.168
 2915TIP3    H1 8751   3.485   2.037   4.253
 2915TIP3    H2 8752   3.588   2.034   4.142
 2916TIP3   OH2 8753   0.995   4.158   0.402
 2916TIP3    H1 8754   0.930   4.228   0.410
 2916TIP3    H2 8755   1.021   4.160   0.310
 2917TIP3   OH2 8756   5.661   4.307   1.347
 2917TIP3    H1 8757   5.674   4.400   1.327
 2917TIP3    H2 8758   5.569   4.291   1.328
 2918TIP3   OH2 8759   0.636   2.901   0.984
 2918TIP3    H1 8760   0.621   2.817   0.941
 2918TIP3    H2 8761   0.568   2.959   0.948
 2919TIP3   OH2 8762   4.641   2.487   0.948
 2919TIP3    H1 8763   4.565   2.450   0.992
 2919TIP3    H2 8764   4.712   2.425   0.964
 2920TIP3   OH2 8765   3.156   1.054   1.508
 2920TIP3    H1 8766   3.069   1.021   1.486
 2920TIP3    H2 8767   3.210   0.976   1.517
 2921TIP3   OH2 8768   3.057   5.339   2.425
 2921TIP3    H1 8769   3.144   5.301   2.438
 2921TIP3    H2 8770   3.041   5.393   2.502
 2922TIP3   OH2 8771   0.444   3.991   1.475
 2922TIP3    H1 8772   0.463   4.007   1.383
 2922TIP3    H2 8773   0.491   3.910   1.496
 2923TIP3   OH2 8774   6.127   4.400   1.709
 2923TIP3    H1 8775   6.164   4.335   1.768
 2923TIP3    H2 8776   6.149   4.484   1.748
 2924TIP3   OH2 8777   5.570   0.149   0.223
 2924TIP3    H1 8778   5.596   0.124   0.312
 2924TIP3    H2 8779   5.507   0.220   0.236
 2925TIP3   OH2 8780   4.028   4.196   3.877
 2925TIP3    H1 8781   4.099   4.259   3.890
 2925TIP3    H2 8782   3.977   4.233   3.805
 2926TIP3   OH2 8783   3.087   4.043   0.343
 2926TIP3    H1 8784   3.121   4.006   0.262
 2926TIP3    H2 8785   3.008   4.091   0.316
 2927TIP3   OH2 8786   6.309   5.762   2.791
 2927TIP3    H1 8787   6.219   5.777   2.821
 2927TIP3    H2 8788   6.363   5.773   2.870
 2928TIP3   OH2 8789   1.464   5.088   3.427
 2928TIP3    H1 8790   1.474   5.149   3.499
 2928TIP3    H2 8791   1.380   5.112   3.386
 2929TIP3   OH2 8792   4.025   2.539   0.719
 2929TIP3    H1 8793   4.080   2.464   0.742
 2929TIP3    H2 8794   4.013   2.532   0.625
 2930TIP3   OH2 8795   4.936   4.854   1.415
 2930TIP3    H1 8796   5.000   4.907   1.463
 2930TIP3    H2 8797   4.952   4.875   1.323
 2931TIP3   OH2 8798   1.643   2.062   4.671
 2931TIP3    H1 8799   1.614   2.014   4.593
 2931TIP3    H2 8800   1.584   2.033   4.741
 2932TIP3   OH2 8801   4.122   2.710   1.913
 2932TIP3    H1 8802   4.031   2.683   1.906
 2932TIP3    H2 8803   4.163   2.682   1.831
 2933TIP3   OH2 8804   2.433   1.305   4.926
 2933TIP3    H1 8805   2.458   1.382   4.874
 2933TIP3    H2 8806   2.371   1.339   4.990
 2934TIP3   OH2 8807   5.354   5.126   3.363
 2934TIP3    H1 8808   5.325   5.052   3.416
 2934TIP3    H2 8809   5.357   5.091   3.274
 2935TIP3   OH2 8810   5.160   0.584   0.152
 2935TIP3    H1 8811   5.201   0.521   0.211
 2935TIP3    H2 8812   5.215   0.582   0.073
 2936TIP3   OH2 8813   5.563   3.024   4.731
 2936TIP3    H1 8814   5.645   3.023   4.682
 2936TIP3    H2 8815   5.523   3.108   4.709
 2937TIP3   OH2 8816   3.397   0.506   3.081
 2937TIP3    H1 8817   3.349   0.511   3.163
 2937TIP3    H2 8818   3.332   0.481   3.015
 2938TIP3   OH2 8819   3.056   5.701   3.649
 2938TIP3    H1 8820   2.997   5.710   3.723
 2938TIP3    H2 8821   3.006   5.734   3.574
 2939TIP3   OH2 8822   3.976   0.781   4.643
 2939TIP3    H1 8823   3.899   0.802   4.696
 2939TIP3    H2 8824   3.974   0.845   4.572
 2940TIP3   OH2 8825   3.841   5.842   1.190
 2940TIP3    H1 8826   3.852   5.854   1.284
 2940TIP3    H2 8827   3.768   5.900   1.167
 2941TIP3   OH2 8828   1.014   0.904   3.586
 2941TIP3    H1 8829   1.039   0.911   3.678
 2941TIP3    H2 8830   1.072   0.966   3.541
 2942TIP3   OH2 8831   3.775   1.407   4.252
 2942TIP3    H1 8832   3.869   1.412   4.266
 2942TIP3    H2 8833   3.741   1.363   4.330
 2943TIP3   OH2 8834   4.653   3.831   2.071
 2943TIP3    H1 8835   4.730   3.886   2.078
 2943TIP3    H2 8836   4.683   3.743   2.095
 2944TIP3   OH2 8837   2.506   2.827   4.493
 2944TIP3    H1 8838   2.457   2.825   4.411
 2944TIP3    H2 8839   2.441   2.850   4.559
 2945TIP3   OH2 8840   2.253   5.783   4.627
 2945TIP3    H1 8841   2.296   5.759   4.545
 2945TIP3    H2 8842   2.279   5.714   4.688
 2946TIP3   OH2 8843   2.340   0.081   4.956
 2946TIP3    H1 8844   2.409   0.147   4.946
 2946TIP3    H2 8845   2.302   0.073   4.869
 2947TIP3   OH2 8846   5.211   3.956   5.064
 2947TIP3    H1 8847   5.243   3.871   5.031
 2947TIP3    H2 8848   5.266   4.021   5.020
 2948TIP3   OH2 8849   4.681   5.138   0.415
 2948TIP3    H1 8850   4.619   5.187   0.469
 2948TIP3    H2 8851   4.695   5.193   0.338
 2949TIP3   OH2 8852   4.319   0.302   3.164
 2949TIP3    H1 8853   4.321   0.395   3.186
 2949TIP3    H2 8854   4.410   0.273   3.170
 2950TIP3   OH2 8855   6.092   2.271   4.665
 2950TIP3    H1 8856   6.043   2.208   4.718
 2950TIP3    H2 8857   6.045   2.353   4.675
 2951TIP3   OH2 8858   0.216   2.880   0.363
 2951TIP3    H1 8859   0.275   2.867   0.288
 2951TIP3    H2 8860   0.192   2.791   0.390
 2952TIP3   OH2 8861   0.084   0.984   2.406
 2952TIP3    H1 8862   0.004   0.986   2.459
 2952TIP3    H2 8863   0.132   0.908   2.437
 2953TIP3   OH2 8864   2.641   1.822   1.550
 2953TIP3    H1 8865   2.693   1.880   1.606
 2953TIP3    H2 8866   2.617   1.748   1.606
 2954TIP3   OH2 8867   2.381   3.186   2.237
 2954TIP3    H1 8868   2.380   3.244   2.314
 2954TIP3    H2 8869   2.344   3.104   2.268
 2955TIP3   OH2 8870   4.115   3.898   3.033
 2955TIP3    H1 8871   4.038   3.951   3.053
 2955TIP3    H2 8872   4.189   3.955   3.052
 2956TIP3   OH2 8873   0.809   1.273   2.231
 2956TIP3    H1 8874   0.809   1.342   2.297
 2956TIP3    H2 8875   0.719   1.270   2.199
 2957TIP3   OH2 8876   4.951   1.163   0.832
 2957TIP3    H1 8877   4.902   1.244   0.821
 2957TIP3    H2 8878   4.994   1.172   0.917
 2958TIP3   OH2 8879   3.371   0.168   4.413
 2958TIP3    H1 8880   3.456   0.122   4.410
 2958TIP3    H2 8881   3.394   0.261   4.412
 2959TIP3   OH2 8882   0.583   4.439   3.957
 2959TIP3    H1 8883   0.529   4.398   4.024
 2959TIP3    H2 8884   0.652   4.376   3.939
 2960TIP3   OH2 8885   2.621   5.383   4.783
 2960TIP3    H1 8886   2.558   5.311   4.779
 2960TIP3    H2 8887   2.655   5.379   4.872
 2961TIP3   OH2 8888   0.237   1.576   0.511
 2961TIP3    H1 8889   0.299   1.504   0.506
 2961TIP3    H2 8890   0.274   1.643   0.453
 2962TIP3   OH2 8891   5.886   3.027   4.297
 2962TIP3    H1 8892   5.967   2.988   4.267
 2962TIP3    H2 8893   5.831   2.953   4.321
 2963TIP3   OH2 8894   0.763   2.491   1.243
 2963TIP3    H1 8895   0.818   2.421   1.209
 2963TIP3    H2 8896   0.676   2.451   1.251
 2964TIP3   OH2 8897   3.076   1.687   0.284
 2964TIP3    H1 8898   3.011   1.618   0.299
 2964TIP3    H2 8899   3.094   1.722   0.371
 2965TIP3   OH2 8900   5.963   0.410   1.454
 2965TIP3    H1 8901   5.931   0.446   1.537
 2965TIP3    H2 8902   6.039   0.357   1.478
 2966TIP3   OH2 8903   3.461   5.665   3.286
 2966TIP3    H1 8904   3.403   5.658   3.362
 2966TIP3    H2 8905   3.505   5.749   3.297
 2967TIP3   OH2 8906   2.287   0.586   3.116
 2967TIP3    H1 8907   2.267   0.508   3.167
 2967TIP3    H2 8908   2.303   0.654   3.181
 2968TIP3   OH2 8909   4.402   3.889   4.347
 2968TIP3    H1 8910   4.362   3.953   4.405
 2968TIP3    H2 8911   4.441   3.824   4.406
 2969TIP3   OH2 8912   1.797   3.988   0.845
 2969TIP3    H1 8913   1.741   3.926   0.799
 2969TIP3    H2 8914   1.737   4.033   0.905
 2970TIP3   OH2 8915   2.396   2.679   4.986
 2970TIP3    H1 8916   2.486   2.659   4.959
 2970TIP3    H2 8917   2.405   2.744   5.055
 2971TIP3   OH2 8918   4.697   5.639   4.896
 2971TIP3    H1 8919   4.627   5.695   4.863
 2971TIP3    H2 8920   4.652   5.570   4.945
 2972TIP3   OH2 8921   0.521   3.055   3.725
 2972TIP3    H1 8922   0.451   3.012   3.774
 2972TIP3    H2 8923   0.552   3.125   3.782
 2973TIP3   OH2 8924   3.300   5.570   3.996
 2973TIP3    H1 8925   3.218   5.618   3.987
 2973TIP3    H2 8926   3.322   5.577   4.089
 2974TIP3   OH2 8927   0.682   2.164   4.254
 2974TIP3    H1 8928   0.647   2.075   4.265
 2974TIP3    H2 8929   0.732   2.179   4.334
 2975TIP3   OH2 8930   1.333   3.508   5.062
 2975TIP3    H1 8931   1.330   3.583   5.003
 2975TIP3    H2 8932   1.284   3.537   5.139
 2976TIP3   OH2 8933   5.425   4.266   2.015
 2976TIP3    H1 8934   5.342   4.310   1.996
 2976TIP3    H2 8935   5.408   4.217   2.096
 2977TIP3   OH2 8936   5.674   3.311   0.983
 2977TIP3    H1 8937   5.769   3.318   0.994
 2977TIP3    H2 8938   5.639   3.321   1.072
 2978TIP3   OH2 8939   5.512   0.080   4.881
 2978TIP3    H1 8940   5.473   0.075   4.968
 2978TIP3    H2 8941   5.441   0.055   4.822
 2979TIP3   OH2 8942   2.153   5.762   1.310
 2979TIP3    H1 8943   2.171   5.819   1.385
 2979TIP3    H2 8944   2.125   5.822   1.241
 2980TIP3   OH2 8945   1.800   5.731   4.723
 2980TIP3    H1 8946   1.799   5.751   4.817
 2980TIP3    H2 8947   1.813   5.637   4.719
 2981TIP3   OH2 8948   3.118   3.587   4.343
 2981TIP3    H1 8949   3.066   3.661   4.375
 2981TIP3    H2 8950   3.190   3.628   4.294
 2982TIP3   OH2 8951   5.042   1.849   3.779
 2982TIP3    H1 8952   5.006   1.780   3.723
 2982TIP3    H2 8953   4.990   1.926   3.757
 2983TIP3   OH2 8954   5.237   1.535   4.246
 2983TIP3    H1 8955   5.145   1.541   4.271
 2983TIP3    H2 8956   5.236   1.539   4.151
 2984TIP3   OH2 8957   6.118   5.712   2.371
 2984TIP3    H1 8958   6.201   5.681   2.408
 2984TIP3    H2 8959   6.109   5.665   2.288
 2985TIP3   OH2 8960   5.265   0.296   2.012
 2985TIP3    H1 8961   5.263   0.298   1.916
 2985TIP3    H2 8962   5.258   0.388   2.037
 2986TIP3   OH2 8963   2.521   4.506   3.103
 2986TIP3    H1 8964   2.563   4.422   3.124
 2986TIP3    H2 8965   2.453   4.516   3.169
 2987TIP3   OH2 8966   3.528   4.904   4.833
 2987TIP3    H1 8967   3.511   4.881   4.741
 2987TIP3    H2 8968   3.493   4.830   4.883
 2988TIP3   OH2 8969   1.113   1.943   0.594
 2988TIP3    H1 8970   1.132   2.031   0.629
 2988TIP3    H2 8971   1.040   1.912   0.647
 2989TIP3   OH2 8972   1.893   2.865   1.779
 2989TIP3    H1 8973   1.892   2.772   1.803
 2989TIP3    H2 8974   1.841   2.908   1.846
 2990TIP3   OH2 8975   3.147   2.358   1.891
 2990TIP3    H1 8976   3.225   2.305   1.881
 2990TIP3    H2 8977   3.158   2.400   1.977
 2991TIP3   OH2 8978   2.211   0.235   2.533
 2991TIP3    H1 8979   2.289   0.252   2.480
 2991TIP3    H2 8980   2.227   0.281   2.615
 2992TIP3   OH2 8981   4.514   4.460   0.672
 2992TIP3    H1 8982   4.465   4.412   0.738
 2992TIP3    H2 8983   4.448   4.509   0.623
 2993TIP3   OH2 8984   0.338   0.846   4.110
 2993TIP3    H1 8985   0.427   0.821   4.136
 2993TIP3    H2 8986   0.288   0.843   4.192
 2994TIP3   OH2 8987   1.845   3.904   2.428
 2994TIP3    H1 8988   1.919   3.924   2.371
 2994TIP3    H2 8989   1.857   3.961   2.504
 2995TIP3   OH2 8990   3.371   5.322   1.067
 2995TIP3    H1 8991   3.380   5.299   0.975
 2995TIP3    H2 8992   3.454   5.364   1.090
 2996TIP3   OH2 8993   1.704   3.116   4.119
 2996TIP3    H1 8994   1.753   3.127   4.201
 2996TIP3    H2 8995   1.740   3.038   4.079
 2997TIP3   OH2 8996   1.673   4.861   5.167
 2997TIP3    H1 8997   1.609   4.928   5.141
 2997TIP3    H2 8998   1.695   4.817   5.085
 2998TIP3   OH2 8999   4.380   3.284   2.025
 2998TIP3    H1 9000   4.378   3.226   1.949
 2998TIP3    H2 9001   4.471   3.312   2.032
 2999TIP3   OH2 9002   1.885   1.284   4.662
 2999TIP3    H1 9003   1.831   1.207   4.645
 2999TIP3    H2 9004   1.949   1.284   4.590
 3000TIP3   OH2 9005   6.249   1.756   1.524
 3000TIP3    H1 9006   6.155   1.767   1.539
 3000TIP3    H2 9007   6.286   1.842   1.545
 3001TIP3   OH2 9008   3.428   1.191   1.640
 3001TIP3    H1 9009   3.449   1.131   1.568
 3001TIP3    H2 9010   3.511   1.202   1.687
 3002TIP3   OH2 9011   1.983   0.160   5.192
 3002TIP3    H1 9012   2.075   0.147   5.167
 3002TIP3    H2 9013   1.935   0.095   5.142
 3003TIP3   OH2 9014   3.021   0.442   2.728
 3003TIP3    H1 9015   3.002   0.485   2.644
 3003TIP3    H2 9016   2.941   0.452   2.779
 3004TIP3   OH2 9017   5.819   5.099   3.039
 3004TIP3    H1 9018   5.742   5.044   3.030
 3004TIP3    H2 9019   5.839   5.096   3.133
 3005TIP3   OH2 9020   1.835   1.742   3.811
 3005TIP3    H1 9021   1.886   1.773   3.736
 3005TIP3    H2 9022   1.752   1.788   3.803
 3006TIP3   OH2 9023   1.453   3.364   1.106
 3006TIP3    H1 9024   1.395   3.302   1.060
 3006TIP3    H2 9025   1.421   3.364   1.196
 3007TIP3   OH2 9026   5.486   3.680   2.080
 3007TIP3    H1 9027   5.434   3.658   2.002
 3007TIP3    H2 9028   5.517   3.596   2.112
 3008TIP3   OH2 9029   3.909   0.423   1.166
 3008TIP3    H1 9030   3.992   0.403   1.208
 3008TIP3    H2 9031   3.916   0.515   1.141
 3009TIP3   OH2 9032   2.501   2.998   2.009
 3009TIP3    H1 9033   2.518   2.984   1.915
 3009TIP3    H2 9034   2.582   2.970   2.052
 3010TIP3   OH2 9035  -0.018   4.521   5.095
 3010TIP3    H1 9036   0.058   4.580   5.092
 3010TIP3    H2 9037  -0.074   4.550   5.023
 3011TIP3   OH2 9038   6.268   0.367   1.687
 3011TIP3    H1 9039   6.219   0.311   1.627
 3011TIP3    H2 9040   6.217   0.368   1.767
 3012TIP3   OH2 9041   2.695   4.777   3.016
 3012TIP3    H1 9042   2.632   4.838   2.978
 3012TIP3    H2 9043   2.650   4.693   3.017
 3013TIP3   OH2 9044   0.272   4.565   0.434
 3013TIP3    H1 9045   0.254   4.615   0.354
 3013TIP3    H2 9046   0.242   4.622   0.505
 3014TIP3   OH2 9047   2.103   5.892   0.431
 3014TIP3    H1 9048   2.045   5.957   0.472
 3014TIP3    H2 9049   2.050   5.813   0.424
 3015TIP3   OH2 9050   4.678   5.807   2.086
 3015TIP3    H1 9051   4.615   5.833   2.018
 3015TIP3    H2 9052   4.685   5.712   2.078
 3016TIP3   OH2 9053   1.981   0.530   0.417
 3016TIP3    H1 9054   1.918   0.594   0.383
 3016TIP3    H2 9055   2.054   0.532   0.355
 3017TIP3   OH2 9056   0.457   5.553   2.814
 3017TIP3    H1 9057   0.385   5.502   2.851
 3017TIP3    H2 9058   0.419   5.598   2.739
 3018TIP3   OH2 9059   4.348   4.561   4.670
 3018TIP3    H1 9060   4.385   4.638   4.713
 3018TIP3    H2 9061   4.255   4.565   4.692
 3019TIP3   OH2 9062   4.669   1.300   2.620
 3019TIP3    H1 9063   4.746   1.245   2.635
 3019TIP3    H2 9064   4.703   1.389   2.619
 3020TIP3   OH2 9065   3.359   5.399   2.425
 3020TIP3    H1 9066   3.399   5.484   2.407
 3020TIP3    H2 9067   3.323   5.408   2.514
 3021TIP3   OH2 9068   1.314   1.118   1.866
 3021TIP3    H1 9069   1.275   1.057   1.929
 3021TIP3    H2 9070   1.295   1.080   1.781
 3022TIP3   OH2 9071   1.810   3.082   0.158
 3022TIP3    H1 9072   1.756   3.003   0.164
 3022TIP3    H2 9073   1.767   3.135   0.091
 3023TIP3   OH2 9074   3.967   2.006   5.027
 3023TIP3    H1 9075   3.973   1.964   4.941
 3023TIP3    H2 9076   4.055   1.997   5.064
 3024TIP3   OH2 9077   2.172   2.879   0.635
 3024TIP3    H1 9078   2.173   2.807   0.572
 3024TIP3    H2 9079   2.221   2.949   0.592
 3025TIP3   OH2 9080   0.987   3.531   1.762
 3025TIP3    H1 9081   0.920   3.534   1.693
 3025TIP3    H2 9082   0.947   3.480   1.832
 3026TIP3   OH2 9083   3.442   4.342   4.865
 3026TIP3    H1 9084   3.496   4.301   4.797
 3026TIP3    H2 9085   3.423   4.272   4.927
 3027TIP3   OH2 9086   4.489   3.644   1.413
 3027TIP3    H1 9087   4.479   3.580   1.483
 3027TIP3    H2 9088   4.502   3.727   1.459
 3028TIP3   OH2 9089   0.238   5.416   2.876
 3028TIP3    H1 9090   0.206   5.410   2.966
 3028TIP3    H2 9091   0.162   5.443   2.825
 3029TIP3   OH2 9092   2.916   2.455   4.265
 3029TIP3    H1 9093   2.888   2.511   4.337
 3029TIP3    H2 9094   2.897   2.507   4.186
 3030TIP3   OH2 9095   5.900   1.124   4.289
 3030TIP3    H1 9096   5.836   1.141   4.358
 3030TIP3    H2 9097   5.901   1.205   4.238
 3031TIP3   OH2 9098   5.543   4.483   4.144
 3031TIP3    H1 9099   5.617   4.530   4.107
 3031TIP3    H2 9100   5.554   4.490   4.238
 3032TIP3   OH2 9101   4.505   5.487   4.685
 3032TIP3    H1 9102   4.570   5.507   4.753
 3032TIP3    H2 9103   4.431   5.544   4.705
 3033TIP3   OH2 9104   0.704   0.281   4.715
 3033TIP3    H1 9105   0.643   0.325   4.774
 3033TIP3    H2 9106   0.789   0.321   4.736
 3034TIP3   OH2 9107   2.220   3.083   1.994
 3034TIP3    H1 9108   2.307   3.094   2.032
 3034TIP3    H2 9109   2.183   3.007   2.038
 3035TIP3   OH2 9110   4.672   3.601   3.188
 3035TIP3    H1 9111   4.648   3.520   3.142
 3035TIP3    H2 9112   4.729   3.572   3.259
 3036TIP3   OH2 9113   4.899   0.577   2.584
 3036TIP3    H1 9114   4.895   0.637   2.510
 3036TIP3    H2 9115   4.809   0.549   2.597
 3037TIP3   OH2 9116   5.535   4.256   3.428
 3037TIP3    H1 9117   5.577   4.219   3.350
 3037TIP3    H2 9118   5.500   4.180   3.474
 3038TIP3   OH2 9119   5.707   2.651   1.826
 3038TIP3    H1 9120   5.779   2.598   1.792
 3038TIP3    H2 9121   5.720   2.737   1.787
 3039TIP3   OH2 9122   1.619   0.680   0.579
 3039TIP3    H1 9123   1.560   0.610   0.605
 3039TIP3    H2 9124   1.597   0.699   0.488
 3040TIP3   OH2 9125   2.027   1.395   2.470
 3040TIP3    H1 9126   1.965   1.328   2.497
 3040TIP3    H2 9127   2.065   1.361   2.389
 3041TIP3   OH2 9128   2.886   4.228   0.287
 3041TIP3    H1 9129   2.795   4.214   0.262
 3041TIP3    H2 9130   2.882   4.295   0.356
 3042TIP3   OH2 9131   1.429   1.658   1.929
 3042TIP3    H1 9132   1.389   1.637   1.845
 3042TIP3    H2 9133   1.412   1.751   1.942
 3043TIP3   OH2 9134   3.241   5.408   4.955
 3043TIP3    H1 9135   3.228   5.391   4.861
 3043TIP3    H2 9136   3.162   5.454   4.982
 3044TIP3   OH2 9137   4.986   4.140   3.045
 3044TIP3    H1 9138   5.049   4.185   3.101
 3044TIP3    H2 9139   4.935   4.211   3.006
 3045TIP3   OH2 9140   2.972   1.878   4.033
 3045TIP3    H1 9141   3.022   1.824   4.094
 3045TIP3    H2 9142   3.038   1.936   3.995
 3046TIP3   OH2 9143   1.503   5.393   0.548
 3046TIP3    H1 9144   1.465   5.412   0.633
 3046TIP3    H2 9145   1.434   5.345   0.501
 3047TIP3   OH2 9146   3.068   3.835   3.202
 3047TIP3    H1 9147   2.994   3.886   3.234
 3047TIP3    H2 9148   3.063   3.752   3.250
 3048TIP3   OH2 9149   0.117   4.853   1.640
 3048TIP3    H1 9150   0.025   4.830   1.627
 3048TIP3    H2 9151   0.132   4.926   1.579
 3049TIP3   OH2 9152   2.863   3.810   1.828
 3049TIP3    H1 9153   2.862   3.737   1.765
 3049TIP3    H2 9154   2.818   3.881   1.783
 3050TIP3   OH2 9155   2.280   2.815   3.259
 3050TIP3    H1 9156   2.289   2.720   3.249
 3050TIP3    H2 9157   2.285   2.830   3.353
 3051TIP3   OH2 9158   3.839   2.127   4.305
 3051TIP3    H1 9159   3.807   2.217   4.303
 3051TIP3    H2 9160   3.813   2.090   4.220
 3052TIP3   OH2 9161   0.469   4.466   3.660
 3052TIP3    H1 9162   0.432   4.543   3.616
 3052TIP3    H2 9163   0.492   4.498   3.748
 3053TIP3   OH2 9164   4.481   5.361   2.201
 3053TIP3    H1 9165   4.418   5.364   2.130
 3053TIP3    H2 9166   4.430   5.383   2.279
 3054TIP3   OH2 9167   4.366   4.256   0.407
 3054TIP3    H1 9168   4.391   4.324   0.344
 3054TIP3    H2 9169   4.422   4.182   0.384
 3055TIP3   OH2 9170   4.420   0.248   4.046
 3055TIP3    H1 9171   4.441   0.184   3.977
 3055TIP3    H2 9172   4.422   0.197   4.127
 3056TIP3   OH2 9173   6.233   4.224   0.032
 3056TIP3    H1 9174   6.204   4.143  -0.010
 3056TIP3    H2 9175   6.286   4.268  -0.035
 3057TIP3   OH2 9176   4.636   3.975   4.003
 3057TIP3    H1 9177   4.658   4.004   3.915
 3057TIP3    H2 9178   4.626   4.056   4.053
 3058TIP3   OH2 9179   5.922   5.802   2.052
 3058TIP3    H1 9180   5.974   5.869   2.095
 3058TIP3    H2 9181   5.973   5.721   2.063
 3059TIP3   OH2 9182   3.772   5.545   4.137
 3059TIP3    H1 9183   3.702   5.606   4.159
 3059TIP3    H2 9184   3.783   5.492   4.216
 3060TIP3   OH2 9185   4.650  -0.028   1.996
 3060TIP3    H1 9186   4.620   0.063   2.003
 3060TIP3    H2 9187   4.741  -0.027   2.025
 3061TIP3   OH2 9188   0.866   3.656   0.502
 3061TIP3    H1 9189   0.914   3.624   0.426
 3061TIP3    H2 9190   0.841   3.746   0.479
 3062TIP3   OH2 9191   4.439   5.886   0.668
 3062TIP3    H1 9192   4.348   5.882   0.698
 3062TIP3    H2 9193   4.432   5.897   0.573
 3063TIP3   OH2 9194   0.062   0.187   3.401
 3063TIP3    H1 9195   0.073   0.226   3.487
 3063TIP3    H2 9196   0.086   0.256   3.340
 3064TIP3   OH2 9197   2.531   1.942   0.148
 3064TIP3    H1 9198   2.441   1.924   0.173
 3064TIP3    H2 9199   2.568   1.989   0.223
 3065TIP3   OH2 9200   6.142   3.028   5.046
 3065TIP3    H1 9201   6.187   2.988   5.121
 3065TIP3    H2 9202   6.166   3.121   5.052
 3066TIP3   OH2 9203   5.593   1.419   0.592
 3066TIP3    H1 9204   5.551   1.502   0.615
 3066TIP3    H2 9205   5.625   1.432   0.502
 3067TIP3   OH2 9206   2.483   3.648   2.537
 3067TIP3    H1 9207   2.395   3.612   2.550
 3067TIP3    H2 9208   2.524   3.642   2.624
 3068TIP3   OH2 9209   4.155   3.800   0.792
 3068TIP3    H1 9210   4.230   3.742   0.785
 3068TIP3    H2 9211   4.192   3.884   0.819
 3069TIP3   OH2 9212   5.590   1.308   0.881
 3069TIP3    H1 9213   5.565   1.322   0.790
 3069TIP3    H2 9214   5.652   1.235   0.878
 3070TIP3   OH2 9215   0.627   1.062   0.559
 3070TIP3    H1 9216   0.673   1.145   0.570
 3070TIP3    H2 9217   0.665   1.004   0.625
 3071TIP3   OH2 9218   5.638   5.330   0.181
 3071TIP3    H1 9219   5.694   5.264   0.223
 3071TIP3    H2 9220   5.584   5.364   0.251
 3072TIP3   OH2 9221   2.858   2.005   3.187
 3072TIP3    H1 9222   2.873   1.966   3.101
 3072TIP3    H2 9223   2.781   1.959   3.221
 3073TIP3   OH2 9224   3.462   3.343   5.085
 3073TIP3    H1 9225   3.495   3.302   5.165
 3073TIP3    H2 9226   3.435   3.431   5.112
 3074TIP3   OH2 9227   1.348   4.292   0.788
 3074TIP3    H1 9228   1.441   4.312   0.797
 3074TIP3    H2 9229   1.322   4.332   0.705
 3075TIP3   OH2 9230   5.366   2.215   3.385
 3075TIP3    H1 9231   5.453   2.187   3.355
 3075TIP3    H2 9232   5.361   2.307   3.361
 3076TIP3   OH2 9233   1.757   0.778   3.199
 3076TIP3    H1 9234   1.720   0.732   3.124
 3076TIP3    H2 9235   1.788   0.861   3.163
 3077TIP3   OH2 9236   5.384   2.832   2.233
 3077TIP3    H1 9237   5.472   2.866   2.214
 3077TIP3    H2 9238   5.399   2.743   2.265
 3078TIP3   OH2 9239   6.322   3.383   3.126
 3078TIP3    H1 9240   6.279   3.350   3.204
 3078TIP3    H2 9241   6.412   3.350   3.132
 3079TIP3   OH2 9242   2.221   3.727   1.921
 3079TIP3    H1 9243   2.176   3.801   1.881
 3079TIP3    H2 9244   2.232   3.751   2.013
 3080TIP3   OH2 9245   5.674   3.965   4.096
 3080TIP3    H1 9246   5.639   3.951   4.008
 3080TIP3    H2 9247   5.633   4.046   4.126
 3081TIP3   OH2 9248   6.205   1.462   0.852
 3081TIP3    H1 9249   6.122   1.506   0.836
 3081TIP3    H2 9250   6.259   1.484   0.776
 3082TIP3   OH2 9251   3.115   0.743   4.033
 3082TIP3    H1 9252   3.209   0.759   4.027
 3082TIP3    H2 9253   3.080   0.823   4.071
 3083TIP3   OH2 9254   4.603   3.394   2.363
 3083TIP3    H1 9255   4.600   3.303   2.394
 3083TIP3    H2 9256   4.689   3.402   2.322
 3084TIP3   OH2 9257   2.859   2.566   2.166
 3084TIP3    H1 9258   2.860   2.626   2.091
 3084TIP3    H2 9259   2.825   2.619   2.238
 3085TIP3   OH2 9260   1.273   4.731   3.957
 3085TIP3    H1 9261   1.343   4.795   3.970
 3085TIP3    H2 9262   1.317   4.653   3.923
 3086TIP3   OH2 9263   5.946   0.708   0.858
 3086TIP3    H1 9264   5.856   0.733   0.878
 3086TIP3    H2 9265   5.947   0.613   0.865
 3087TIP3   OH2 9266   4.827   1.290   0.309
 3087TIP3    H1 9267   4.877   1.299   0.390
 3087TIP3    H2 9268   4.761   1.360   0.314
 3088TIP3   OH2 9269   3.937   5.652   2.652
 3088TIP3    H1 9270   3.906   5.633   2.563
 3088TIP3    H2 9271   3.900   5.738   2.673
 3089TIP3   OH2 9272   5.117   3.553   2.288
 3089TIP3    H1 9273   5.137   3.642   2.319
 3089TIP3    H2 9274   5.189   3.532   2.229
 3090TIP3   OH2 9275   5.281   0.294   1.720
 3090TIP3    H1 9276   5.359   0.337   1.686
 3090TIP3    H2 9277   5.292   0.202   1.699
 3091TIP3   OH2 9278   3.065   3.490   3.972
 3091TIP3    H1 9279   2.976   3.504   3.941
 3091TIP3    H2 9280   3.115   3.470   3.893
 3092TIP3   OH2 9281   5.757   0.235   4.416
 3092TIP3    H1 9282   5.839   0.266   4.456
 3092TIP3    H2 9283   5.764   0.261   4.324
 3093TIP3   OH2 9284   5.376   4.481   2.561
 3093TIP3    H1 9285   5.295   4.453   2.605
 3093TIP3    H2 9286   5.360   4.573   2.539
 3094TIP3   OH2 9287   1.765   5.275   4.081
 3094TIP3    H1 9288   1.693   5.285   4.019
 3094TIP3    H2 9289   1.725   5.282   4.167
 3095TIP3   OH2 9290   3.581   2.895   1.222
 3095TIP3    H1 9291   3.519   2.837   1.177
 3095TIP3    H2 9292   3.662   2.844   1.228
 3096TIP3   OH2 9293   4.105   5.683   0.373
 3096TIP3    H1 9294   4.044   5.646   0.309
 3096TIP3    H2 9295   4.059   5.758   0.410
 3097TIP3   OH2 9296   3.790   4.374   1.747
 3097TIP3    H1 9297   3.810   4.319   1.671
 3097TIP3    H2 9298   3.777   4.312   1.819
 3098TIP3   OH2 9299   2.956   0.006   3.466
 3098TIP3    H1 9300   2.996   0.091   3.478
 3098TIP3    H2 9301   2.865   0.019   3.493
 3099TIP3   OH2 9302   3.861   5.575   4.657
 3099TIP3    H1 9303   3.853   5.486   4.624
 3099TIP3    H2 9304   3.775   5.594   4.695
 3100TIP3   OH2 9305   5.441   0.515   2.462
 3100TIP3    H1 9306   5.451   0.525   2.557
 3100TIP3    H2 9307   5.454   0.422   2.446
 3101TIP3   OH2 9308   1.103   1.574   2.100
 3101TIP3    H1 9309   1.161   1.627   2.154
 3101TIP3    H2 9310   1.126   1.598   2.010
 3102TIP3   OH2 9311   0.762   0.532   1.323
 3102TIP3    H1 9312   0.680   0.544   1.276
 3102TIP3    H2 9313   0.829   0.560   1.261
 3103TIP3   OH2 9314   2.699   0.714   3.247
 3103TIP3    H1 9315   2.641   0.781   3.211
 3103TIP3    H2 9316   2.785   0.756   3.248
 3104TIP3   OH2 9317   3.365   5.981   3.998
 3104TIP3    H1 9318   3.304   5.938   3.938
 3104TIP3    H2 9319   3.415   5.909   4.037
 3105TIP3   OH2 9320   3.614   2.392   1.146
 3105TIP3    H1 9321   3.681   2.380   1.214
 3105TIP3    H2 9322   3.652   2.350   1.069
 3106TIP3   OH2 9323   2.357   3.761   4.153
 3106TIP3    H1 9324   2.447   3.728   4.159
 3106TIP3    H2 9325   2.335   3.789   4.242
 3107TIP3   OH2 9326   0.141   2.898   2.755
 3107TIP3    H1 9327   0.203   2.834   2.721
 3107TIP3    H2 9328   0.161   2.903   2.848
 3108TIP3   OH2 9329   3.826   4.655   2.271
 3108TIP3    H1 9330   3.873   4.580   2.306
 3108TIP3    H2 9331   3.893   4.723   2.261
 3109TIP3   OH2 9332   5.399   1.692   1.975
 3109TIP3    H1 9333   5.422   1.631   1.904
 3109TIP3    H2 9334   5.484   1.723   2.008
 3110TIP3   OH2 9335   2.861   4.582   2.090
 3110TIP3    H1 9336   2.935   4.615   2.141
 3110TIP3    H2 9337   2.868   4.625   2.005
 3111TIP3   OH2 9338   3.504   5.491   0.806
 3111TIP3    H1 9339   3.451   5.412   0.810
 3111TIP3    H2 9340   3.442   5.561   0.786
 3112TIP3   OH2 9341   4.123   3.840   3.672
 3112TIP3    H1 9342   4.190   3.901   3.639
 3112TIP3    H2 9343   4.108   3.868   3.762
 3113TIP3   OH2 9344   1.485   1.554   1.046
 3113TIP3    H1 9345   1.417   1.492   1.018
 3113TIP3    H2 9346   1.471   1.631   0.991
 3114TIP3   OH2 9347   1.397   3.839   5.124
 3114TIP3    H1 9348   1.392   3.790   5.042
 3114TIP3    H2 9349   1.311   3.828   5.165
 3115TIP3   OH2 9350   5.937   4.309   0.366
 3115TIP3    H1 9351   6.016   4.326   0.315
 3115TIP3    H2 9352   5.870   4.288   0.301
 3116TIP3   OH2 9353   5.314   0.170   3.724
 3116TIP3    H1 9354   5.221   0.165   3.703
 3116TIP3    H2 9355   5.342   0.079   3.734
 3117TIP3   OH2 9356   4.966   2.190   1.797
 3117TIP3    H1 9357   4.974   2.107   1.751
 3117TIP3    H2 9358   5.019   2.178   1.877
 3118TIP3   OH2 9359   6.095   1.678   0.571
 3118TIP3    H1 9360   6.144   1.599   0.596
 3118TIP3    H2 9361   6.163   1.744   0.556
 3119TIP3   OH2 9362   3.297   1.870   2.645
 3119TIP3    H1 9363   3.265   1.933   2.581
 3119TIP3    H2 9364   3.220   1.817   2.668
 3120TIP3   OH2 9365   5.298   5.305   5.002
 3120TIP3    H1 9366   5.387   5.279   4.980
 3120TIP3    H2 9367   5.306   5.350   5.086
 3121TIP3   OH2 9368   6.041   4.076   3.835
 3121TIP3    H1 9369   6.118   4.083   3.891
 3121TIP3    H2 9370   6.049   4.150   3.774
 3122TIP3   OH2 9371   5.027   3.184   1.593
 3122TIP3    H1 9372   5.009   3.219   1.680
 3122TIP3    H2 9373   4.972   3.237   1.534
 3123TIP3   OH2 9374   3.714   3.847   3.263
 3123TIP3    H1 9375   3.783   3.875   3.204
 3123TIP3    H2 9376   3.659   3.789   3.210
 3124TIP3   OH2 9377   2.560   2.953   0.480
 3124TIP3    H1 9378   2.587   3.027   0.534
 3124TIP3    H2 9379   2.629   2.947   0.413
 3125TIP3   OH2 9380   4.801   0.235   2.284
 3125TIP3    H1 9381   4.859   0.215   2.211
 3125TIP3    H2 9382   4.791   0.330   2.282
 3126TIP3   OH2 9383   6.217   3.821   1.247
 3126TIP3    H1 9384   6.144   3.852   1.193
 3126TIP3    H2 9385   6.201   3.858   1.333
 3127TIP3   OH2 9386   2.420   5.403   2.537
 3127TIP3    H1 9387   2.339   5.379   2.583
 3127TIP3    H2 9388   2.394   5.413   2.446
 3128TIP3   OH2 9389   5.783   1.527   1.648
 3128TIP3    H1 9390   5.839   1.487   1.581
 3128TIP3    H2 9391   5.719   1.578   1.598
 3129TIP3   OH2 9392   3.939   4.980   0.490
 3129TIP3    H1 9393   3.940   5.071   0.460
 3129TIP3    H2 9394   4.019   4.971   0.541
 3130TIP3   OH2 9395   4.792   3.903   0.263
 3130TIP3    H1 9396   4.757   3.877   0.348
 3130TIP3    H2 9397   4.738   3.857   0.199
 3131TIP3   OH2 9398   4.254   5.591   4.753
 3131TIP3    H1 9399   4.264   5.579   4.847
 3131TIP3    H2 9400   4.191   5.662   4.744
 3132TIP3   OH2 9401   5.481   4.369   0.912
 3132TIP3    H1 9402   5.508   4.330   0.829
 3132TIP3    H2 9403   5.449   4.296   0.964
 3133TIP3   OH2 9404   2.138   3.282   4.793
 3133TIP3    H1 9405   2.128   3.286   4.697
 3133TIP3    H2 9406   2.085   3.207   4.819
 3134TIP3   OH2 9407   4.479   0.737   0.040
 3134TIP3    H1 9408   4.521   0.752   0.124
 3134TIP3    H2 9409   4.491   0.819  -0.009
 3135TIP3   OH2 9410   1.093   3.679   1.016
 3135TIP3    H1 9411   1.074   3.691   1.109
 3135TIP3    H2 9412   1.141   3.596   1.012
 3136TIP3   OH2 9413   3.083   5.199   0.540
 3136TIP3    H1 9414   3.055   5.273   0.486
 3136TIP3    H2 9415   3.009   5.139   0.537
 3137TIP3   OH2 9416   3.939   3.388   1.800
 3137TIP3    H1 9417   4.010   3.384   1.865
 3137TIP3    H2 9418   3.952   3.471   1.755
 3138TIP3   OH2 9419   2.919   0.761   2.117
 3138TIP3    H1 9420   3.007   0.775   2.083
 3138TIP3    H2 9421   2.882   0.693   2.061
 3139TIP3   OH2 9422   2.296   2.193   0.252
 3139TIP3    H1 9423   2.246   2.250   0.194
 3139TIP3    H2 9424   2.385   2.228   0.249
 3140TIP3   OH2 9425   1.298   1.692   3.920
 3140TIP3    H1 9426   1.257   1.714   4.004
 3140TIP3    H2 9427   1.271   1.762   3.861
 3141TIP3   OH2 9428   3.049   4.409   0.956
 3141TIP3    H1 9429   3.091   4.398   0.871
 3141TIP3    H2 9430   2.961   4.374   0.945
 3142TIP3   OH2 9431   2.627   4.871   2.300
 3142TIP3    H1 9432   2.668   4.917   2.227
 3142TIP3    H2 9433   2.590   4.940   2.355
 3143TIP3   OH2 9434   0.256   1.874   1.096
 3143TIP3    H1 9435   0.260   1.792   1.048
 3143TIP3    H2 9436   0.163   1.887   1.114
 3144TIP3   OH2 9437   2.536   3.853   1.134
 3144TIP3    H1 9438   2.495   3.892   1.211
 3144TIP3    H2 9439   2.504   3.905   1.060
 3145TIP3   OH2 9440   3.042   3.520   0.689
 3145TIP3    H1 9441   3.016   3.572   0.764
 3145TIP3    H2 9442   3.061   3.584   0.620
 3146TIP3   OH2 9443   4.662   0.879   3.036
 3146TIP3    H1 9444   4.650   0.961   2.988
 3146TIP3    H2 9445   4.593   0.881   3.103
 3147TIP3   OH2 9446   1.410   4.271   4.647
 3147TIP3    H1 9447   1.383   4.196   4.594
 3147TIP3    H2 9448   1.365   4.346   4.608
 3148TIP3   OH2 9449   3.740   5.312   0.856
 3148TIP3    H1 9450   3.676   5.358   0.803
 3148TIP3    H2 9451   3.822   5.320   0.807
 3149TIP3   OH2 9452   4.059   0.954   0.560
 3149TIP3    H1 9453   4.039   1.015   0.631
 3149TIP3    H2 9454   3.982   0.896   0.556
 3150TIP3   OH2 9455   0.419   0.594   0.305
 3150TIP3    H1 9456   0.440   0.532   0.235
 3150TIP3    H2 9457   0.334   0.630   0.280
 3151TIP3   OH2 9458   0.965   0.093   2.184
 3151TIP3    H1 9459   1.028   0.060   2.121
 3151TIP3    H2 9460   0.904   0.020   2.198
 3152TIP3   OH2 9461   0.248   4.228   0.845
 3152TIP3    H1 9462   0.266   4.218   0.752
 3152TIP3    H2 9463   0.159   4.261   0.849
 3153TIP3   OH2 9464   4.702   0.223   3.476
 3153TIP3    H1 9465   4.741   0.174   3.404
 3153TIP3    H2 9466   4.750   0.194   3.554
 3154TIP3   OH2 9467   0.979   2.454   1.444
 3154TIP3    H1 9468   0.996   2.474   1.352
 3154TIP3    H2 9469   0.932   2.371   1.443
 3155TIP3   OH2 9470   2.066   4.058   2.272
 3155TIP3    H1 9471   2.047   4.097   2.356
 3155TIP3    H2 9472   2.157   4.081   2.255
 3156TIP3   OH2 9473   4.236   0.946   0.365
 3156TIP3    H1 9474   4.187   0.954   0.447
 3156TIP3    H2 9475   4.209   0.862   0.329
 3157TIP3   OH2 9476   1.513   4.675   4.398
 3157TIP3    H1 9477   1.595   4.702   4.358
 3157TIP3    H2 9478   1.540   4.619   4.472
 3158TIP3   OH2 9479   6.146   0.005   3.147
 3158TIP3    H1 9480   6.106   0.046   3.070
 3158TIP3    H2 9481   6.130   0.068   3.217
 3159TIP3   OH2 9482   4.769   5.254   3.811
 3159TIP3    H1 9483   4.784   5.348   3.820
 3159TIP3    H2 9484   4.675   5.245   3.802
 3160TIP3   OH2 9485   0.983   2.118   1.565
 3160TIP3    H1 9486   1.041   2.107   1.490
 3160TIP3    H2 9487   0.934   2.036   1.570
 3161TIP3   OH2 9488   0.075   5.183   4.940
 3161TIP3    H1 9489   0.047   5.259   4.891
 3161TIP3    H2 9490   0.099   5.218   5.026
 3162TIP3   OH2 9491   4.830   5.761   3.011
 3162TIP3    H1 9492   4.823   5.666   3.003
 3162TIP3    H2 9493   4.772   5.795   2.942
 3163TIP3   OH2 9494   1.943   1.533   0.789
 3163TIP3    H1 9495   2.017   1.593   0.791
 3163TIP3    H2 9496   1.943   1.491   0.875
 3164TIP3   OH2 9497   0.166   1.525   4.025
 3164TIP3    H1 9498   0.212   1.451   4.065
 3164TIP3    H2 9499   0.213   1.542   3.944
 3165TIP3   OH2 9500   2.255   5.773   0.967
 3165TIP3    H1 9501   2.163   5.752   0.950
 3165TIP3    H2 9502   2.260   5.868   0.958
 3166TIP3   OH2 9503   5.257   1.986   0.768
 3166TIP3    H1 9504   5.276   1.986   0.674
 3166TIP3    H2 9505   5.273   2.077   0.795
 3167TIP3   OH2 9506   4.956   5.118   2.066
 3167TIP3    H1 9507   4.913   5.164   1.994
 3167TIP3    H2 9508   4.994   5.040   2.025
 3168TIP3   OH2 9509   0.697   2.231   3.016
 3168TIP3    H1 9510   0.721   2.210   2.926
 3168TIP3    H2 9511   0.734   2.318   3.031
 3169TIP3   OH2 9512   3.282   5.926   3.427
 3169TIP3    H1 9513   3.343   5.964   3.364
 3169TIP3    H2 9514   3.296   5.831   3.419
 3170TIP3   OH2 9515   1.762   5.821   1.716
 3170TIP3    H1 9516   1.738   5.757   1.783
 3170TIP3    H2 9517   1.688   5.822   1.655
 3171TIP3   OH2 9518   1.974   4.159   2.503
 3171TIP3    H1 9519   1.947   4.247   2.530
 3171TIP3    H2 9520   1.981   4.110   2.585
 3172TIP3   OH2 9521   6.262   0.797   1.099
 3172TIP3    H1 9522   6.251   0.808   1.004
 3172TIP3    H2 9523   6.232   0.708   1.116
 3173TIP3   OH2 9524   4.714   4.899   3.873
 3173TIP3    H1 9525   4.756   4.830   3.924
 3173TIP3    H2 9526   4.731   4.875   3.782
 3174TIP3   OH2 9527   6.366   3.637   3.044
 3174TIP3    H1 9528   6.284   3.674   3.076
 3174TIP3    H2 9529   6.362   3.544   3.067
 3175TIP3   OH2 9530   4.876   2.175   4.205
 3175TIP3    H1 9531   4.954   2.128   4.234
 3175TIP3    H2 9532   4.866   2.247   4.268
 3176TIP3   OH2 9533   0.654   1.340   1.529
 3176TIP3    H1 9534   0.701   1.298   1.601
 3176TIP3    H2 9535   0.663   1.434   1.546
 3177TIP3   OH2 9536   4.312   1.105   2.450
 3177TIP3    H1 9537   4.245   1.106   2.381
 3177TIP3    H2 9538   4.265   1.081   2.530
 3178TIP3   OH2 9539   5.783   1.758   3.210
 3178TIP3    H1 9540   5.718   1.729   3.147
 3178TIP3    H2 9541   5.784   1.690   3.277
 3179TIP3   OH2 9542   1.629   4.103   1.816
 3179TIP3    H1 9543   1.703   4.146   1.858
 3179TIP3    H2 9544   1.668   4.057   1.742
 3180TIP3   OH2 9545   2.553   1.048   4.924
 3180TIP3    H1 9546   2.523   1.138   4.935
 3180TIP3    H2 9547   2.619   1.053   4.855
 3181TIP3   OH2 9548   5.394   1.535   0.385
 3181TIP3    H1 9549   5.338   1.580   0.322
 3181TIP3    H2 9550   5.481   1.571   0.370
 3182TIP3   OH2 9551   5.508   1.673   2.538
 3182TIP3    H1 9552   5.561   1.689   2.460
 3182TIP3    H2 9553   5.570   1.647   2.605
 3183TIP3   OH2 9554   1.616   1.641   3.175
 3183TIP3    H1 9555   1.607   1.585   3.252
 3183TIP3    H2 9556   1.600   1.582   3.101
 3184TIP3   OH2 9557   2.586   5.024   0.133
 3184TIP3    H1 9558   2.520   5.073   0.084
 3184TIP3    H2 9559   2.536   4.973   0.197
 3185TIP3   OH2 9560   5.522   0.902   2.453
 3185TIP3    H1 9561   5.602   0.943   2.487
 3185TIP3    H2 9562   5.483   0.859   2.529
 3186TIP3   OH2 9563   0.398   3.139   1.588
 3186TIP3    H1 9564   0.336   3.206   1.616
 3186TIP3    H2 9565   0.441   3.111   1.668
 3187TIP3   OH2 9566   6.128   1.063   3.514
 3187TIP3    H1 9567   6.158   1.102   3.595
 3187TIP3    H2 9568   6.103   1.137   3.459
 3188TIP3   OH2 9569   0.891   0.452   4.542
 3188TIP3    H1 9570   0.932   0.401   4.611
 3188TIP3    H2 9571   0.829   0.391   4.500
 3189TIP3   OH2 9572   1.379   5.148   3.880
 3189TIP3    H1 9573   1.364   5.173   3.789
 3189TIP3    H2 9574   1.414   5.227   3.921
 3190TIP3   OH2 9575   2.860   3.564   3.114
 3190TIP3    H1 9576   2.766   3.562   3.129
 3190TIP3    H2 9577   2.869   3.598   3.025
 3191TIP3   OH2 9578   3.783   2.063   4.565
 3191TIP3    H1 9579   3.741   1.977   4.567
 3191TIP3    H2 9580   3.776   2.091   4.474
 3192TIP3   OH2 9581   5.021   1.557   3.360
 3192TIP3    H1 9582   5.108   1.518   3.348
 3192TIP3    H2 9583   4.962   1.499   3.313
 3193TIP3   OH2 9584   2.937   2.858   3.999
 3193TIP3    H1 9585   2.932   2.768   4.029
 3193TIP3    H2 9586   2.857   2.871   3.947
 3194TIP3   OH2 9587   5.577   1.823   1.728
 3194TIP3    H1 9588   5.559   1.875   1.806
 3194TIP3    H2 9589   5.495   1.776   1.711
 3195TIP3   OH2 9590   2.242   0.280   1.791
 3195TIP3    H1 9591   2.263   0.190   1.816
 3195TIP3    H2 9592   2.318   0.309   1.741
 3196TIP3   OH2 9593   2.558   5.654   3.788
 3196TIP3    H1 9594   2.570   5.742   3.752
 3196TIP3    H2 9595   2.551   5.597   3.712
 3197TIP3   OH2 9596   4.043   3.140   1.735
 3197TIP3    H1 9597   3.968   3.094   1.771
 3197TIP3    H2 9598   4.013   3.230   1.723
 3198TIP3   OH2 9599   4.412   4.607   0.971
 3198TIP3    H1 9600   4.427   4.517   0.943
 3198TIP3    H2 9601   4.452   4.661   0.903
 3199TIP3   OH2 9602   3.044   5.552   1.763
 3199TIP3    H1 9603   3.023   5.525   1.674
 3199TIP3    H2 9604   3.105   5.486   1.794
 3200TIP3   OH2 9605   3.360   2.867   3.730
 3200TIP3    H1 9606   3.340   2.941   3.673
 3200TIP3    H2 9607   3.313   2.793   3.691
 3201TIP3   OH2 9608   6.174   5.899   1.817
 3201TIP3    H1 9609   6.175   5.809   1.784
 3201TIP3    H2 9610   6.104   5.942   1.768
 3202TIP3   OH2 9611   3.358   1.074   0.445
 3202TIP3    H1 9612   3.380   1.048   0.355
 3202TIP3    H2 9613   3.296   1.146   0.435
 3203TIP3   OH2 9614   1.686   2.311   1.685
 3203TIP3    H1 9615   1.596   2.296   1.715
 3203TIP3    H2 9616   1.727   2.224   1.690
 3204TIP3   OH2 9617   5.133   1.908   3.363
 3204TIP3    H1 9618   5.145   1.868   3.277
 3204TIP3    H2 9619   5.038   1.911   3.375
 3205TIP3   OH2 9620   1.618   5.127   1.327
 3205TIP3    H1 9621   1.651   5.049   1.370
 3205TIP3    H2 9622   1.571   5.175   1.395
 3206TIP3   OH2 9623   4.704   3.044   0.351
 3206TIP3    H1 9624   4.707   3.140   0.358
 3206TIP3    H2 9625   4.780   3.021   0.299
 3207TIP3   OH2 9626   4.438   0.819   3.892
 3207TIP3    H1 9627   4.425   0.913   3.900
 3207TIP3    H2 9628   4.510   0.799   3.951
 3208TIP3   OH2 9629   6.098   1.770   2.732
 3208TIP3    H1 9630   6.098   1.675   2.723
 3208TIP3    H2 9631   6.176   1.799   2.685
 3209TIP3   OH2 9632   2.412   1.679   4.445
 3209TIP3    H1 9633   2.450   1.760   4.479
 3209TIP3    H2 9634   2.350   1.708   4.378
 3210TIP3   OH2 9635   0.992   5.530   2.706
 3210TIP3    H1 9636   0.914   5.575   2.738
 3210TIP3    H2 9637   0.976   5.517   2.612
 3211TIP3   OH2 9638   2.219   1.594   0.530
 3211TIP3    H1 9639   2.185   1.605   0.441
 3211TIP3    H2 9640   2.209   1.501   0.549
 3212TIP3   OH2 9641   5.159   4.753   4.514
 3212TIP3    H1 9642   5.193   4.681   4.462
 3212TIP3    H2 9643   5.234   4.786   4.563
 3213TIP3   OH2 9644   3.787   2.257   1.812
 3213TIP3    H1 9645   3.832   2.311   1.876
 3213TIP3    H2 9646   3.812   2.293   1.727
 3214TIP3   OH2 9647   5.883   0.458   1.712
 3214TIP3    H1 9648   5.826   0.525   1.749
 3214TIP3    H2 9649   5.946   0.439   1.782
 3215TIP3   OH2 9650   5.136   4.058   0.179
 3215TIP3    H1 9651   5.152   4.039   0.087
 3215TIP3    H2 9652   5.054   4.107   0.180
 3216TIP3   OH2 9653   4.898   5.327   1.884
 3216TIP3    H1 9654   4.956   5.403   1.896
 3216TIP3    H2 9655   4.909   5.303   1.792
 3217TIP3   OH2 9656   6.063   0.592   0.127
 3217TIP3    H1 9657   6.002   0.660   0.097
 3217TIP3    H2 9658   6.019   0.510   0.106
 3218TIP3   OH2 9659   5.128   0.377   4.841
 3218TIP3    H1 9660   5.222   0.395   4.840
 3218TIP3    H2 9661   5.105   0.365   4.748
 3219TIP3   OH2 9662   2.892   1.206   5.025
 3219TIP3    H1 9663   2.821   1.217   4.962
 3219TIP3    H2 9664   2.852   1.225   5.110
 3220TIP3   OH2 9665   3.534   3.068   2.267
 3220TIP3    H1 9666   3.588   3.134   2.312
 3220TIP3    H2 9667   3.446   3.081   2.301
 3221TIP3   OH2 9668   2.369   4.102   2.477
 3221TIP3    H1 9669   2.441   4.164   2.488
 3221TIP3    H2 9670   2.368   4.083   2.383
 3222TIP3   OH2 9671   3.773   0.292   3.257
 3222TIP3    H1 9672   3.862   0.259   3.246
 3222TIP3    H2 9673   3.737   0.294   3.168
 3223TIP3   OH2 9674   1.346   4.118   2.928
 3223TIP3    H1 9675   1.368   4.073   3.010
 3223TIP3    H2 9676   1.283   4.061   2.885
 3224TIP3   OH2 9677   4.742   5.038   1.639
 3224TIP3    H1 9678   4.690   5.067   1.714
 3224TIP3    H2 9679   4.685   5.050   1.563
 3225TIP3   OH2 9680   3.263   3.393   4.487
 3225TIP3    H1 9681   3.223   3.468   4.443
 3225TIP3    H2 9682   3.332   3.431   4.541
 3226TIP3   OH2 9683   4.806   5.894   0.755
 3226TIP3    H1 9684   4.865   5.820   0.745
 3226TIP3    H2 9685   4.747   5.888   0.680
 3227TIP3   OH2 9686   0.319   4.872   3.267
 3227TIP3    H1 9687   0.360   4.941   3.318
 3227TIP3    H2 9688   0.393   4.820   3.233
 3228TIP3   OH2 9689   5.425   1.983   2.149
 3228TIP3    H1 9690   5.469   1.904   2.181
 3228TIP3    H2 9691   5.447   1.987   2.056
 3229TIP3   OH2 9692   2.008   4.905   4.320
 3229TIP3    H1 9693   2.062   4.981   4.297
 3229TIP3    H2 9694   1.941   4.940   4.379
 3230TIP3   OH2 9695   2.227   2.330   2.024
 3230TIP3    H1 9696   2.277   2.411   2.037
 3230TIP3    H2 9697   2.199   2.306   2.113
 3231TIP3   OH2 9698   5.829   2.681   4.029
 3231TIP3    H1 9699   5.763   2.663   3.963
 3231TIP3    H2 9700   5.871   2.596   4.045
 3232TIP3   OH2 9701   3.000   1.168   2.826
 3232TIP3    H1 9702   2.912   1.197   2.849
 3232TIP3    H2 9703   3.024   1.223   2.751
 3233TIP3   OH2 9704   5.667   2.329   0.017
 3233TIP3    H1 9705   5.745   2.381   0.035
 3233TIP3    H2 9706   5.606   2.353   0.086
 3234TIP3   OH2 9707   0.241   2.135   1.511
 3234TIP3    H1 9708   0.290   2.211   1.541
 3234TIP3    H2 9709   0.156   2.170   1.484
 3235TIP3   OH2 9710   4.885   0.348   3.796
 3235TIP3    H1 9711   4.910   0.382   3.882
 3235TIP3    H2 9712   4.883   0.425   3.740
 3236TIP3   OH2 9713   4.308   4.486   2.719
 3236TIP3    H1 9714   4.269   4.428   2.655
 3236TIP3    H2 9715   4.236   4.514   2.775
 3237TIP3   OH2 9716   4.151   4.253   1.053
 3237TIP3    H1 9717   4.175   4.220   1.140
 3237TIP3    H2 9718   4.086   4.191   1.020
 3238TIP3   OH2 9719   4.095   1.267   2.925
 3238TIP3    H1 9720   4.109   1.198   2.990
 3238TIP3    H2 9721   4.034   1.328   2.967
 3239TIP3   OH2 9722   3.085   5.749   4.002
 3239TIP3    H1 9723   3.067   5.840   3.978
 3239TIP3    H2 9724   3.006   5.701   3.975
 3240TIP3   OH2 9725   1.288   5.081   3.037
 3240TIP3    H1 9726   1.337   5.099   2.957
 3240TIP3    H2 9727   1.352   5.042   3.097
 3241TIP3   OH2 9728   4.906   5.003   0.454
 3241TIP3    H1 9729   4.937   5.024   0.366
 3241TIP3    H2 9730   4.816   5.034   0.457
 3242TIP3   OH2 9731   4.835   4.541   3.870
 3242TIP3    H1 9732   4.895   4.583   3.809
 3242TIP3    H2 9733   4.846   4.447   3.854
 3243TIP3   OH2 9734   0.420   0.111   4.587
 3243TIP3    H1 9735   0.495   0.153   4.545
 3243TIP3    H2 9736   0.434   0.017   4.574
 3244TIP3   OH2 9737   5.044   3.097   0.544
 3244TIP3    H1 9738   5.028   3.167   0.481
 3244TIP3    H2 9739   4.959   3.057   0.558
 3245TIP3   OH2 9740   4.920   1.393   4.121
 3245TIP3    H1 9741   4.960   1.315   4.082
 3245TIP3    H2 9742   4.969   1.466   4.084
 3246TIP3   OH2 9743   3.779   4.392   3.219
 3246TIP3    H1 9744   3.741   4.360   3.137
 3246TIP3    H2 9745   3.730   4.472   3.239
 3247TIP3   OH2 9746   6.350   2.263   4.782
 3247TIP3    H1 9747   6.382   2.332   4.723
 3247TIP3    H2 9748   6.259   2.249   4.755
 3248TIP3   OH2 9749   0.712   0.491   0.849
 3248TIP3    H1 9750   0.634   0.515   0.799
 3248TIP3    H2 9751   0.744   0.574   0.885
 3249TIP3   OH2 9752   2.401   1.901   2.744
 3249TIP3    H1 9753   2.350   1.982   2.750
 3249TIP3    H2 9754   2.338   1.835   2.716
 3250TIP3   OH2 9755   2.636   4.821   4.703
 3250TIP3    H1 9756   2.675   4.832   4.616
 3250TIP3    H2 9757   2.672   4.894   4.754
 3251TIP3   OH2 9758   5.873   5.912   1.157
 3251TIP3    H1 9759   5.805   5.963   1.201
 3251TIP3    H2 9760   5.902   5.850   1.223
 3252TIP3   OH2 9761   0.074   0.388   0.623
 3252TIP3    H1 9762   0.130   0.434   0.686
 3252TIP3    H2 9763   0.025   0.458   0.580
 3253TIP3   OH2 9764   3.180   0.844   2.044
 3253TIP3    H1 9765   3.254   0.821   1.987
 3253TIP3    H2 9766   3.142   0.921   2.003
 3254TIP3   OH2 9767   4.500   0.928   1.595
 3254TIP3    H1 9768   4.446   0.872   1.651
 3254TIP3    H2 9769   4.498   0.886   1.509
 3255TIP3   OH2 9770   4.152   5.260   1.345
 3255TIP3    H1 9771   4.218   5.203   1.386
 3255TIP3    H2 9772   4.201   5.338   1.320
 3256TIP3   OH2 9773   1.814   3.293   1.770
 3256TIP3    H1 9774   1.723   3.270   1.752
 3256TIP3    H2 9775   1.810   3.355   1.843
 3257TIP3   OH2 9776   4.437   5.226   2.619
 3257TIP3    H1 9777   4.482   5.281   2.684
 3257TIP3    H2 9778   4.415   5.286   2.548
 3258TIP3   OH2 9779   0.278   5.621   3.992
 3258TIP3    H1 9780   0.345   5.608   3.924
 3258TIP3    H2 9781   0.236   5.535   4.001
 3259TIP3   OH2 9782   6.290   0.493  -0.013
 3259TIP3    H1 9783   6.263   0.533   0.069
 3259TIP3    H2 9784   6.243   0.409  -0.015
 3260TIP3   OH2 9785   3.835   4.772   1.141
 3260TIP3    H1 9786   3.809   4.682   1.160
 3260TIP3    H2 9787   3.806   4.822   1.217
 3261TIP3   OH2 9788   1.484   2.697   2.384
 3261TIP3    H1 9789   1.424   2.703   2.310
 3261TIP3    H2 9790   1.439   2.643   2.448
 3262TIP3   OH2 9791   4.755   0.053   4.592
 3262TIP3    H1 9792   4.739   0.018   4.504
 3262TIP3    H2 9793   4.849   0.043   4.606
 3263TIP3   OH2 9794   1.275   4.651   4.261
 3263TIP3    H1 9795   1.351   4.685   4.309
 3263TIP3    H2 9796   1.282   4.692   4.175
 3264TIP3   OH2 9797   3.869   0.426   4.615
 3264TIP3    H1 9798   3.958   0.414   4.646
 3264TIP3    H2 9799   3.842   0.340   4.583
 3265TIP3   OH2 9800   3.478   1.455   1.837
 3265TIP3    H1 9801   3.397   1.480   1.882
 3265TIP3    H2 9802   3.450   1.391   1.771
 3266TIP3   OH2 9803   1.969   0.921   1.142
 3266TIP3    H1 9804   2.002   0.880   1.062
 3266TIP3    H2 9805   2.037   0.984   1.166
 3267TIP3   OH2 9806   1.434   4.015   4.410
 3267TIP3    H1 9807   1.491   4.062   4.350
 3267TIP3    H2 9808   1.359   4.073   4.423
 3268TIP3   OH2 9809   0.562   3.566   3.861
 3268TIP3    H1 9810   0.581   3.477   3.830
 3268TIP3    H2 9811   0.644   3.614   3.847
 3269TIP3   OH2 9812   2.061   5.119   4.775
 3269TIP3    H1 9813   1.973   5.123   4.811
 3269TIP3    H2 9814   2.118   5.134   4.851
 3270TIP3   OH2 9815   4.278   5.839   4.028
 3270TIP3    H1 9816   4.276   5.927   4.066
 3270TIP3    H2 9817   4.221   5.787   4.085
 3271TIP3   OH2 9818   4.643   0.785   4.834
 3271TIP3    H1 9819   4.663   0.743   4.917
 3271TIP3    H2 9820   4.683   0.872   4.840
 3272TIP3   OH2 9821   2.579   4.267   2.414
 3272TIP3    H1 9822   2.649   4.208   2.387
 3272TIP3    H2 9823   2.532   4.289   2.334
 3273TIP3   OH2 9824   0.805   4.291   1.229
 3273TIP3    H1 9825   0.754   4.294   1.148
 3273TIP3    H2 9826   0.848   4.206   1.227
 3274TIP3   OH2 9827   0.608   5.521   2.172
 3274TIP3    H1 9828   0.522   5.521   2.214
 3274TIP3    H2 9829   0.650   5.602   2.205
 3275TIP3   OH2 9830   0.758   1.518   1.909
 3275TIP3    H1 9831   0.666   1.543   1.910
 3275TIP3    H2 9832   0.803   1.592   1.950
 3276TIP3   OH2 9833   6.183   4.653   1.771
 3276TIP3    H1 9834   6.175   4.682   1.862
 3276TIP3    H2 9835   6.171   4.733   1.720
 3277TIP3   OH2 9836   3.861   3.112   4.518
 3277TIP3    H1 9837   3.956   3.108   4.531
 3277TIP3    H2 9838   3.830   3.025   4.542
 3278TIP3   OH2 9839   4.143   2.177   2.066
 3278TIP3    H1 9840   4.096   2.097   2.089
 3278TIP3    H2 9841   4.166   2.165   1.973
 3279TIP3   OH2 9842   4.747   3.135   2.063
 3279TIP3    H1 9843   4.700   3.055   2.089
 3279TIP3    H2 9844   4.716   3.154   1.975
 3280TIP3   OH2 9845   2.158   3.759   0.068
 3280TIP3    H1 9846   2.192   3.842   0.036
 3280TIP3    H2 9847   2.228   3.724   0.124
 3281TIP3   OH2 9848   2.414   1.686   3.786
 3281TIP3    H1 9849   2.484   1.733   3.741
 3281TIP3    H2 9850   2.387   1.745   3.857
 3282TIP3   OH2 9851   3.008   4.986   4.716
 3282TIP3    H1 9852   3.037   4.904   4.675
 3282TIP3    H2 9853   2.920   4.966   4.748
 3283TIP3   OH2 9854   4.572   2.174   3.450
 3283TIP3    H1 9855   4.573   2.094   3.503
 3283TIP3    H2 9856   4.506   2.157   3.382
 3284TIP3   OH2 9857   2.167   0.110   4.020
 3284TIP3    H1 9858   2.167   0.015   4.011
 3284TIP3    H2 9859   2.250   0.130   4.063
 3285TIP3   OH2 9860   4.192   2.092   3.503
 3285TIP3    H1 9861   4.227   2.007   3.529
 3285TIP3    H2 9862   4.199   2.146   3.582
 3286TIP3   OH2 9863   6.100   1.641   2.269
 3286TIP3    H1 9864   6.145   1.719   2.236
 3286TIP3    H2 9865   6.054   1.606   2.192
 3287TIP3   OH2 9866   4.987   1.073   2.291
 3287TIP3    H1 9867   5.002   1.163   2.321
 3287TIP3    H2 9868   5.069   1.050   2.246
 3288TIP3   OH2 9869   5.471   0.190   3.047
 3288TIP3    H1 9870   5.502   0.187   3.138
 3288TIP3    H2 9871   5.465   0.283   3.027
 3289TIP3   OH2 9872   5.770   2.737   3.504
 3289TIP3    H1 9873   5.734   2.663   3.455
 3289TIP3    H2 9874   5.862   2.741   3.479
 3290TIP3   OH2 9875   0.210   3.328   4.938
 3290TIP3    H1 9876   0.202   3.422   4.954
 3290TIP3    H2 9877   0.244   3.293   5.020
 3291TIP3   OH2 9878   0.472   1.891   0.361
 3291TIP3    H1 9879   0.521   1.925   0.437
 3291TIP3    H2 9880   0.446   1.969   0.312
 3292TIP3   OH2 9881   2.098   5.467   3.900
 3292TIP3    H1 9882   2.052   5.481   3.818
 3292TIP3    H2 9883   2.191   5.473   3.877
 3293TIP3   OH2 9884   5.154   0.321   4.325
 3293TIP3    H1 9885   5.106   0.318   4.242
 3293TIP3    H2 9886   5.215   0.247   4.320
 3294TIP3   OH2 9887   3.041   1.424   2.938
 3294TIP3    H1 9888   3.134   1.431   2.916
 3294TIP3    H2 9889   3.038   1.366   3.013
 3295TIP3   OH2 9890   2.691   1.149   2.814
 3295TIP3    H1 9891   2.634   1.088   2.862
 3295TIP3    H2 9892   2.706   1.106   2.730
 3296TIP3   OH2 9893   5.518   5.038   1.304
 3296TIP3    H1 9894   5.528   5.007   1.214
 3296TIP3    H2 9895   5.494   4.959   1.353
 3297TIP3   OH2 9896   4.020   1.970   4.622
 3297TIP3    H1 9897   4.003   1.886   4.665
 3297TIP3    H2 9898   3.934   2.011   4.617
 3298TIP3   OH2 9899   0.998   5.188   1.807
 3298TIP3    H1 9900   0.975   5.097   1.826
 3298TIP3    H2 9901   1.060   5.182   1.734
 3299TIP3   OH2 9902   0.863   5.614   0.815
 3299TIP3    H1 9903   0.789   5.553   0.821
 3299TIP3    H2 9904   0.824   5.700   0.833
 3300TIP3   OH2 9905   3.833   0.998   3.454
 3300TIP3    H1 9906   3.789   1.008   3.370
 3300TIP3    H2 9907   3.777   1.044   3.516
 3301TIP3   OH2 9908   2.314   2.165   2.713
 3301TIP3    H1 9909   2.386   2.218   2.747
 3301TIP3    H2 9910   2.235   2.215   2.733
 3302TIP3   OH2 9911   3.690   0.611   0.652
 3302TIP3    H1 9912   3.710   0.563   0.733
 3302TIP3    H2 9913   3.595   0.622   0.653
 3303TIP3   OH2 9914   2.907   0.250   4.197
 3303TIP3    H1 9915   2.908   0.285   4.286
 3303TIP3    H2 9916   2.966   0.308   4.149
 3304TIP3   OH2 9917   3.003   2.885   1.420
 3304TIP3    H1 9918   3.026   2.828   1.494
 3304TIP3    H2 9919   2.968   2.964   1.461
 3305TIP3   OH2 9920   4.411   0.068   1.021
 3305TIP3    H1 9921   4.486   0.025   1.062
 3305TIP3    H2 9922   4.435   0.161   1.018
 3306TIP3   OH2 9923   4.080   4.037   1.263
 3306TIP3    H1 9924   3.995   3.993   1.271
 3306TIP3    H2 9925   4.124   3.991   1.191
 3307TIP3   OH2 9926   3.647   3.096   0.586
 3307TIP3    H1 9927   3.735   3.062   0.603
 3307TIP3    H2 9928   3.647   3.184   0.625
 3308TIP3   OH2 9929   5.701   3.237   1.479
 3308TIP3    H1 9930   5.720   3.270   1.567
 3308TIP3    H2 9931   5.621   3.283   1.453
 3309TIP3   OH2 9932   4.392   1.486   1.935
 3309TIP3    H1 9933   4.335   1.560   1.960
 3309TIP3    H2 9934   4.353   1.411   1.979
 3310TIP3   OH2 9935   5.488   0.303   3.566
 3310TIP3    H1 9936   5.437   0.378   3.534
 3310TIP3    H2 9937   5.425   0.251   3.615
 3311TIP3   OH2 9938   3.453   4.846   4.582
 3311TIP3    H1 9939   3.482   4.758   4.609
 3311TIP3    H2 9940   3.386   4.830   4.516
 3312TIP3   OH2 9941   2.361   5.628  -0.006
 3312TIP3    H1 9942   2.424   5.697  -0.028
 3312TIP3    H2 9943   2.276   5.666  -0.030
 3313TIP3   OH2 9944   3.638   1.922   1.651
 3313TIP3    H1 9945   3.653   1.828   1.664
 3313TIP3    H2 9946   3.570   1.945   1.715
 3314TIP3   OH2 9947   4.307   3.211   0.577
 3314TIP3    H1 9948   4.339   3.132   0.534
 3314TIP3    H2 9949   4.292   3.184   0.668
 3315TIP3   OH2 9950   3.207   4.065   5.054
 3315TIP3    H1 9951   3.183   4.050   5.146
 3315TIP3    H2 9952   3.143   4.014   5.004
 3316TIP3   OH2 9953   2.912   3.300   4.704
 3316TIP3    H1 9954   2.891   3.377   4.757
 3316TIP3    H2 9955   2.924   3.334   4.616
 3317TIP3   OH2 9956   5.105   0.209   1.097
 3317TIP3    H1 9957   5.182   0.240   1.048
 3317TIP3    H2 9958   5.065   0.289   1.131
 3318TIP3   OH2 9959   3.131   2.620   3.910
 3318TIP3    H1 9960   3.226   2.608   3.897
 3318TIP3    H2 9961   3.123   2.649   4.000
 3319TIP3   OH2 9962   2.303   5.174   1.224
 3319TIP3    H1 9963   2.336   5.263   1.235
 3319TIP3    H2 9964   2.322   5.152   1.133
 3320TIP3   OH2 9965   5.959   5.322   2.606
 3320TIP3    H1 9966   6.000   5.377   2.672
 3320TIP3    H2 9967   6.032   5.282   2.559
 3321TIP3   OH2 9968   4.076   4.506   4.742
 3321TIP3    H1 9969   4.084   4.518   4.837
 3321TIP3    H2 9970   4.102   4.415   4.727
 3322TIP3   OH2 9971   1.158   5.305   4.136
 3322TIP3    H1 9972   1.072   5.328   4.171
 3322TIP3    H2 9973   1.170   5.213   4.158
 3323TIP3   OH2 9974   3.230   4.235   1.089
 3323TIP3    H1 9975   3.176   4.303   1.048
 3323TIP3    H2 9976   3.166   4.180   1.135
 3324TIP3   OH2 9977   0.172   3.134   0.395
 3324TIP3    H1 9978   0.248   3.187   0.416
 3324TIP3    H2 9979   0.204   3.044   0.398
 3325TIP3   OH2 9980   3.068   2.275   2.745
 3325TIP3    H1 9981   3.153   2.231   2.749
 3325TIP3    H2 9982   3.088   2.366   2.766
 3326TIP3   OH2 9983   5.826   2.168   3.972
 3326TIP3    H1 9984   5.876   2.191   3.894
 3326TIP3    H2 9985   5.740   2.143   3.939
 3327TIP3   OH2 9986   1.852   4.288   0.229
 3327TIP3    H1 9987   1.803   4.228   0.286
 3327TIP3    H2 9988   1.849   4.372   0.275
 3328TIP3   OH2 9989   5.822   2.553   3.698
 3328TIP3    H1 9990   5.819   2.632   3.643
 3328TIP3    H2 9991   5.862   2.487   3.642
 3329TIP3   OH2 9992   5.025   4.675   4.767
 3329TIP3    H1 9993   5.025   4.692   4.672
 3329TIP3    H2 9994   5.060   4.586   4.775
 3330TIP3   OH2 9995   5.944   3.353   1.351
 3330TIP3    H1 9996   5.867   3.329   1.402
 3330TIP3    H2 9997   5.976   3.433   1.391
 3331TIP3   OH2 9998   5.501   2.980   0.368
 3331TIP3    H1 9999   5.527   2.950   0.455
 3331TIP3    H210000   5.405   2.970   0.368
 3332TIP3   OH210001   6.286   1.709   3.979
 3332TIP3    H110002   6.357   1.653   4.011
 3332TIP3    H210003   6.265   1.674   3.893
 3333TIP3   OH210004   2.183   1.926   0.965
 3333TIP3    H110005   2.115   1.994   0.967
 3333TIP3    H210006   2.260   1.968   1.003
 3334TIP3   OH210007   2.917   4.524   2.471
 3334TIP3    H110008   2.999   4.493   2.510
 3334TIP3    H210009   2.898   4.459   2.403
 3335TIP3   OH210010   5.728   3.187   3.351
 3335TIP3    H110011   5.805   3.136   3.377
 3335TIP3    H210012   5.695   3.225   3.432
 3336TIP3   OH210013   1.362   5.063   2.733
 3336TIP3    H110014   1.312   5.039   2.655
 3336TIP3    H210015   1.416   4.986   2.751
 3337TIP3   OH210016   1.172   1.130   4.327
 3337TIP3    H110017   1.180   1.035   4.337
 3337TIP3    H210018   1.241   1.153   4.264
 3338TIP3   OH210019   1.699   1.615   2.012
 3338TIP3    H110020   1.720   1.659   2.095
 3338TIP3    H210021   1.606   1.632   2.000
 3339TIP3   OH210022   0.973   0.696   1.897
 3339TIP3    H110023   1.043   0.634   1.914
 3339TIP3    H210024   0.956   0.690   1.803
 3340TIP3   OH210025   1.987   4.241   4.218
 3340TIP3    H110026   2.006   4.148   4.206
 3340TIP3    H210027   2.029   4.263   4.301
 3341TIP3   OH210028   1.784   4.798   0.308
 3341TIP3    H110029   1.692   4.824   0.294
 3341TIP3    H210030   1.795   4.797   0.403
 3342TIP3   OH210031   4.334   4.397   1.947
 3342TIP3    H110032   4.359   4.475   1.997
 3342TIP3    H210033   4.242   4.383   1.969
 3343TIP3   OH210034   3.262   0.524   0.250
 3343TIP3    H110035   3.219   0.472   0.182
 3343TIP3    H210036   3.242   0.615   0.227
 3344TIP3   OH210037   2.655   0.526   4.372
 3344TIP3    H110038   2.618   0.577   4.444
 3344TIP3    H210039   2.716   0.585   4.329
 3345TIP3   OH210040   5.632   5.042   3.472
 3345TIP3    H110041   5.549   5.090   3.479
 3345TIP3    H210042   5.647   5.007   3.560
 3346TIP3   OH210043   1.666   3.147   2.460
 3346TIP3    H110044   1.733   3.083   2.484
 3346TIP3    H210045   1.714   3.219   2.420
 3347TIP3   OH210046   5.115   4.495   3.009
 3347TIP3    H110047   5.060   4.426   2.972
 3347TIP3    H210048   5.204   4.459   3.005
 3348TIP3   OH210049   0.086   3.498   0.129
 3348TIP3    H110050   0.159   3.501   0.068
 3348TIP3    H210051   0.064   3.405   0.137
 3349TIP3   OH210052   5.859   2.897   4.694
 3349TIP3    H110053   5.853   2.814   4.647
 3349TIP3    H210054   5.952   2.919   4.693
 3350TIP3   OH210055   0.700   4.311   0.727
 3350TIP3    H110056   0.680   4.220   0.748
 3350TIP3    H210057   0.647   4.329   0.649
 3351TIP3   OH210058   6.140   0.363   4.888
 3351TIP3    H110059   6.063   0.420   4.888
 3351TIP3    H210060   6.118   0.292   4.949
 3352TIP3   OH210061   1.636   2.436   2.717
 3352TIP3    H110062   1.714   2.476   2.756
 3352TIP3    H210063   1.654   2.342   2.718
 3353TIP3   OH210064   4.200   3.957   1.049
 3353TIP3    H110065   4.286   3.944   1.010
 3353TIP3    H210066   4.144   3.981   0.975
 3354TIP3   OH210067   0.888   0.874   4.111
 3354TIP3    H110068   0.925   0.793   4.147
 3354TIP3    H210069   0.923   0.878   4.022
 3355TIP3   OH210070   4.019   0.988   2.348
 3355TIP3    H110071   4.014   0.906   2.398
 3355TIP3    H210072   4.010   1.057   2.413
 3356TIP3   OH210073   4.364   4.105   3.590
 3356TIP3    H110074   4.341   4.065   3.674
 3356TIP3    H210075   4.281   4.134   3.553
 3357TIP3   OH210076   5.686   5.357   4.758
 3357TIP3    H110077   5.654   5.442   4.788
 3357TIP3    H210078   5.654   5.351   4.668
 3358TIP3   OH210079   2.741   0.867   2.843
 3358TIP3    H110080   2.688   0.873   2.764
 3358TIP3    H210081   2.829   0.894   2.816
 3359TIP3   OH210082   0.453   5.052   3.435
 3359TIP3    H110083   0.542   5.056   3.401
 3359TIP3    H210084   0.448   5.126   3.497
 3360TIP3   OH210085   1.563   1.342   4.082
 3360TIP3    H110086   1.615   1.273   4.040
 3360TIP3    H210087   1.572   1.417   4.023
 3361TIP3   OH210088   3.562   3.474   4.534
 3361TIP3    H110089   3.589   3.392   4.495
 3361TIP3    H210090   3.547   3.453   4.627
 3362TIP3   OH210091   6.110   2.327   3.205
 3362TIP3    H110092   6.119   2.232   3.214
 3362TIP3    H210093   6.183   2.353   3.149
 3363TIP3   OH210094   3.298   2.765   2.940
 3363TIP3    H110095   3.321   2.856   2.918
 3363TIP3    H210096   3.373   2.714   2.910
 3364TIP3   OH210097   0.653   4.088   1.038
 3364TIP3    H110098   0.734   4.087   0.987
 3364TIP3    H210099   0.585   4.069   0.974
 3365TIP3   OH210100   0.988   2.804   2.134
 3365TIP3    H110101   0.945   2.793   2.220
 3365TIP3    H210102   0.945   2.740   2.078
 3366TIP3   OH210103   1.432   3.525   1.969
 3366TIP3    H110104   1.375   3.447   1.973
 3366TIP3    H210105   1.384   3.592   2.019
 3367TIP3   OH210106   5.544   1.940   1.380
 3367TIP3    H110107   5.587   2.023   1.403
 3367TIP3    H210108   5.479   1.927   1.449
 3368TIP3   OH210109   5.745   0.495   4.172
 3368TIP3    H110110   5.727   0.407   4.141
 3368TIP3    H210111   5.814   0.527   4.114
 3369TIP3   OH210112   2.759   5.687   3.219
 3369TIP3    H110113   2.811   5.673   3.298
 3369TIP3    H210114   2.819   5.665   3.147
 3370TIP3   OH210115   5.012   0.114   2.826
 3370TIP3    H110116   5.026   0.152   2.913
 3370TIP3    H210117   4.964   0.181   2.778
 3371TIP3   OH210118   1.746   4.179   2.295
 3371TIP3    H110119   1.839   4.188   2.319
 3371TIP3    H210120   1.701   4.166   2.378
 3372TIP3   OH210121   4.404   2.905   4.512
 3372TIP3    H110122   4.493   2.940   4.517
 3372TIP3    H210123   4.363   2.954   4.440
 3373TIP3   OH210124   2.475   4.620   0.267
 3373TIP3    H110125   2.533   4.624   0.191
 3373TIP3    H210126   2.459   4.526   0.280
 3374TIP3   OH210127   2.971   3.872   5.009
 3374TIP3    H110128   2.955   3.838   5.097
 3374TIP3    H210129   2.919   3.952   5.004
 3375TIP3   OH210130   4.176   5.412   1.053
 3375TIP3    H110131   4.105   5.348   1.060
 3375TIP3    H210132   4.134   5.497   1.069
 3376TIP3   OH210133   1.155   5.595   1.072
 3376TIP3    H110134   1.242   5.570   1.101
 3376TIP3    H210135   1.148   5.688   1.091
 3377TIP3   OH210136   6.087   3.266   0.462
 3377TIP3    H110137   6.075   3.361   0.465
 3377TIP3    H210138   6.052   3.235   0.546
 3378TIP3   OH210139   5.632   3.009   0.835
 3378TIP3    H110140   5.703   2.959   0.874
 3378TIP3    H210141   5.631   3.092   0.884
 3379TIP3   OH210142   3.479   5.049   3.834
 3379TIP3    H110143   3.460   5.094   3.916
 3379TIP3    H210144   3.436   5.101   3.767
 3380TIP3   OH210145   3.219   3.936   2.052
 3380TIP3    H110146   3.171   3.991   1.990
 3380TIP3    H210147   3.273   3.997   2.102
 3381TIP3   OH210148   5.326   3.532   1.217
 3381TIP3    H110149   5.342   3.481   1.297
 3381TIP3    H210150   5.231   3.543   1.214
 3382TIP3   OH210151   1.459   1.122   1.334
 3382TIP3    H110152   1.515   1.162   1.400
 3382TIP3    H210153   1.370   1.137   1.366
 3383TIP3   OH210154   5.521   5.930   4.890
 3383TIP3    H110155   5.544   5.863   4.955
 3383TIP3    H210156   5.432   5.908   4.863
 3384TIP3   OH210157   2.483   0.147   0.378
 3384TIP3    H110158   2.567   0.190   0.395
 3384TIP3    H210159   2.468   0.162   0.284
 3385TIP3   OH210160   3.155   3.669   3.715
 3385TIP3    H110161   3.218   3.733   3.681
 3385TIP3    H210162   3.173   3.589   3.666
 3386TIP3   OH210163   0.342   3.735   0.582
 3386TIP3    H110164   0.432   3.715   0.555
 3386TIP3    H210165   0.296   3.651   0.574
 3387TIP3   OH210166   5.126   5.906   0.514
 3387TIP3    H110167   5.154   5.932   0.426
 3387TIP3    H210168   5.099   5.815   0.503
 3388TIP3   OH210169   5.167   2.065   2.047
 3388TIP3    H110170   5.255   2.031   2.066
 3388TIP3    H210171   5.148   2.123   2.121
 3389TIP3   OH210172   0.794   5.159   4.451
 3389TIP3    H110173   0.863   5.138   4.513
 3389TIP3    H210174   0.771   5.250   4.469
 3390TIP3   OH210175   2.904   2.745   5.046
 3390TIP3    H110176   2.978   2.804   5.062
 3390TIP3    H210177   2.829   2.790   5.083
 3391TIP3   OH210178   5.497   4.662   2.787
 3391TIP3    H110179   5.404   4.683   2.802
 3391TIP3    H210180   5.506   4.572   2.819
 3392TIP3   OH210181   3.434   2.739   2.412
 3392TIP3    H110182   3.481   2.677   2.357
 3392TIP3    H210183   3.344   2.736   2.380
 3393TIP3   OH210184   5.320   1.051   4.372
 3393TIP3    H110185   5.322   1.139   4.411
 3393TIP3    H210186   5.306   1.066   4.279
 3394TIP3   OH210187   0.729   1.671   0.593
 3394TIP3    H110188   0.652   1.636   0.547
 3394TIP3    H210189   0.705   1.761   0.614
 3395TIP3   OH210190   1.845   2.109   1.668
 3395TIP3    H110191   1.777   2.059   1.713
 3395TIP3    H210192   1.892   2.044   1.616
 3396TIP3   OH210193   3.647   3.154   3.828
 3396TIP3    H110194   3.580   3.143   3.896
 3396TIP3    H210195   3.617   3.229   3.777
 3397TIP3   OH210196   3.477   2.246   2.572
 3397TIP3    H110197   3.563   2.230   2.534
 3397TIP3    H210198   3.484   2.333   2.612
 3398TIP3   OH210199   3.562   4.016   1.311
 3398TIP3    H110200   3.598   3.999   1.398
 3398TIP3    H210201   3.599   3.948   1.256
 3399TIP3   OH210202   6.073   5.974   2.249
 3399TIP3    H110203   6.113   5.887   2.258
 3399TIP3    H210204   6.039   5.993   2.336
 3400TIP3   OH210205   1.654   2.238   1.108
 3400TIP3    H110206   1.680   2.323   1.141
 3400TIP3    H210207   1.578   2.213   1.160
 3401TIP3   OH210208   5.353   3.648   0.309
 3401TIP3    H110209   5.295   3.691   0.246
 3401TIP3    H210210   5.440   3.680   0.288
 3402TIP3   OH210211   6.067   4.929   1.655
 3402TIP3    H110212   6.106   4.874   1.588
 3402TIP3    H210213   6.126   5.004   1.662
 3403TIP3   OH210214   5.235   3.318   2.529
 3403TIP3    H110215   5.277   3.299   2.613
 3403TIP3    H210216   5.159   3.260   2.527
 3404TIP3   OH210217   4.866   1.642   2.185
 3404TIP3    H110218   4.948   1.601   2.155
 3404TIP3    H210219   4.803   1.570   2.185
 3405TIP3   OH210220   3.743   1.712   5.007
 3405TIP3    H110221   3.682   1.778   4.975
 3405TIP3    H210222   3.745   1.725   5.102
 3406TIP3   OH210223   2.120   1.347   0.969
 3406TIP3    H110224   2.166   1.272   1.008
 3406TIP3    H210225   2.171   1.368   0.890
 3407TIP3   OH210226   6.068   5.624   0.225
 3407TIP3    H110227   6.076   5.547   0.281
 3407TIP3    H210228   6.146   5.676   0.245
 3408TIP3   OH210229   0.185   2.538   1.529
 3408TIP3    H110230   0.134   2.614   1.558
 3408TIP3    H210231   0.244   2.520   1.602
 3409TIP3   OH210232   3.453   1.441   3.744
 3409TIP3    H110233   3.445   1.355   3.785
 3409TIP3    H210234   3.526   1.483   3.791
 3410TIP3   OH210235   2.776   2.483   1.158
 3410TIP3    H110236   2.858   2.437   1.171
 3410TIP3    H210237   2.795   2.574   1.181
 3411TIP3   OH210238   4.927   4.625   3.180
 3411TIP3    H110239   4.978   4.570   3.122
 3411TIP3    H210240   4.989   4.656   3.246
 3412TIP3   OH210241   5.292   4.048   3.150
 3412TIP3    H110242   5.334   4.101   3.083
 3412TIP3    H210243   5.243   4.110   3.203
 3413TIP3   OH210244   5.601   1.971   2.588
 3413TIP3    H110245   5.638   1.911   2.653
 3413TIP3    H210246   5.560   1.913   2.524
 3414TIP3   OH210247   3.397   2.395   0.502
 3414TIP3    H110248   3.441   2.312   0.482
 3414TIP3    H210249   3.467   2.452   0.532
 3415TIP3   OH210250   5.714   5.614   4.972
 3415TIP3    H110251   5.788   5.608   4.912
 3415TIP3    H210252   5.637   5.607   4.915
 3416TIP3   OH210253   1.070   1.133   3.428
 3416TIP3    H110254   1.164   1.138   3.448
 3416TIP3    H210255   1.056   1.197   3.358
 3417TIP3   OH210256   0.328   5.390   1.477
 3417TIP3    H110257   0.356   5.452   1.410
 3417TIP3    H210258   0.343   5.436   1.560
 3418TIP3   OH210259   2.265   3.373   3.135
 3418TIP3    H110260   2.289   3.388   3.226
 3418TIP3    H210261   2.196   3.437   3.118
 3419TIP3   OH210262   2.174   1.979   2.189
 3419TIP3    H110263   2.262   1.986   2.152
 3419TIP3    H210264   2.116   1.986   2.114
 3420TIP3   OH210265   1.382   3.854   1.936
 3420TIP3    H110266   1.358   3.904   2.014
 3420TIP3    H210267   1.303   3.804   1.915
 3421TIP3   OH210268   2.723   1.536   0.932
 3421TIP3    H110269   2.690   1.448   0.951
 3421TIP3    H210270   2.763   1.528   0.846
 3422TIP3   OH210271   0.734   5.929   4.296
 3422TIP3    H110272   0.732   5.991   4.369
 3422TIP3    H210273   0.644   5.898   4.288
 3423TIP3   OH210274   0.738   3.229   1.282
 3423TIP3    H110275   0.727   3.135   1.264
 3423TIP3    H210276   0.684   3.272   1.215
 3424TIP3   OH210277   3.831   4.844   5.067
 3424TIP3    H110278   3.772   4.878   5.134
 3424TIP3    H210279   3.785   4.768   5.031
 3425TIP3   OH210280   4.163   1.130   2.190
 3425TIP3    H110281   4.114   1.208   2.166
 3425TIP3    H210282   4.097   1.068   2.220
 3426TIP3   OH210283   6.165   1.605   4.433
 3426TIP3    H110284   6.220   1.569   4.503
 3426TIP3    H210285   6.217   1.595   4.353
 3427TIP3   OH210286   0.483   0.075   4.860
 3427TIP3    H110287   0.454   0.088   4.769
 3427TIP3    H210288   0.551   0.008   4.853
 3428TIP3   OH210289   2.715   2.343   2.621
 3428TIP3    H110290   2.771   2.341   2.543
 3428TIP3    H210291   2.765   2.294   2.687
 3429TIP3   OH210292   1.212   2.330   2.918
 3429TIP3    H110293   1.126   2.349   2.881
 3429TIP3    H210294   1.261   2.412   2.908
 3430TIP3   OH210295   1.590   3.958   2.759
 3430TIP3    H110296   1.546   3.889   2.809
 3430TIP3    H210297   1.642   4.004   2.825
 3431TIP3   OH210298   0.807   3.538   3.693
 3431TIP3    H110299   0.875   3.474   3.673
 3431TIP3    H210300   0.768   3.559   3.608
 3432TIP3   OH210301   0.207   5.222   3.438
 3432TIP3    H110302   0.196   5.228   3.343
 3432TIP3    H210303   0.274   5.156   3.451
 3433TIP3   OH210304   4.203   1.897   2.409
 3433TIP3    H110305   4.275   1.950   2.375
 3433TIP3    H210306   4.221   1.889   2.503
 3434TIP3   OH210307   1.480   4.421   1.174
 3434TIP3    H110308   1.412   4.470   1.129
 3434TIP3    H210309   1.548   4.408   1.107
 3435TIP3   OH210310   3.296   0.498   2.547
 3435TIP3    H110311   3.351   0.490   2.625
 3435TIP3    H210312   3.353   0.541   2.483
 3436TIP3   OH210313   5.809   1.002   1.353
 3436TIP3    H110314   5.758   1.073   1.313
 3436TIP3    H210315   5.815   1.026   1.445
 3437TIP3   OH210316   5.133   2.221   3.558
 3437TIP3    H110317   5.215   2.210   3.509
 3437TIP3    H210318   5.075   2.155   3.522
 3438TIP3   OH210319   6.097   0.245   4.094
 3438TIP3    H110320   6.173   0.265   4.040
 3438TIP3    H210321   6.128   0.180   4.157
 3439TIP3   OH210322   3.811   4.782   0.367
 3439TIP3    H110323   3.852   4.862   0.334
 3439TIP3    H210324   3.776   4.808   0.453
 3440TIP3   OH210325   4.318   1.100   3.456
 3440TIP3    H110326   4.255   1.118   3.386
 3440TIP3    H210327   4.315   1.177   3.512
 3441TIP3   OH210328   4.755   2.293   4.977
 3441TIP3    H110329   4.845   2.300   5.008
 3441TIP3    H210330   4.757   2.330   4.889
 3442TIP3   OH210331   2.884   3.530   4.898
 3442TIP3    H110332   2.811   3.588   4.877
 3442TIP3    H210333   2.869   3.504   4.989
 3443TIP3   OH210334   3.665   2.525   0.270
 3443TIP3    H110335   3.688   2.459   0.335
 3443TIP3    H210336   3.629   2.597   0.322
 3444TIP3   OH210337   3.564   5.502   1.763
 3444TIP3    H110338   3.608   5.438   1.819
 3444TIP3    H210339   3.582   5.472   1.674
 3445TIP3   OH210340   3.977   1.188   0.427
 3445TIP3    H110341   3.885   1.162   0.433
 3445TIP3    H210342   4.024   1.121   0.476
 3446TIP3   OH210343   5.115   2.584   2.371
 3446TIP3    H110344   5.048   2.534   2.325
 3446TIP3    H210345   5.192   2.527   2.371
 3447TIP3   OH210346   2.194   1.067   1.743
 3447TIP3    H110347   2.230   0.979   1.741
 3447TIP3    H210348   2.164   1.083   1.654
 3448TIP3   OH210349   5.655   3.932   2.109
 3448TIP3    H110350   5.712   3.881   2.167
 3448TIP3    H210351   5.589   3.869   2.080
 3449TIP3   OH210352   3.468   1.381   3.044
 3449TIP3    H110353   3.461   1.335   3.128
 3449TIP3    H210354   3.392   1.353   2.995
 3450TIP3   OH210355   2.886   1.917   1.212
 3450TIP3    H110356   2.902   1.830   1.176
 3450TIP3    H210357   2.795   1.916   1.240
 3451TIP3   OH210358   5.330   5.256   1.127
 3451TIP3    H110359   5.276   5.203   1.186
 3451TIP3    H210360   5.372   5.320   1.185
 3452TIP3   OH210361   5.446   1.547   4.521
 3452TIP3    H110362   5.457   1.642   4.514
 3452TIP3    H210363   5.381   1.535   4.590
 3453TIP3   OH210364   3.076   1.965   3.356
 3453TIP3    H110365   3.025   1.983   3.277
 3453TIP3    H210366   3.162   2.005   3.339
 3454TIP3   OH210367   4.810   0.834   2.379
 3454TIP3    H110368   4.811   0.926   2.351
 3454TIP3    H210369   4.749   0.832   2.452
 3455TIP3   OH210370   1.020   1.662   3.233
 3455TIP3    H110371   1.043   1.642   3.323
 3455TIP3    H210372   0.963   1.590   3.206
 3456TIP3   OH210373   5.665   5.585   3.406
 3456TIP3    H110374   5.594   5.537   3.365
 3456TIP3    H210375   5.623   5.641   3.471
 3457TIP3   OH210376   0.169   0.486   1.606
 3457TIP3    H110377   0.188   0.462   1.515
 3457TIP3    H210378   0.091   0.435   1.628
 3458TIP3   OH210379   0.160   5.368   5.165
 3458TIP3    H110380   0.238   5.380   5.220
 3458TIP3    H210381   0.176   5.423   5.089
 3459TIP3   OH210382   3.272   3.531   3.150
 3459TIP3    H110383   3.222   3.475   3.209
 3459TIP3    H210384   3.287   3.477   3.072
 3460TIP3   OH210385   5.933   3.156   0.045
 3460TIP3    H110386   5.952   3.148  -0.049
 3460TIP3    H210387   6.012   3.122   0.088
 3461TIP3   OH210388   5.496   1.848   4.919
 3461TIP3    H110389   5.554   1.903   4.868
 3461TIP3    H210390   5.485   1.895   5.002
 3462TIP3   OH210391   1.397   2.786   2.016
 3462TIP3    H110392   1.489   2.760   2.020
 3462TIP3    H210393   1.352   2.725   2.074
 3463TIP3   OH210394   5.847   4.743   4.237
 3463TIP3    H110395   5.839   4.660   4.283
 3463TIP3    H210396   5.796   4.730   4.156
 3464TIP3   OH210397   0.333   0.742   3.531
 3464TIP3    H110398   0.370   0.656   3.512
 3464TIP3    H210399   0.365   0.798   3.460
 3465TIP3   OH210400   0.064   0.767   3.249
 3465TIP3    H110401   0.146   0.721   3.266
 3465TIP3    H210402   0.060   0.774   3.153
 3466TIP3   OH210403   5.771   4.877   2.193
 3466TIP3    H110404   5.728   4.861   2.277
 3466TIP3    H210405   5.785   4.972   2.191
 3467TIP3   OH210406   0.697   1.066   4.986
 3467TIP3    H110407   0.772   1.032   5.035
 3467TIP3    H210408   0.689   1.009   4.910
 3468TIP3   OH210409   2.649   3.903   0.451
 3468TIP3    H110410   2.715   3.968   0.474
 3468TIP3    H210411   2.691   3.819   0.466
 3469TIP3   OH210412   0.367   5.204   4.126
 3469TIP3    H110413   0.381   5.136   4.191
 3469TIP3    H210414   0.385   5.162   4.042
 3470TIP3   OH210415   0.246   1.419   4.996
 3470TIP3    H110416   0.202   1.437   5.079
 3470TIP3    H210417   0.290   1.501   4.973
 3471TIP3   OH210418   4.255   3.083   3.705
 3471TIP3    H110419   4.224   3.166   3.669
 3471TIP3    H210420   4.348   3.079   3.683
 3472TIP3   OH210421   2.953   1.678   3.761
 3472TIP3    H110422   2.998   1.722   3.688
 3472TIP3    H210423   2.950   1.744   3.830
 3473TIP3   OH210424   0.498   3.961   3.871
 3473TIP3    H110425   0.525   3.936   3.959
 3473TIP3    H210426   0.433   4.030   3.884
 3474TIP3   OH210427   1.592   5.873   2.213
 3474TIP3    H110428   1.542   5.954   2.203
 3474TIP3    H210429   1.604   5.864   2.308
 3475TIP3   OH210430   2.456   2.960   2.701
 3475TIP3    H110431   2.545   2.988   2.724
 3475TIP3    H210432   2.467   2.869   2.671
 3476TIP3   OH210433   5.071   5.592   3.383
 3476TIP3    H110434   5.163   5.598   3.407
 3476TIP3    H210435   5.040   5.682   3.386
 3477TIP3   OH210436   5.669   0.187   5.102
 3477TIP3    H110437   5.601   0.227   5.049
 3477TIP3    H210438   5.630   0.179   5.190
 3478TIP3   OH210439   1.546   4.297   3.228
 3478TIP3    H110440   1.528   4.224   3.288
 3478TIP3    H210441   1.638   4.319   3.245
 3479TIP3   OH210442   6.243   0.190   0.250
 3479TIP3    H110443   6.231   0.096   0.263
 3479TIP3    H210444   6.154   0.225   0.247
 3480TIP3   OH210445   5.384   2.648   5.003
 3480TIP3    H110446   5.297   2.629   4.970
 3480TIP3    H210447   5.377   2.736   5.041
 3481TIP3   OH210448   3.726   5.700   2.446
 3481TIP3    H110449   3.634   5.693   2.421
 3481TIP3    H210450   3.749   5.790   2.425
 3482TIP3   OH210451   2.485   3.629   1.599
 3482TIP3    H110452   2.417   3.690   1.571
 3482TIP3    H210453   2.446   3.580   1.671
 3483TIP3   OH210454   4.276   4.187   2.928
 3483TIP3    H110455   4.227   4.250   2.982
 3483TIP3    H210456   4.317   4.128   2.991
 3484TIP3   OH210457   2.571   0.978   1.073
 3484TIP3    H110458   2.498   0.919   1.090
 3484TIP3    H210459   2.644   0.921   1.051
 3485TIP3   OH210460   1.674   3.542   1.246
 3485TIP3    H110461   1.634   3.571   1.328
 3485TIP3    H210462   1.613   3.477   1.211
 3486TIP3   OH210463   5.463   3.440   0.429
 3486TIP3    H110464   5.492   3.404   0.345
 3486TIP3    H210465   5.419   3.522   0.405
 3487TIP3   OH210466   0.702   4.276   0.032
 3487TIP3    H110467   0.710   4.309  -0.057
 3487TIP3    H210468   0.624   4.220   0.030
 3488TIP3   OH210469   3.357   3.948   0.676
 3488TIP3    H110470   3.410   3.986   0.747
 3488TIP3    H210471   3.312   4.024   0.637
 3489TIP3   OH210472   1.607   4.972   0.428
 3489TIP3    H110473   1.524   4.998   0.388
 3489TIP3    H210474   1.582   4.925   0.508
 3490TIP3   OH210475   5.735   4.648   2.648
 3490TIP3    H110476   5.733   4.723   2.588
 3490TIP3    H210477   5.650   4.650   2.692
 3491TIP3   OH210478   4.854   0.149   0.989
 3491TIP3    H110479   4.806   0.231   0.979
 3491TIP3    H210480   4.944   0.176   1.010
 3492TIP3   OH210481   0.754   1.191   3.024
 3492TIP3    H110482   0.769   1.267   3.080
 3492TIP3    H210483   0.829   1.191   2.964
 3493TIP3   OH210484   4.560   0.524   3.876
 3493TIP3    H110485   4.482   0.530   3.822
 3493TIP3    H210486   4.548   0.445   3.929
 3494TIP3   OH210487   4.741   1.019   3.664
 3494TIP3    H110488   4.740   0.923   3.669
 3494TIP3    H210489   4.688   1.048   3.738
 3495TIP3   OH210490   5.621   4.169   2.655
 3495TIP3    H110491   5.626   4.183   2.560
 3495TIP3    H210492   5.588   4.079   2.664
 3496TIP3   OH210493   0.602   5.942   2.932
 3496TIP3    H110494   0.545   5.983   2.997
 3496TIP3    H210495   0.548   5.875   2.891
 3497TIP3   OH210496   5.923   1.886   0.773
 3497TIP3    H110497   5.912   1.822   0.843
 3497TIP3    H210498   5.924   1.833   0.693
 3498TIP3   OH210499   2.374   3.096   4.908
 3498TIP3    H110500   2.282   3.110   4.885
 3498TIP3    H210501   2.372   3.055   4.994
 3499TIP3   OH210502   0.488   3.939   2.090
 3499TIP3    H110503   0.533   3.862   2.055
 3499TIP3    H210504   0.529   4.013   2.045
 3500TIP3   OH210505   5.363   3.362   0.943
 3500TIP3    H110506   5.378   3.399   1.030
 3500TIP3    H210507   5.432   3.400   0.888
 3501TIP3   OH210508   5.247   1.824   3.590
 3501TIP3    H110509   5.198   1.851   3.512
 3501TIP3    H210510   5.185   1.835   3.662
 3502TIP3   OH210511   1.904   0.554   3.207
 3502TIP3    H110512   1.988   0.583   3.171
 3502TIP3    H210513   1.849   0.632   3.207
 3503TIP3   OH210514   5.016   2.784   0.505
 3503TIP3    H110515   5.001   2.758   0.414
 3503TIP3    H210516   4.940   2.839   0.527
 3504TIP3   OH210517   3.311   3.124   2.456
 3504TIP3    H110518   3.297   3.202   2.509
 3504TIP3    H210519   3.222   3.093   2.435
 3505TIP3   OH210520   4.794   2.935   0.579
 3505TIP3    H110521   4.743   2.959   0.502
 3505TIP3    H210522   4.781   2.841   0.588
 3506TIP3   OH210523   2.162   0.452   4.096
 3506TIP3    H110524   2.245   0.466   4.141
 3506TIP3    H210525   2.154   0.357   4.089
 3507TIP3   OH210526   2.593   5.295   3.779
 3507TIP3    H110527   2.619   5.203   3.786
 3507TIP3    H210528   2.620   5.334   3.862
 3508TIP3   OH210529   1.992   4.619   5.045
 3508TIP3    H110530   2.002   4.558   5.118
 3508TIP3    H210531   2.025   4.571   4.969
 3509TIP3   OH210532   3.048   2.704   0.215
 3509TIP3    H110533   3.127   2.660   0.244
 3509TIP3    H210534   2.981   2.677   0.277
 3510TIP3   OH210535   0.453   1.161   3.076
 3510TIP3    H110536   0.377   1.105   3.086
 3510TIP3    H210537   0.431   1.241   3.124
 3511TIP3   OH210538   1.510   2.699   0.571
 3511TIP3    H110539   1.447   2.735   0.634
 3511TIP3    H210540   1.564   2.640   0.623
 3512TIP3   OH210541   1.955   0.844   5.075
 3512TIP3    H110542   1.961   0.808   5.164
 3512TIP3    H210543   2.037   0.818   5.033
 3513TIP3   OH210544   0.235   4.723   2.172
 3513TIP3    H110545   0.236   4.767   2.257
 3513TIP3    H210546   0.275   4.638   2.189
 3514TIP3   OH210547   4.186   5.469   0.576
 3514TIP3    H110548   4.199   5.542   0.636
 3514TIP3    H210549   4.205   5.506   0.489
 3515TIP3   OH210550   1.709   3.523   2.538
 3515TIP3    H110551   1.767   3.476   2.479
 3515TIP3    H210552   1.678   3.598   2.487
 3516TIP3   OH210553   1.818   5.273   5.075
 3516TIP3    H110554   1.886   5.327   5.035
 3516TIP3    H210555   1.779   5.330   5.142
 3517TIP3   OH210556   4.753   3.706   3.760
 3517TIP3    H110557   4.835   3.661   3.738
 3517TIP3    H210558   4.775   3.759   3.837
 3518TIP3   OH210559   3.071   0.549   1.207
 3518TIP3    H110560   3.089   0.486   1.276
 3518TIP3    H210561   3.001   0.509   1.155
 3519TIP3   OH210562   0.499   4.221   2.892
 3519TIP3    H110563   0.404   4.222   2.895
 3519TIP3    H210564   0.522   4.261   2.808
 3520TIP3   OH210565   2.849   4.126   4.997
 3520TIP3    H110566   2.780   4.186   4.969
 3520TIP3    H210567   2.825   4.101   5.086
 3521TIP3   OH210568   3.055   1.893   0.538
 3521TIP3    H110569   2.997   1.952   0.490
 3521TIP3    H210570   3.021   1.893   0.627
 3522TIP3   OH210571   0.299   5.624   2.604
 3522TIP3    H110572   0.291   5.534   2.573
 3522TIP3    H210573   0.239   5.674   2.549
 3523TIP3   OH210574   0.067   0.727   2.974
 3523TIP3    H110575   0.040   0.642   2.939
 3523TIP3    H210576   0.145   0.750   2.925
 3524TIP3   OH210577   4.351   5.852   2.970
 3524TIP3    H110578   4.303   5.831   3.050
 3524TIP3    H210579   4.297   5.816   2.900
 3525TIP3   OH210580   4.067   3.083   2.321
 3525TIP3    H110581   4.135   3.119   2.377
 3525TIP3    H210582   4.113   3.021   2.265
 3526TIP3   OH210583   1.006   2.936   0.380
 3526TIP3    H110584   0.928   2.881   0.388
 3526TIP3    H210585   1.066   2.903   0.446
 3527TIP3   OH210586   1.814   0.794   0.017
 3527TIP3    H110587   1.746   0.735  -0.015
 3527TIP3    H210588   1.804   0.793   0.112
 3528TIP3   OH210589   2.945   2.407   3.395
 3528TIP3    H110590   2.951   2.311   3.392
 3528TIP3    H210591   2.946   2.434   3.303
 3529TIP3   OH210592   2.844   0.201   0.660
 3529TIP3    H110593   2.770   0.242   0.705
 3529TIP3    H210594   2.803   0.137   0.601
 3530TIP3   OH210595   2.317   0.985   0.484
 3530TIP3    H110596   2.273   0.960   0.403
 3530TIP3    H210597   2.260   1.052   0.523
 3531TIP3   OH210598   3.565   1.113   1.040
 3531TIP3    H110599   3.511   1.151   1.110
 3531TIP3    H210600   3.524   1.028   1.023
 3532TIP3   OH210601   3.544   3.743   4.743
 3532TIP3    H110602   3.636   3.770   4.738
 3532TIP3    H210603   3.498   3.803   4.685
 3533TIP3   OH210604   4.263   4.222   4.993
 3533TIP3    H110605   4.261   4.237   4.898
 3533TIP3    H210606   4.321   4.147   5.005
 3534TIP3   OH210607   0.203   0.206   4.731
 3534TIP3    H110608   0.205   0.296   4.697
 3534TIP3    H210609   0.268   0.159   4.678
 3535TIP3   OH210610   3.905   2.339   1.208
 3535TIP3    H110611   3.938   2.391   1.134
 3535TIP3    H210612   3.963   2.362   1.280
 3536TIP3   OH210613   1.079   2.769   0.888
 3536TIP3    H110614   1.027   2.848   0.870
 3536TIP3    H210615   1.027   2.697   0.853
 3537TIP3   OH210616   2.773   3.769   3.922
 3537TIP3    H110617   2.740   3.706   3.986
 3537TIP3    H210618   2.742   3.854   3.954
 3538TIP3   OH210619   2.100   1.974   5.179
 3538TIP3    H110620   2.160   2.048   5.171
 3538TIP3    H210621   2.059   1.967   5.092
 3539TIP3   OH210622   6.336   0.646   2.161
 3539TIP3    H110623   6.269   0.653   2.228
 3539TIP3    H210624   6.366   0.555   2.166
 3540TIP3   OH210625   3.830   1.262   5.141
 3540TIP3    H110626   3.895   1.200   5.172
 3540TIP3    H210627   3.763   1.264   5.209
 3541TIP3   OH210628   1.313   2.015   1.586
 3541TIP3    H110629   1.260   2.051   1.658
 3541TIP3    H210630   1.256   2.018   1.510
 3542TIP3   OH210631   2.175   3.485   2.816
 3542TIP3    H110632   2.261   3.468   2.777
 3542TIP3    H210633   2.183   3.572   2.855
 3543TIP3   OH210634   4.225   5.212   2.219
 3543TIP3    H110635   4.134   5.180   2.214
 3543TIP3    H210636   4.268   5.153   2.281
 3544TIP3   OH210637   5.098   3.414   0.919
 3544TIP3    H110638   5.110   3.450   0.832
 3544TIP3    H210639   5.184   3.420   0.960
 3545TIP3   OH210640   2.674   0.916   1.915
 3545TIP3    H110641   2.615   0.983   1.882
 3545TIP3    H210642   2.685   0.937   2.008
 3546TIP3   OH210643   2.519   0.051   3.108
 3546TIP3    H110644   2.427   0.040   3.132
 3546TIP3    H210645   2.530   0.146   3.098
 3547TIP3   OH210646   4.067   4.549   3.551
 3547TIP3    H110647   4.140   4.517   3.604
 3547TIP3    H210648   4.052   4.479   3.487
 3548TIP3   OH210649   3.387   2.966   0.743
 3548TIP3    H110650   3.432   2.975   0.827
 3548TIP3    H210651   3.454   2.984   0.678
 3549TIP3   OH210652   3.423   4.111   0.884
 3549TIP3    H110653   3.347   4.118   0.942
 3549TIP3    H210654   3.422   4.193   0.835
 3550TIP3   OH210655   0.040   4.364   1.111
 3550TIP3    H110656   0.005   4.348   1.023
 3550TIP3    H210657   0.032   4.280   1.155
 3551TIP3   OH210658   3.320   1.314   0.089
 3551TIP3    H110659   3.320   1.382   0.022
 3551TIP3    H210660   3.228   1.290   0.099
 3552TIP3   OH210661   0.259   1.532   1.385
 3552TIP3    H110662   0.308   1.453   1.408
 3552TIP3    H210663   0.323   1.588   1.342
 3553TIP3   OH210664   1.989   5.462   4.955
 3553TIP3    H110665   1.991   5.555   4.979
 3553TIP3    H210666   2.002   5.462   4.860
 3554TIP3   OH210667   3.567   3.847   3.736
 3554TIP3    H110668   3.596   3.891   3.817
 3554TIP3    H210669   3.627   3.879   3.669
 3555TIP3   OH210670   0.222   3.789   1.075
 3555TIP3    H110671   0.188   3.725   1.138
 3555TIP3    H210672   0.171   3.868   1.092
 3556TIP3   OH210673   0.092   0.598   1.890
 3556TIP3    H110674   0.084   0.639   1.976
 3556TIP3    H210675   0.022   0.638   1.838
 3557TIP3   OH210676   0.785   3.835   3.368
 3557TIP3    H110677   0.699   3.858   3.403
 3557TIP3    H210678   0.820   3.773   3.432
 3558TIP3   OH210679   6.256   4.303   0.598
 3558TIP3    H110680   6.326   4.306   0.534
 3558TIP3    H210681   6.206   4.224   0.576
 3559TIP3   OH210682   0.611   5.678   4.503
 3559TIP3    H110683   0.667   5.707   4.574
 3559TIP3    H210684   0.524   5.712   4.525
 3560TIP3   OH210685   5.061   2.494   0.116
 3560TIP3    H110686   5.031   2.531   0.033
 3560TIP3    H210687   5.033   2.557   0.182
 3561TIP3   OH210688   4.053   5.774   4.742
 3561TIP3    H110689   4.016   5.857   4.711
 3561TIP3    H210690   3.988   5.708   4.717
 3562TIP3   OH210691   4.986   0.214   2.087
 3562TIP3    H110692   4.989   0.124   2.054
 3562TIP3    H210693   5.077   0.244   2.080
 3563TIP3   OH210694   1.717   1.954   1.166
 3563TIP3    H110695   1.638   1.950   1.220
 3563TIP3    H210696   1.726   2.047   1.144
 3564TIP3   OH210697   4.035   0.453   1.558
 3564TIP3    H110698   4.041   0.392   1.631
 3564TIP3    H210699   3.945   0.446   1.527
 3565TIP3   OH210700   5.770   5.497   3.105
 3565TIP3    H110701   5.674   5.499   3.098
 3565TIP3    H210702   5.801   5.553   3.034
 3566TIP3   OH210703   3.513   3.609   1.732
 3566TIP3    H110704   3.467   3.624   1.650
 3566TIP3    H210705   3.512   3.693   1.777
 3567TIP3   OH210706   1.955   5.611   1.386
 3567TIP3    H110707   2.037   5.660   1.387
 3567TIP3    H210708   1.887   5.678   1.388
 3568TIP3   OH210709   2.686   0.049   4.853
 3568TIP3    H110710   2.670   0.055   4.759
 3568TIP3    H210711   2.697   0.140   4.881
 3569TIP3   OH210712   5.759   2.744   0.978
 3569TIP3    H110713   5.775   2.739   1.072
 3569TIP3    H210714   5.836   2.788   0.942
 3570TIP3   OH210715   4.157   3.458   0.895
 3570TIP3    H110716   4.213   3.535   0.899
 3570TIP3    H210717   4.116   3.453   0.981
 3571TIP3   OH210718   1.274   2.077   4.093
 3571TIP3    H110719   1.262   1.983   4.106
 3571TIP3    H210720   1.216   2.117   4.159
 3572TIP3   OH210721   1.777   1.425   0.354
 3572TIP3    H110722   1.773   1.400   0.262
 3572TIP3    H210723   1.686   1.436   0.381
 3573TIP3   OH210724   5.422   2.420   4.781
 3573TIP3    H110725   5.374   2.477   4.721
 3573TIP3    H210726   5.364   2.345   4.793
 3574TIP3   OH210727   1.264   2.826   4.785
 3574TIP3    H110728   1.192   2.877   4.822
 3574TIP3    H210729   1.343   2.869   4.815
 3575TIP3   OH210730   2.225   1.129   4.825
 3575TIP3    H110731   2.300   1.187   4.812
 3575TIP3    H210732   2.233   1.100   4.916
 3576TIP3   OH210733   1.980   1.465   1.171
 3576TIP3    H110734   1.907   1.505   1.123
 3576TIP3    H210735   2.033   1.423   1.103
 3577TIP3   OH210736   1.323   0.444   1.678
 3577TIP3    H110737   1.293   0.483   1.760
 3577TIP3    H210738   1.250   0.389   1.649
 3578TIP3   OH210739   1.135   2.573   3.120
 3578TIP3    H110740   1.208   2.519   3.149
 3578TIP3    H210741   1.096   2.525   3.047
 3579TIP3   OH210742   3.067   1.008   5.073
 3579TIP3    H110743   2.993   1.067   5.059
 3579TIP3    H210744   3.109   1.001   4.987
 3580TIP3   OH210745   5.330   0.109   4.663
 3580TIP3    H110746   5.397   0.083   4.600
 3580TIP3    H210747   5.350   0.201   4.682
 3581TIP3   OH210748   0.024   5.833   2.121
 3581TIP3    H110749   0.036   5.919   2.162
 3581TIP3    H210750   0.065   5.842   2.035
 3582TIP3   OH210751   4.779   4.820   1.119
 3582TIP3    H110752   4.784   4.729   1.092
 3582TIP3    H210753   4.857   4.861   1.080
 3583TIP3   OH210754   2.419   2.592   3.385
 3583TIP3    H110755   2.434   2.522   3.449
 3583TIP3    H210756   2.428   2.549   3.300
 3584TIP3   OH210757   3.225   5.333   1.860
 3584TIP3    H110758   3.255   5.402   1.919
 3584TIP3    H210759   3.268   5.254   1.893
 3585TIP3   OH210760   0.113   1.588   1.675
 3585TIP3    H110761   0.052   1.634   1.618
 3585TIP3    H210762   0.089   1.495   1.666
 3586TIP3   OH210763   5.174   0.925   1.606
 3586TIP3    H110764   5.082   0.950   1.604
 3586TIP3    H210765   5.183   0.866   1.531
 3587TIP3   OH210766   2.671   3.667   1.008
 3587TIP3    H110767   2.638   3.586   1.048
 3587TIP3    H210768   2.626   3.737   1.055
 3588TIP3   OH210769   2.345   2.580   0.301
 3588TIP3    H110770   2.363   2.663   0.258
 3588TIP3    H210771   2.318   2.521   0.230
 3589TIP3   OH210772   5.499   3.949   0.067
 3589TIP3    H110773   5.594   3.956   0.054
 3589TIP3    H210774   5.463   4.026   0.022
 3590TIP3   OH210775   4.862   0.043   4.955
 3590TIP3    H110776   4.796  -0.026   4.965
 3590TIP3    H210777   4.812   0.119   4.922
 3591TIP3   OH210778   2.351   5.660   0.543
 3591TIP3    H110779   2.400   5.646   0.624
 3591TIP3    H210780   2.418   5.660   0.474
 3592TIP3   OH210781   3.106   3.706   4.817
 3592TIP3    H110782   3.097   3.779   4.879
 3592TIP3    H210783   3.054   3.635   4.857
 3593TIP3   OH210784   2.091   5.788   3.201
 3593TIP3    H110785   2.105   5.782   3.295
 3593TIP3    H210786   2.089   5.882   3.182
 3594TIP3   OH210787   3.432   4.070   1.703
 3594TIP3    H110788   3.376   4.062   1.627
 3594TIP3    H210789   3.391   4.138   1.757
 3595TIP3   OH210790   3.342   4.715   1.159
 3595TIP3    H110791   3.344   4.623   1.133
 3595TIP3    H210792   3.390   4.760   1.090
 3596TIP3   OH210793   6.142   5.153   4.378
 3596TIP3    H110794   6.203   5.150   4.452
 3596TIP3    H210795   6.131   5.061   4.352
 3597TIP3   OH210796   2.122   1.917   0.611
 3597TIP3    H110797   2.213   1.943   0.601
 3597TIP3    H210798   2.126   1.831   0.653
 3598TIP3   OH210799   2.903   1.607   1.870
 3598TIP3    H110800   2.843   1.620   1.944
 3598TIP3    H210801   2.989   1.599   1.910
 3599TIP3   OH210802   2.286   5.117   2.978
 3599TIP3    H110803   2.193   5.134   2.965
 3599TIP3    H210804   2.289   5.034   3.026
 3600TIP3   OH210805   0.232   1.775   2.535
 3600TIP3    H110806   0.214   1.822   2.453
 3600TIP3    H210807   0.277   1.840   2.590
 3601TIP3   OH210808   5.351   2.610   4.118
 3601TIP3    H110809   5.402   2.688   4.139
 3601TIP3    H210810   5.300   2.592   4.197
 3602TIP3   OH210811   3.602   3.227   4.443
 3602TIP3    H110812   3.684   3.205   4.488
 3602TIP3    H210813   3.549   3.148   4.450
 3603TIP3   OH210814   0.874   0.349   0.375
 3603TIP3    H110815   0.882   0.256   0.393
 3603TIP3    H210816   0.779   0.365   0.372
 3604TIP3   OH210817   6.035   0.288   2.358
 3604TIP3    H110818   6.079   0.207   2.329
 3604TIP3    H210819   5.944   0.276   2.334
 3605TIP3   OH210820   5.269   2.652   0.026
 3605TIP3    H110821   5.264   2.618  -0.063
 3605TIP3    H210822   5.247   2.578   0.081
 3606TIP3   OH210823   1.010   4.784   2.577
 3606TIP3    H110824   1.087   4.822   2.536
 3606TIP3    H210825   0.979   4.850   2.639
 3607TIP3   OH210826   2.791   4.902   4.411
 3607TIP3    H110827   2.811   4.819   4.367
 3607TIP3    H210828   2.877   4.941   4.428
 3608TIP3   OH210829   2.000   4.092   4.579
 3608TIP3    H110830   2.009   4.161   4.514
 3608TIP3    H210831   2.052   4.019   4.545
 3609TIP3   OH210832   6.156   5.754   3.302
 3609TIP3    H110833   6.081   5.695   3.292
 3609TIP3    H210834   6.129   5.816   3.370
 3610TIP3   OH210835   3.521   2.266   1.455
 3610TIP3    H110836   3.595   2.216   1.419
 3610TIP3    H210837   3.546   2.358   1.443
 3611TIP3   OH210838   0.211   5.866   0.398
 3611TIP3    H110839   0.258   5.929   0.453
 3611TIP3    H210840   0.252   5.872   0.312
 3612TIP3   OH210841   5.075   2.137   3.170
 3612TIP3    H110842   4.999   2.119   3.224
 3612TIP3    H210843   5.141   2.074   3.199
 3613TIP3   OH210844   3.722   5.348   2.304
 3613TIP3    H110845   3.715   5.385   2.392
 3613TIP3    H210846   3.635   5.362   2.265
 3614TIP3   OH210847   3.443   4.201   0.362
 3614TIP3    H110848   3.535   4.226   0.371
 3614TIP3    H210849   3.417   4.235   0.276
 3615TIP3   OH210850   3.238   5.685   2.277
 3615TIP3    H110851   3.189   5.687   2.194
 3615TIP3    H210852   3.176   5.719   2.342
 3616TIP3   OH210853   1.648   4.757   4.090
 3616TIP3    H110854   1.562   4.796   4.105
 3616TIP3    H210855   1.707   4.831   4.076
 3617TIP3   OH210856   0.263   1.721   0.223
 3617TIP3    H110857   0.170   1.739   0.236
 3617TIP3    H210858   0.304   1.807   0.221
 3618TIP3   OH210859   1.891   3.252   3.119
 3618TIP3    H110860   1.965   3.203   3.157
 3618TIP3    H210861   1.922   3.342   3.116
 3619TIP3   OH210862   0.723   0.541   4.160
 3619TIP3    H110863   0.816   0.559   4.170
 3619TIP3    H210864   0.691   0.529   4.249
 3620TIP3   OH210865   0.558   2.192   4.784
 3620TIP3    H110866   0.596   2.230   4.704
 3620TIP3    H210867   0.483   2.142   4.752
 3621TIP3   OH210868   2.530   0.905   3.244
 3621TIP3    H110869   2.525   0.971   3.313
 3621TIP3    H210870   2.457   0.846   3.262
 3622TIP3   OH210871   0.752   1.284   0.850
 3622TIP3    H110872   0.808   1.219   0.893
 3622TIP3    H210873   0.809   1.325   0.785
 3623TIP3   OH210874   4.452   0.392   1.361
 3623TIP3    H110875   4.396   0.445   1.305
 3623TIP3    H210876   4.423   0.411   1.450
 3624TIP3   OH210877   4.993   2.329   1.508
 3624TIP3    H110878   4.939   2.303   1.583
 3624TIP3    H210879   5.040   2.406   1.538
 3625TIP3   OH210880   0.993   4.683   1.767
 3625TIP3    H110881   0.917   4.629   1.743
 3625TIP3    H210882   0.955   4.766   1.795
 3626TIP3   OH210883   5.661   2.366   4.412
 3626TIP3    H110884   5.636   2.452   4.444
 3626TIP3    H210885   5.648   2.370   4.317
 3627TIP3   OH210886   3.489   0.045   0.073
 3627TIP3    H110887   3.435   0.002   0.007
 3627TIP3    H210888   3.481   0.139   0.053
 3628TIP3   OH210889   0.373   1.766   3.274
 3628TIP3    H110890   0.449   1.720   3.310
 3628TIP3    H210891   0.389   1.768   3.179
 3629TIP3   OH210892   2.856   3.382   0.926
 3629TIP3    H110893   2.918   3.454   0.938
 3629TIP3    H210894   2.883   3.342   0.844
 3630TIP3   OH210895   0.754   1.522   5.000
 3630TIP3    H110896   0.723   1.563   4.920
 3630TIP3    H210897   0.697   1.446   5.012
 3631TIP3   OH210898   3.048   4.717   4.731
 3631TIP3    H110899   3.124   4.684   4.779
 3631TIP3    H210900   2.973   4.675   4.774
 3632TIP3   OH210901   3.889   0.750   0.415
 3632TIP3    H110902   3.818   0.686   0.415
 3632TIP3    H210903   3.957   0.710   0.469
 3633TIP3   OH210904   1.424   3.881   1.643
 3633TIP3    H110905   1.458   3.955   1.594
 3633TIP3    H210906   1.467   3.886   1.729
 3634TIP3   OH210907   6.081   5.416   1.307
 3634TIP3    H110908   5.988   5.392   1.307
 3634TIP3    H210909   6.094   5.459   1.391
 3635TIP3   OH210910   5.159   4.965   1.003
 3635TIP3    H110911   5.174   5.040   0.946
 3635TIP3    H210912   5.129   5.003   1.086
 3636TIP3   OH210913   0.567   4.099   3.137
 3636TIP3    H110914   0.523   4.157   3.074
 3636TIP3    H210915   0.585   4.155   3.212
 3637TIP3   OH210916   5.858   3.385   4.625
 3637TIP3    H110917   5.892   3.314   4.571
 3637TIP3    H210918   5.867   3.463   4.571
 3638TIP3   OH210919   2.098   0.412   1.086
 3638TIP3    H110920   2.190   0.387   1.084
 3638TIP3    H210921   2.081   0.450   0.999
 3639TIP3   OH210922   0.625   3.762   4.485
 3639TIP3    H110923   0.659   3.702   4.550
 3639TIP3    H210924   0.702   3.809   4.452
 3640TIP3   OH210925   3.944   2.125   0.954
 3640TIP3    H110926   3.857   2.163   0.953
 3640TIP3    H210927   3.965   2.110   0.862
 3641TIP3   OH210928   6.033   1.718   0.189
 3641TIP3    H110929   6.002   1.740   0.277
 3641TIP3    H210930   5.996   1.786   0.133
 3642TIP3   OH210931   1.493   4.652   1.910
 3642TIP3    H110932   1.453   4.586   1.967
 3642TIP3    H210933   1.421   4.684   1.856
 3643TIP3   OH210934   2.248   5.530   3.402
 3643TIP3    H110935   2.209   5.610   3.438
 3643TIP3    H210936   2.199   5.513   3.322
 3644TIP3   OH210937   0.617   2.225   3.402
 3644TIP3    H110938   0.628   2.314   3.370
 3644TIP3    H210939   0.524   2.219   3.425
 3645TIP3   OH210940   2.146   5.172   3.714
 3645TIP3    H110941   2.194   5.255   3.717
 3645TIP3    H210942   2.158   5.135   3.801
 3646TIP3   OH210943   3.281   5.778   0.259
 3646TIP3    H110944   3.316   5.714   0.320
 3646TIP3    H210945   3.359   5.819   0.220
 3647TIP3   OH210946   0.284   0.570   4.944
 3647TIP3    H110947   0.280   0.568   5.039
 3647TIP3    H210948   0.227   0.498   4.916
 3648TIP3   OH210949   6.306   5.317   1.810
 3648TIP3    H110950   6.238   5.322   1.877
 3648TIP3    H210951   6.266   5.267   1.739
 3649TIP3   OH210952   1.227   0.432   2.876
 3649TIP3    H110953   1.315   0.429   2.839
 3649TIP3    H210954   1.229   0.504   2.938
 3650TIP3   OH210955   5.726   1.847   4.007
 3650TIP3    H110956   5.816   1.819   4.022
 3650TIP3    H210957   5.730   1.942   4.004
 3651TIP3   OH210958   4.516   4.209   0.037
 3651TIP3    H110959   4.443   4.269   0.053
 3651TIP3    H210960   4.479   4.142  -0.021
 3652TIP3   OH210961   1.802   3.362   3.822
 3652TIP3    H110962   1.863   3.316   3.880
 3652TIP3    H210963   1.732   3.299   3.807
 3653TIP3   OH210964   2.029   2.473   0.693
 3653TIP3    H110965   2.096   2.526   0.651
 3653TIP3    H210966   2.073   2.390   0.714
 3654TIP3   OH210967   1.300   2.125   4.732
 3654TIP3    H110968   1.317   2.038   4.768
 3654TIP3    H210969   1.385   2.170   4.739
 3655TIP3   OH210970   2.957   4.309   2.040
 3655TIP3    H110971   2.986   4.233   1.991
 3655TIP3    H210972   3.006   4.382   2.004
 3656TIP3   OH210973   2.903   0.358   3.792
 3656TIP3    H110974   2.874   0.437   3.837
 3656TIP3    H210975   2.993   0.378   3.765
 3657TIP3   OH210976   3.243   4.237   0.072
 3657TIP3    H110977   3.184   4.304   0.038
 3657TIP3    H210978   3.320   4.285   0.103
 3658TIP3   OH210979   5.190   3.660   4.168
 3658TIP3    H110980   5.144   3.612   4.099
 3658TIP3    H210981   5.249   3.719   4.122
 3659TIP3   OH210982   3.806   2.910   4.085
 3659TIP3    H110983   3.772   2.994   4.117
 3659TIP3    H210984   3.855   2.932   4.006
 3660TIP3   OH210985   1.957   2.241   3.349
 3660TIP3    H110986   2.045   2.229   3.383
 3660TIP3    H210987   1.901   2.188   3.406
 3661TIP3   OH210988   5.137   2.981   3.888
 3661TIP3    H110989   5.078   2.914   3.920
 3661TIP3    H210990   5.196   2.934   3.829
 3662TIP3   OH210991   1.244   1.913   3.764
 3662TIP3    H110992   1.252   1.931   3.670
 3662TIP3    H210993   1.297   1.981   3.805
 3663TIP3   OH210994   3.628   5.051   1.006
 3663TIP3    H110995   3.689   5.047   1.079
 3663TIP3    H210996   3.660   5.124   0.953
 3664TIP3   OH210997   3.793   2.753   1.655
 3664TIP3    H110998   3.803   2.693   1.729
 3664TIP3    H210999   3.871   2.738   1.601
 3665TIP3   OH211000   4.673   3.299   1.616
 3665TIP3    H111001   4.735   3.287   1.545
 3665TIP3    H211002   4.590   3.321   1.573
 3666TIP3   OH211003   1.201   1.522   0.822
 3666TIP3    H111004   1.157   1.589   0.875
 3666TIP3    H211005   1.246   1.467   0.886
 3667TIP3   OH211006   1.943   1.879   3.614
 3667TIP3    H111007   1.918   1.815   3.547
 3667TIP3    H211008   1.888   1.956   3.596
 3668TIP3   OH211009   1.830   5.999   4.727
 3668TIP3    H111010   1.814   5.906   4.714
 3668TIP3    H211011   1.887   6.004   4.803
 3669TIP3   OH211012   6.211   3.928   1.875
 3669TIP3    H111013   6.146   3.963   1.813
 3669TIP3    H211014   6.284   3.902   1.820
 3670TIP3   OH211015   4.523   5.719   0.872
 3670TIP3    H111016   4.521   5.634   0.829
 3670TIP3    H211017   4.509   5.782   0.801
 3671TIP3   OH211018   6.331   3.219   0.630
 3671TIP3    H111019   6.407   3.222   0.571
 3671TIP3    H211020   6.256   3.205   0.572
 3672TIP3   OH211021   2.012   3.962   4.231
 3672TIP3    H111022   2.068   3.930   4.301
 3672TIP3    H211023   1.924   3.931   4.254
 3673TIP3   OH211024   0.152   4.999   4.055
 3673TIP3    H111025   0.097   5.073   4.026
 3673TIP3    H211026   0.173   5.020   4.146
 3674TIP3   OH211027   4.701   1.929   1.044
 3674TIP3    H111028   4.631   1.916   1.107
 3674TIP3    H211029   4.781   1.930   1.096
 3675TIP3   OH211030   5.841   2.279   3.074
 3675TIP3    H111031   5.889   2.297   2.993
 3675TIP3    H211032   5.905   2.295   3.143
 3676TIP3   OH211033   0.905   0.640   3.781
 3676TIP3    H111034   0.857   0.667   3.703
 3676TIP3    H211035   0.955   0.718   3.806
 3677TIP3   OH211036   0.673   5.090   0.548
 3677TIP3    H111037   0.708   5.136   0.625
 3677TIP3    H211038   0.621   5.157   0.503
 3678TIP3   OH211039   0.891   1.602   0.955
 3678TIP3    H111040   0.865   1.515   0.926
 3678TIP3    H211041   0.935   1.588   1.039
 3679TIP3   OH211042   0.261   3.142   1.145
 3679TIP3    H111043   0.329   3.101   1.198
 3679TIP3    H211044   0.289   3.233   1.135
 3680TIP3   OH211045   3.514   5.782   4.511
 3680TIP3    H111046   3.443   5.841   4.486
 3680TIP3    H211047   3.486   5.743   4.594
 3681TIP3   OH211048   0.587   1.066   1.608
 3681TIP3    H111049   0.565   1.154   1.580
 3681TIP3    H211050   0.510   1.035   1.654
 3682TIP3   OH211051   3.150   3.453   0.979
 3682TIP3    H111052   3.148   3.394   1.054
 3682TIP3    H211053   3.191   3.533   1.012
 3683TIP3   OH211054   1.617   0.619   3.003
 3683TIP3    H111055   1.533   0.583   2.974
 3683TIP3    H211056   1.680   0.548   2.988
 3684TIP3   OH211057   4.345   2.573   2.012
 3684TIP3    H111058   4.261   2.534   2.035
 3684TIP3    H211059   4.332   2.668   2.022
 3685TIP3   OH211060   0.580   4.872   3.654
 3685TIP3    H111061   0.598   4.814   3.728
 3685TIP3    H211062   0.485   4.880   3.652
 3686TIP3   OH211063   5.581   5.149   2.453
 3686TIP3    H111064   5.498   5.189   2.479
 3686TIP3    H211065   5.647   5.212   2.481
 3687TIP3   OH211066   2.633   5.569   2.170
 3687TIP3    H111067   2.593   5.628   2.234
 3687TIP3    H211068   2.680   5.504   2.223
 3688TIP3   OH211069   1.762   4.649   1.479
 3688TIP3    H111070   1.725   4.600   1.552
 3688TIP3    H211071   1.693   4.651   1.413
 3689TIP3   OH211072   3.895   3.823   4.362
 3689TIP3    H111073   3.862   3.751   4.308
 3689TIP3    H211074   3.908   3.785   4.449
 3690TIP3   OH211075   4.561   2.141   4.766
 3690TIP3    H111076   4.607   2.082   4.706
 3690TIP3    H211077   4.629   2.199   4.801
 3691TIP3   OH211078   5.404   0.590   0.768
 3691TIP3    H111079   5.310   0.574   0.766
 3691TIP3    H211080   5.417   0.663   0.707
 3692TIP3   OH211081   2.017   3.242   0.738
 3692TIP3    H111082   1.983   3.153   0.745
 3692TIP3    H211083   2.089   3.235   0.676
 3693TIP3   OH211084   1.788   1.715   0.662
 3693TIP3    H111085   1.838   1.648   0.709
 3693TIP3    H211086   1.766   1.780   0.728
 3694TIP3   OH211087   0.336   2.323   3.508
 3694TIP3    H111088   0.419   2.342   3.552
 3694TIP3    H211089   0.313   2.404   3.463
 3695TIP3   OH211090   2.189   2.425   5.071
 3695TIP3    H111091   2.267   2.403   5.123
 3695TIP3    H211092   2.123   2.448   5.137
 3696TIP3   OH211093   5.026   2.890   4.519
 3696TIP3    H111094   4.951   2.944   4.497
 3696TIP3    H211095   5.010   2.806   4.475
 3697TIP3   OH211096   0.151   2.612   2.915
 3697TIP3    H111097   0.167   2.652   2.829
 3697TIP3    H211098   0.061   2.581   2.911
 3698TIP3   OH211099   4.595   0.626   1.677
 3698TIP3    H111100   4.645   0.545   1.686
 3698TIP3    H211101   4.566   0.627   1.586
 3699TIP3   OH211102   2.671   5.730   0.714
 3699TIP3    H111103   2.585   5.718   0.754
 3699TIP3    H211104   2.727   5.762   0.785
 3700TIP3   OH211105   3.278   4.588   4.842
 3700TIP3    H111106   3.312   4.637   4.917
 3700TIP3    H211107   3.333   4.510   4.838
 3701TIP3   OH211108   5.091   0.069   0.236
 3701TIP3    H111109   5.036  -0.004   0.207
 3701TIP3    H211110   5.149   0.086   0.161
 3702TIP3   OH211111   2.520   3.150   3.399
 3702TIP3    H111112   2.516   3.056   3.416
 3702TIP3    H211113   2.443   3.185   3.444
 3703TIP3   OH211114   5.678   0.078   2.031
 3703TIP3    H111115   5.620   0.126   2.090
 3703TIP3    H211116   5.631   0.077   1.947
 3704TIP3   OH211117   2.236   1.450   4.195
 3704TIP3    H111118   2.263   1.541   4.183
 3704TIP3    H211119   2.316   1.400   4.182
 3705TIP3   OH211120   2.092   2.971   3.138
 3705TIP3    H111121   2.009   2.952   3.181
 3705TIP3    H211122   2.157   2.919   3.185
 3706TIP3   OH211123   5.331   3.256   1.876
 3706TIP3    H111124   5.306   3.205   1.954
 3706TIP3    H211125   5.254   3.311   1.859
 3707TIP3   OH211126   1.977   1.684   4.179
 3707TIP3    H111127   1.942   1.768   4.149
 3707TIP3    H211128   1.906   1.644   4.228
 3708TIP3   OH211129   3.984   5.327   1.948
 3708TIP3    H111130   4.035   5.280   1.882
 3708TIP3    H211131   4.006   5.419   1.933
 3709TIP3   OH211132   6.048   5.249   1.903
 3709TIP3    H111133   5.978   5.186   1.886
 3709TIP3    H211134   6.003   5.328   1.931
 3710TIP3   OH211135   2.905   0.824   1.737
 3710TIP3    H111136   2.840   0.881   1.777
 3710TIP3    H211137   2.989   0.868   1.753
 3711TIP3   OH211138   5.300   4.262   4.789
 3711TIP3    H111139   5.332   4.202   4.720
 3711TIP3    H211140   5.355   4.242   4.865
 3712TIP3   OH211141   2.059   5.394   0.998
 3712TIP3    H111142   2.149   5.367   0.982
 3712TIP3    H211143   2.047   5.385   1.092
 3713TIP3   OH211144   5.730   1.575   2.660
 3713TIP3    H111145   5.777   1.600   2.581
 3713TIP3    H211146   5.789   1.601   2.731
 3714TIP3   OH211147   4.932   4.215   2.013
 3714TIP3    H111148   4.930   4.140   2.072
 3714TIP3    H211149   4.892   4.286   2.063
 3715TIP3   OH211150   6.137   5.183   3.863
 3715TIP3    H111151   6.126   5.105   3.917
 3715TIP3    H211152   6.128   5.151   3.773
 3716TIP3   OH211153   3.404   1.058   0.168
 3716TIP3    H111154   3.496   1.081   0.160
 3716TIP3    H211155   3.357   1.138   0.145
 3717TIP3   OH211156   5.377   3.815   4.039
 3717TIP3    H111157   5.355   3.902   4.073
 3717TIP3    H211158   5.406   3.830   3.949
 3718TIP3   OH211159   3.775   2.202   2.525
 3718TIP3    H111160   3.758   2.108   2.522
 3718TIP3    H211161   3.815   2.217   2.610
 3719TIP3   OH211162   2.822   0.418   1.133
 3719TIP3    H111163   2.767   0.493   1.157
 3719TIP3    H211164   2.828   0.423   1.037
 3720TIP3   OH211165   5.185   1.050   3.488
 3720TIP3    H111166   5.147   0.962   3.488
 3720TIP3    H211167   5.134   1.098   3.424
 3721TIP3   OH211168   5.613   4.991   2.745
 3721TIP3    H111169   5.626   4.960   2.835
 3721TIP3    H211170   5.695   4.970   2.700
 3722TIP3   OH211171   4.063   3.565   3.314
 3722TIP3    H111172   4.113   3.557   3.395
 3722TIP3    H211173   3.979   3.601   3.341
 3723TIP3   OH211174   6.185   1.035   3.165
 3723TIP3    H111175   6.173   0.941   3.161
 3723TIP3    H211176   6.240   1.056   3.089
 3724TIP3   OH211177   6.129   0.138   1.889
 3724TIP3    H111178   6.210   0.188   1.891
 3724TIP3    H211179   6.067   0.190   1.940
 3725TIP3   OH211180   3.025   5.365   4.338
 3725TIP3    H111181   3.082   5.420   4.393
 3725TIP3    H211182   3.003   5.291   4.394
 3726TIP3   OH211183   2.298   4.507   4.300
 3726TIP3    H111184   2.378   4.492   4.350
 3726TIP3    H211185   2.247   4.567   4.354
 3727TIP3   OH211186   5.286   5.860   4.754
 3727TIP3    H111187   5.343   5.833   4.681
 3727TIP3    H211188   5.227   5.786   4.766
 3728TIP3   OH211189   0.231   5.037   3.016
 3728TIP3    H111190   0.183   5.015   2.936
 3728TIP3    H211191   0.313   4.988   3.009
 3729TIP3   OH211192   1.634   0.381   4.590
 3729TIP3    H111193   1.686   0.400   4.669
 3729TIP3    H211194   1.693   0.399   4.517
 3730TIP3   OH211195   3.353   5.429   3.701
 3730TIP3    H111196   3.262   5.429   3.672
 3730TIP3    H211197   3.352   5.473   3.786
 3731TIP3   OH211198   5.332   5.770   0.188
 3731TIP3    H111199   5.254   5.817   0.159
 3731TIP3    H211200   5.405   5.818   0.150
 3732TIP3   OH211201   0.666   2.762   1.792
 3732TIP3    H111202   0.695   2.686   1.742
 3732TIP3    H211203   0.575   2.774   1.766
 3733TIP3   OH211204   5.703   4.293   5.102
 3733TIP3    H111205   5.652   4.352   5.158
 3733TIP3    H211206   5.762   4.248   5.163
 3734TIP3   OH211207   0.075   5.610   3.375
 3734TIP3    H111208   0.036   5.697   3.388
 3734TIP3    H211209   0.002   5.555   3.348
 3735TIP3   OH211210   5.047   1.252   1.756
 3735TIP3    H111211   5.005   1.171   1.786
 3735TIP3    H211212   4.976   1.317   1.756
 3736TIP3   OH211213   5.819   1.097   4.024
 3736TIP3    H111214   5.861   1.074   4.107
 3736TIP3    H211215   5.856   1.035   3.961
 3737TIP3   OH211216   5.928   1.869   4.989
 3737TIP3    H111217   5.934   1.794   5.049
 3737TIP3    H211218   6.008   1.864   4.937
 3738TIP3   OH211219   5.101   4.088   2.495
 3738TIP3    H111220   5.188   4.059   2.525
 3738TIP3    H211221   5.039   4.037   2.548
 3739TIP3   OH211222   0.177   4.599   1.837
 3739TIP3    H111223   0.117   4.576   1.908
 3739TIP3    H211224   0.166   4.530   1.772
 3740TIP3   OH211225   2.265   1.858   3.966
 3740TIP3    H111226   2.307   1.935   4.006
 3740TIP3    H211227   2.238   1.888   3.879
 3741TIP3   OH211228   3.485   2.689   1.094
 3741TIP3    H111229   3.421   2.700   1.025
 3741TIP3    H211230   3.531   2.608   1.072
 3742TIP3   OH211231   5.087   0.631   2.983
 3742TIP3    H111232   4.993   0.646   2.988
 3742TIP3    H211233   5.124   0.719   2.970
 3743TIP3   OH211234   1.758   4.756   4.386
 3743TIP3    H111235   1.824   4.774   4.318
 3743TIP3    H211236   1.774   4.823   4.453
 3744TIP3   OH211237   1.638   4.131   3.023
 3744TIP3    H111238   1.552   4.149   3.061
 3744TIP3    H211239   1.658   4.208   2.970
 3745TIP3   OH211240   1.455   1.630   3.436
 3745TIP3    H111241   1.369   1.615   3.397
 3745TIP3    H211242   1.453   1.581   3.519
 3746TIP3   OH211243   2.152   3.649   0.783
 3746TIP3    H111244   2.215   3.648   0.855
 3746TIP3    H211245   2.085   3.711   0.811
 3747TIP3   OH211246   0.074   5.848   3.904
 3747TIP3    H111247   0.118   5.764   3.889
 3747TIP3    H211248   0.114   5.907   3.841
 3748TIP3   OH211249   1.956   3.993   1.269
 3748TIP3    H111250   1.887   3.927   1.261
 3748TIP3    H211251   2.036   3.946   1.244
 3749TIP3   OH211252   5.328   4.533   1.825
 3749TIP3    H111253   5.358   4.616   1.860
 3749TIP3    H211254   5.232   4.537   1.832
 3750TIP3   OH211255   1.785   0.441   2.291
 3750TIP3    H111256   1.880   0.436   2.292
 3750TIP3    H211257   1.765   0.510   2.229
 3751TIP3   OH211258   5.197   2.978   1.214
 3751TIP3    H111259   5.265   3.011   1.156
 3751TIP3    H211260   5.162   2.901   1.170
 3752TIP3   OH211261   0.206   0.898   0.932
 3752TIP3    H111262   0.169   0.814   0.963
 3752TIP3    H211263   0.296   0.878   0.909
 3753TIP3   OH211264   3.293   4.554   3.515
 3753TIP3    H111265   3.227   4.603   3.564
 3753TIP3    H211266   3.308   4.607   3.437
 3754TIP3   OH211267   4.309   0.476   3.730
 3754TIP3    H111268   4.281   0.563   3.701
 3754TIP3    H211269   4.237   0.445   3.784
 3755TIP3   OH211270   1.695   0.251   1.923
 3755TIP3    H111271   1.757   0.200   1.975
 3755TIP3    H211272   1.750   0.300   1.862
 3756TIP3   OH211273   5.054   0.870   0.371
 3756TIP3    H111274   4.961   0.881   0.391
 3756TIP3    H211275   5.091   0.831   0.451
 3757TIP3   OH211276   1.900   0.387   0.682
 3757TIP3    H111277   1.951   0.422   0.609
 3757TIP3    H211278   1.851   0.314   0.644
 3758TIP3   OH211279   2.508   3.296   2.035
 3758TIP3    H111280   2.463   3.238   2.097
 3758TIP3    H211281   2.527   3.375   2.086
 3759TIP3   OH211282   4.365   2.442   2.941
 3759TIP3    H111283   4.311   2.437   3.020
 3759TIP3    H211284   4.442   2.388   2.961
 3760TIP3   OH211285   4.952   1.931   1.593
 3760TIP3    H111286   4.998   1.866   1.645
 3760TIP3    H211287   4.866   1.940   1.634
 3761TIP3   OH211288   3.890   1.587   1.742
 3761TIP3    H111289   3.890   1.641   1.822
 3761TIP3    H211290   3.970   1.612   1.697
 3762TIP3   OH211291   0.949   2.643   3.352
 3762TIP3    H111292   0.996   2.614   3.273
 3762TIP3    H211293   0.860   2.660   3.323
 3763TIP3   OH211294   4.580   0.236   2.020
 3763TIP3    H111295   4.634   0.286   2.081
 3763TIP3    H211296   4.490   0.247   2.052
 3764TIP3   OH211297   0.016   1.369   3.086
 3764TIP3    H111298   0.061   1.302   3.035
 3764TIP3    H211299  -0.061   1.391   3.035
 3765TIP3   OH211300   4.459   3.301   4.785
 3765TIP3    H111301   4.429   3.390   4.807
 3765TIP3    H211302   4.412   3.245   4.846
 3766TIP3   OH211303   2.298   4.947   1.771
 3766TIP3    H111304   2.279   4.911   1.858
 3766TIP3    H211305   2.378   4.999   1.783
 3767TIP3   OH211306   0.001   1.572   0.642
 3767TIP3    H111307  -0.011   1.666   0.651
 3767TIP3    H211308   0.090   1.562   0.607
 3768TIP3   OH211309   1.412   4.449   2.072
 3768TIP3    H111310   1.346   4.443   2.141
 3768TIP3    H211311   1.492   4.417   2.113
 3769TIP3   OH211312   5.774   2.506   0.837
 3769TIP3    H111313   5.867   2.526   0.847
 3769TIP3    H211314   5.730   2.565   0.898
 3770TIP3   OH211315   0.699   4.955   1.675
 3770TIP3    H111316   0.713   5.030   1.618
 3770TIP3    H211317   0.754   4.886   1.639
 3771TIP3   OH211318   5.008   0.295   0.337
 3771TIP3    H111319   5.018   0.200   0.327
 3771TIP3    H211320   5.086   0.332   0.297
 3772TIP3   OH211321   1.076   1.106   0.511
 3772TIP3    H111322   1.149   1.046   0.498
 3772TIP3    H211323   1.000   1.058   0.478
 3773TIP3   OH211324   3.114   4.137   4.203
 3773TIP3    H111325   3.023   4.142   4.229
 3773TIP3    H211326   3.113   4.088   4.120
 3774TIP3   OH211327   2.627   5.701   4.369
 3774TIP3    H111328   2.540   5.665   4.353
 3774TIP3    H211329   2.613   5.796   4.374
 3775TIP3   OH211330   3.893   3.537   4.145
 3775TIP3    H111331   3.815   3.582   4.113
 3775TIP3    H211332   3.964   3.598   4.128
 3776TIP3   OH211333   4.491   5.916   5.077
 3776TIP3    H111334   4.407   5.948   5.043
 3776TIP3    H211335   4.551   5.922   5.002
 3777TIP3   OH211336   5.287   1.322   1.597
 3777TIP3    H111337   5.259   1.356   1.512
 3777TIP3    H211338   5.205   1.298   1.640
 3778TIP3   OH211339   1.872   2.905   2.791
 3778TIP3    H111340   1.782   2.885   2.815
 3778TIP3    H211341   1.925   2.846   2.844
 3779TIP3   OH211342   5.310   0.526   3.512
 3779TIP3    H111343   5.294   0.539   3.605
 3779TIP3    H211344   5.344   0.610   3.482
 3780TIP3   OH211345   3.289   4.743   1.892
 3780TIP3    H111346   3.342   4.800   1.947
 3780TIP3    H211347   3.223   4.802   1.855
 3781TIP3   OH211348   3.953   0.825   0.888
 3781TIP3    H111349   3.960   0.817   0.983
 3781TIP3    H211350   4.008   0.900   0.866
 3782TIP3   OH211351   4.448   1.643   1.151
 3782TIP3    H111352   4.428   1.551   1.168
 3782TIP3    H211353   4.544   1.648   1.157
 3783TIP3   OH211354   4.049   0.585   0.587
 3783TIP3    H111355   4.015   0.551   0.670
 3783TIP3    H211356   4.133   0.540   0.575
 3784TIP3   OH211357   6.067   5.049   2.871
 3784TIP3    H111358   6.087   5.142   2.861
 3784TIP3    H211359   5.986   5.048   2.923
 3785TIP3   OH211360   5.656   5.134   0.730
 3785TIP3    H111361   5.685   5.082   0.805
 3785TIP3    H211362   5.626   5.069   0.666
 3786TIP3   OH211363   3.053   0.969   4.205
 3786TIP3    H111364   3.066   1.010   4.290
 3786TIP3    H211365   2.963   0.989   4.181
 3787TIP3   OH211366   4.691   5.106   0.775
 3787TIP3    H111367   4.648   5.119   0.860
 3787TIP3    H211368   4.718   5.195   0.749
 3788TIP3   OH211369   0.190   1.116   1.550
 3788TIP3    H111370   0.255   1.178   1.518
 3788TIP3    H211371   0.240   1.035   1.567
 3789TIP3   OH211372   0.641   0.642   1.778
 3789TIP3    H111373   0.637   0.735   1.800
 3789TIP3    H211374   0.550   0.617   1.762
 3790TIP3   OH211375   0.345   4.162   4.436
 3790TIP3    H111376   0.349   4.093   4.369
 3790TIP3    H211377   0.437   4.188   4.449
 3791TIP3   OH211378   1.078   1.318   3.222
 3791TIP3    H111379   1.010   1.384   3.217
 3791TIP3    H211380   1.087   1.285   3.133
 3792TIP3   OH211381   1.196   4.704   1.011
 3792TIP3    H111382   1.148   4.761   0.951
 3792TIP3    H211383   1.130   4.646   1.048
 3793TIP3   OH211384   0.072   4.874   3.458
 3793TIP3    H111385   0.055   4.881   3.364
 3793TIP3    H211386   0.021   4.945   3.497
 3794TIP3   OH211387   4.281   4.675   0.536
 3794TIP3    H111388   4.267   4.769   0.549
 3794TIP3    H211389   4.215   4.633   0.591
 3795TIP3   OH211390   0.978   2.879   4.056
 3795TIP3    H111391   1.030   2.800   4.041
 3795TIP3    H211392   0.903   2.870   3.996
 3796TIP3   OH211393   4.836   0.630   1.257
 3796TIP3    H111394   4.861   0.687   1.184
 3796TIP3    H211395   4.778   0.684   1.311
 3797TIP3   OH211396   0.863   4.701   3.696
 3797TIP3    H111397   0.888   4.724   3.606
 3797TIP3    H211398   0.898   4.772   3.750
 3798TIP3   OH211399   4.912   0.732   3.363
 3798TIP3    H111400   4.831   0.781   3.377
 3798TIP3    H211401   4.937   0.752   3.273
 3799TIP3   OH211402   4.896   4.238   3.858
 3799TIP3    H111403   4.960   4.200   3.918
 3799TIP3    H211404   4.856   4.163   3.814
 3800TIP3   OH211405   0.556   0.441   1.540
 3800TIP3    H111406   0.485   0.481   1.591
 3800TIP3    H211407   0.530   0.454   1.449
 3801TIP3   OH211408   2.912   2.641   4.475
 3801TIP3    H111409   2.871   2.727   4.481
 3801TIP3    H211410   2.990   2.647   4.531
 3802TIP3   OH211411   4.042   3.569   0.386
 3802TIP3    H111412   4.049   3.499   0.320
 3802TIP3    H211413   4.131   3.578   0.420
 3803TIP3   OH211414   3.314   0.135   3.229
 3803TIP3    H111415   3.353   0.083   3.159
 3803TIP3    H211416   3.384   0.145   3.294
 3804TIP3   OH211417   1.948   3.235   5.141
 3804TIP3    H111418   1.853   3.246   5.152
 3804TIP3    H211419   1.956   3.170   5.071
 3805TIP3   OH211420   4.266   1.815   3.609
 3805TIP3    H111421   4.191   1.779   3.562
 3805TIP3    H211422   4.306   1.739   3.652
 3806TIP3   OH211423   1.886   1.174   2.509
 3806TIP3    H111424   1.904   1.106   2.574
 3806TIP3    H211425   1.807   1.144   2.464
 3807TIP3   OH211426   4.837   5.023   2.297
 3807TIP3    H111427   4.887   5.030   2.215
 3807TIP3    H211428   4.790   4.941   2.290
 3808TIP3   OH211429   3.693   5.019   2.067
 3808TIP3    H111430   3.739   5.102   2.076
 3808TIP3    H211431   3.714   4.990   1.978
 3809TIP3   OH211432   0.982   1.499   5.153
 3809TIP3    H111433   0.910   1.534   5.100
 3809TIP3    H211434   1.061   1.539   5.115
 3810TIP3   OH211435   3.383   1.455   1.471
 3810TIP3    H111436   3.440   1.437   1.396
 3810TIP3    H211437   3.312   1.392   1.464
 3811TIP3   OH211438   4.664   3.665   2.477
 3811TIP3    H111439   4.596   3.618   2.429
 3811TIP3    H211440   4.620   3.744   2.509
 3812TIP3   OH211441   4.921   2.694   3.026
 3812TIP3    H111442   4.837   2.661   2.996
 3812TIP3    H211443   4.935   2.774   2.975
 3813TIP3   OH211444   1.602   1.040   1.616
 3813TIP3    H111445   1.601   1.131   1.584
 3813TIP3    H211446   1.510   1.021   1.635
 3814TIP3   OH211447   6.281   0.939   2.001
 3814TIP3    H111448   6.259   0.846   1.998
 3814TIP3    H211449   6.325   0.956   1.918
 3815TIP3   OH211450   1.512   3.355   0.776
 3815TIP3    H111451   1.503   3.262   0.758
 3815TIP3    H211452   1.582   3.360   0.842
 3816TIP3   OH211453   0.407   1.937   4.910
 3816TIP3    H111454   0.345   2.004   4.882
 3816TIP3    H211455   0.359   1.885   4.974
 3817TIP3   OH211456   2.228   3.572   2.510
 3817TIP3    H111457   2.167   3.644   2.526
 3817TIP3    H211458   2.194   3.528   2.432
 3818TIP3   OH211459   4.543   4.973   1.218
 3818TIP3    H111460   4.478   4.902   1.222
 3818TIP3    H211461   4.624   4.930   1.189
 3819TIP3   OH211462   3.158   4.240   2.410
 3819TIP3    H111463   3.077   4.265   2.366
 3819TIP3    H211464   3.202   4.323   2.430
 3820TIP3   OH211465   1.097   0.496   3.569
 3820TIP3    H111466   1.155   0.570   3.549
 3820TIP3    H211467   1.040   0.528   3.639
 3821TIP3   OH211468   4.949   4.657   2.827
 3821TIP3    H111469   4.910   4.581   2.871
 3821TIP3    H211470   4.950   4.726   2.894
 3822TIP3   OH211471   3.876   3.922   1.751
 3822TIP3    H111472   3.818   3.849   1.775
 3822TIP3    H211473   3.828   3.970   1.685
 3823TIP3   OH211474   6.294   2.753   0.958
 3823TIP3    H111475   6.286   2.839   0.918
 3823TIP3    H211476   6.380   2.722   0.932
 3824TIP3   OH211477   2.705   4.042   4.015
 3824TIP3    H111478   2.629   4.092   3.987
 3824TIP3    H211479   2.742   4.093   4.088
 3825TIP3   OH211480   5.847   5.757   0.124
 3825TIP3    H111481   5.941   5.744   0.135
 3825TIP3    H211482   5.808   5.676   0.157
 3826TIP3   OH211483   0.136   5.528   1.745
 3826TIP3    H111484   0.205   5.526   1.812
 3826TIP3    H211485   0.092   5.443   1.754
 3827TIP3   OH211486   3.342   3.786   0.474
 3827TIP3    H111487   3.330   3.842   0.550
 3827TIP3    H211488   3.433   3.801   0.447
 3828TIP3   OH211489   4.447   3.586   2.244
 3828TIP3    H111490   4.494   3.503   2.245
 3828TIP3    H211491   4.379   3.575   2.311
 3829TIP3   OH211492   3.813   4.843   0.741
 3829TIP3    H111493   3.855   4.871   0.822
 3829TIP3    H211494   3.867   4.882   0.672
 3830TIP3   OH211495   1.154   3.928   1.638
 3830TIP3    H111496   1.241   3.892   1.623
 3830TIP3    H211497   1.161   4.020   1.613
 3831TIP3   OH211498   5.028   2.210   1.259
 3831TIP3    H111499   5.007   2.249   1.343
 3831TIP3    H211500   5.124   2.209   1.257
 3832TIP3   OH211501   5.580   3.539   4.444
 3832TIP3    H111502   5.564   3.583   4.360
 3832TIP3    H211503   5.646   3.593   4.487
 3833TIP3   OH211504   0.212   3.520   0.490
 3833TIP3    H111505   0.184   3.511   0.399
 3833TIP3    H211506   0.278   3.452   0.501
 3834TIP3   OH211507   0.174   5.902   2.646
 3834TIP3    H111508   0.103   5.849   2.683
 3834TIP3    H211509   0.145   5.992   2.659
 3835TIP3   OH211510   1.061   4.548   4.050
 3835TIP3    H111511   1.124   4.612   4.015
 3835TIP3    H211512   1.108   4.506   4.122
 3836TIP3   OH211513   0.221   5.900   4.475
 3836TIP3    H111514   0.276   5.837   4.522
 3836TIP3    H211515   0.167   5.846   4.417
 3837TIP3   OH211516   0.322   5.801   5.051
 3837TIP3    H111517   0.375   5.845   5.117
 3837TIP3    H211518   0.255   5.864   5.027
 3838TIP3   OH211519   0.450   3.986   1.776
 3838TIP3    H111520   0.422   3.900   1.807
 3838TIP3    H211521   0.490   3.970   1.691
 3839TIP3   OH211522   3.221   2.523   4.218
 3839TIP3    H111523   3.232   2.519   4.313
 3839TIP3    H211524   3.153   2.589   4.204
 3840TIP3   OH211525   2.013   1.383   0.498
 3840TIP3    H111526   1.929   1.392   0.453
 3840TIP3    H211527   2.013   1.454   0.562
 3841TIP3   OH211528   0.694   3.981   3.651
 3841TIP3    H111529   0.645   3.961   3.732
 3841TIP3    H211530   0.637   4.041   3.603
 3842TIP3   OH211531   5.606   4.356   2.416
 3842TIP3    H111532   5.566   4.373   2.331
 3842TIP3    H211533   5.536   4.371   2.480
 3843TIP3   OH211534   2.140   3.387   1.612
 3843TIP3    H111535   2.128   3.460   1.552
 3843TIP3    H211536   2.168   3.427   1.694
 3844TIP3   OH211537   1.416   1.326   3.257
 3844TIP3    H111538   1.503   1.363   3.275
 3844TIP3    H211539   1.355   1.385   3.300
 3845TIP3   OH211540   0.182   1.526   2.462
 3845TIP3    H111541   0.197   1.606   2.511
 3845TIP3    H211542   0.255   1.521   2.400
 3846TIP3   OH211543   4.217   4.833   2.538
 3846TIP3    H111544   4.188   4.796   2.621
 3846TIP3    H211545   4.162   4.910   2.524
 3847TIP3   OH211546   4.692   4.442   3.166
 3847TIP3    H111547   4.742   4.517   3.200
 3847TIP3    H211548   4.722   4.431   3.076
 3848TIP3   OH211549   4.472   4.246   2.736
 3848TIP3    H111550   4.434   4.332   2.715
 3848TIP3    H211551   4.435   4.224   2.821
 3849TIP3   OH211552   1.250   2.728   2.800
 3849TIP3    H111553   1.213   2.786   2.733
 3849TIP3    H211554   1.246   2.780   2.880
 3850TIP3   OH211555   1.124   5.701   2.325
 3850TIP3    H111556   1.094   5.612   2.305
 3850TIP3    H211557   1.085   5.721   2.410
 3851TIP3   OH211558   3.063   1.023   1.845
 3851TIP3    H111559   3.135   1.086   1.831
 3851TIP3    H211560   2.986   1.078   1.858
 3852TIP3   OH211561   3.746   0.879   2.650
 3852TIP3    H111562   3.708   0.856   2.565
 3852TIP3    H211563   3.710   0.965   2.671
 3853TIP3   OH211564   5.715   0.678   1.802
 3853TIP3    H111565   5.648   0.655   1.866
 3853TIP3    H211566   5.668   0.681   1.719
 3854TIP3   OH211567   3.969   1.709   2.420
 3854TIP3    H111568   4.037   1.777   2.418
 3854TIP3    H211569   3.942   1.699   2.329
 3855TIP3   OH211570   3.771   4.011   0.562
 3855TIP3    H111571   3.801   4.101   0.573
 3855TIP3    H211572   3.721   3.993   0.642
 3856TIP3   OH211573   0.640   1.942   0.563
 3856TIP3    H111574   0.667   2.014   0.620
 3856TIP3    H211575   0.718   1.922   0.511
 3857TIP3   OH211576   1.174   2.180   1.772
 3857TIP3    H111577   1.139   2.219   1.852
 3857TIP3    H211578   1.097   2.170   1.715
 3858TIP3   OH211579   5.667   1.627   4.860
 3858TIP3    H111580   5.597   1.692   4.869
 3858TIP3    H211581   5.732   1.669   4.803
 3859TIP3   OH211582   2.335   2.668   3.711
 3859TIP3    H111583   2.276   2.593   3.705
 3859TIP3    H211584   2.388   2.651   3.789
 3860TIP3   OH211585   0.807   2.733   2.977
 3860TIP3    H111586   0.824   2.668   3.045
 3860TIP3    H211587   0.734   2.697   2.927
 3861TIP3   OH211588   0.566   1.965   1.120
 3861TIP3    H111589   0.494   1.945   1.181
 3861TIP3    H211590   0.643   1.927   1.162
 3862TIP3   OH211591   5.348   4.957   2.639
 3862TIP3    H111592   5.436   4.972   2.672
 3862TIP3    H211593   5.301   4.915   2.711
 3863TIP3   OH211594   2.808   2.045   2.603
 3863TIP3    H111595   2.880   2.071   2.545
 3863TIP3    H211596   2.734   2.028   2.544
 3864TIP3   OH211597   1.901   5.119   2.719
 3864TIP3    H111598   1.951   5.125   2.800
 3864TIP3    H211599   1.917   5.031   2.686
 3865TIP3   OH211600   2.089   2.300   2.829
 3865TIP3    H111601   2.103   2.391   2.801
 3865TIP3    H211602   2.006   2.303   2.876
 3866TIP3   OH211603   0.795   4.569   4.144
 3866TIP3    H111604   0.738   4.520   4.084
 3866TIP3    H211605   0.882   4.564   4.104
 3867TIP3   OH211606   1.438   1.050   0.601
 3867TIP3    H111607   1.532   1.036   0.590
 3867TIP3    H211608   1.413   0.990   0.672
 3868TIP3   OH211609   4.102   2.540   2.262
 3868TIP3    H111610   4.175   2.596   2.290
 3868TIP3    H211611   4.042   2.539   2.337
 3869TIP3   OH211612   4.439   4.267   3.334
 3869TIP3    H111613   4.398   4.343   3.293
 3869TIP3    H211614   4.431   4.284   3.428
 3870TIP3   OH211615   3.482   5.111   3.093
 3870TIP3    H111616   3.471   5.190   3.039
 3870TIP3    H211617   3.401   5.062   3.079
 3871TIP3   OH211618   0.751   2.773   0.042
 3871TIP3    H111619   0.747   2.699  -0.018
 3871TIP3    H211620   0.661   2.785   0.072
 3872TIP3   OH211621   4.759   3.570   1.297
 3872TIP3    H111622   4.758   3.527   1.212
 3872TIP3    H211623   4.667   3.592   1.313
 3873TIP3   OH211624   4.151   5.368   0.116
 3873TIP3    H111625   4.068   5.407   0.087
 3873TIP3    H211626   4.127   5.280   0.145
 3874TIP3   OH211627   2.480   5.162   4.534
 3874TIP3    H111628   2.525   5.100   4.477
 3874TIP3    H211629   2.478   5.118   4.619
 3875TIP3   OH211630   5.495   1.628   3.368
 3875TIP3    H111631   5.590   1.617   3.371
 3875TIP3    H211632   5.479   1.714   3.406
 3876TIP3   OH211633   5.730   2.239   4.636
 3876TIP3    H111634   5.787   2.170   4.603
 3876TIP3    H211635   5.704   2.288   4.558
 3877TIP3   OH211636   3.106   4.102   1.874
 3877TIP3    H111637   3.094   4.020   1.826
 3877TIP3    H211638   3.109   4.169   1.806
 3878TIP3   OH211639   5.551   5.762   1.979
 3878TIP3    H111640   5.589   5.767   2.067
 3878TIP3    H211641   5.618   5.800   1.922
 3879TIP3   OH211642   5.170   3.066   4.839
 3879TIP3    H111643   5.198   2.986   4.795
 3879TIP3    H211644   5.240   3.128   4.822
 3880TIP3   OH211645   3.836   0.647   4.339
 3880TIP3    H111646   3.773   0.642   4.410
 3880TIP3    H211647   3.833   0.561   4.298
 3881TIP3   OH211648   1.081   4.153   0.844
 3881TIP3    H111649   1.169   4.127   0.818
 3881TIP3    H211650   1.026   4.077   0.821
 3882TIP3   OH211651   5.459   3.420   2.377
 3882TIP3    H111652   5.365   3.421   2.395
 3882TIP3    H211653   5.474   3.338   2.330
 3883TIP3   OH211654   2.378   2.513   1.724
 3883TIP3    H111655   2.374   2.586   1.663
 3883TIP3    H211656   2.468   2.512   1.756
 3884TIP3   OH211657   5.577   3.505   1.760
 3884TIP3    H111658   5.505   3.452   1.726
 3884TIP3    H211659   5.562   3.507   1.855
 3885TIP3   OH211660   0.417   0.833   4.668
 3885TIP3    H111661   0.432   0.830   4.763
 3885TIP3    H211662   0.335   0.882   4.659
 3886TIP3   OH211663   2.107   1.237   2.237
 3886TIP3    H111664   2.133   1.217   2.147
 3886TIP3    H211665   2.011   1.231   2.236
 3887TIP3   OH211666   6.235   5.077   1.182
 3887TIP3    H111667   6.201   5.115   1.101
 3887TIP3    H211668   6.253   4.985   1.160
 3888TIP3   OH211669   1.456   4.636   0.887
 3888TIP3    H111670   1.404   4.629   0.807
 3888TIP3    H211671   1.392   4.654   0.956
 3889TIP3   OH211672   1.673   0.863   3.572
 3889TIP3    H111673   1.667   0.770   3.595
 3889TIP3    H211674   1.763   0.874   3.541
 3890TIP3   OH211675   5.429   3.065   3.420
 3890TIP3    H111676   5.355   3.087   3.363
 3890TIP3    H211677   5.486   3.011   3.365
 3891TIP3   OH211678   3.035   2.893   3.447
 3891TIP3    H111679   3.051   2.823   3.384
 3891TIP3    H211680   3.048   2.852   3.532
 3892TIP3   OH211681   4.336   2.806   4.997
 3892TIP3    H111682   4.341   2.733   4.935
 3892TIP3    H211683   4.266   2.862   4.963
 3893TIP3   OH211684   2.304   4.556   1.856
 3893TIP3    H111685   2.382   4.583   1.808
 3893TIP3    H211686   2.321   4.582   1.947
 3894TIP3   OH211687   2.993   2.792   0.984
 3894TIP3    H111688   2.955   2.784   1.072
 3894TIP3    H211689   3.085   2.771   0.997
 3895TIP3   OH211690   6.306   4.469   3.657
 3895TIP3    H111691   6.250   4.414   3.603
 3895TIP3    H211692   6.376   4.410   3.687
 3896TIP3   OH211693   2.878   4.086   3.104
 3896TIP3    H111694   2.942   4.149   3.136
 3896TIP3    H211695   2.852   4.036   3.182
 3897TIP3   OH211696   5.845   2.314   0.474
 3897TIP3    H111697   5.791   2.268   0.539
 3897TIP3    H211698   5.856   2.252   0.403
 3898TIP3   OH211699   5.254   3.706   2.742
 3898TIP3    H111700   5.323   3.646   2.714
 3898TIP3    H211701   5.251   3.697   2.837
 3899TIP3   OH211702   4.513   1.962   1.590
 3899TIP3    H111703   4.597   1.929   1.622
 3899TIP3    H211704   4.502   1.922   1.504
 3900TIP3   OH211705   1.321   2.908   2.994
 3900TIP3    H111706   1.300   3.001   3.004
 3900TIP3    H211707   1.273   2.864   3.064
 3901TIP3   OH211708   2.483   1.681   0.586
 3901TIP3    H111709   2.484   1.657   0.678
 3901TIP3    H211710   2.400   1.646   0.553
 3902TIP3   OH211711   4.788   1.617   4.812
 3902TIP3    H111712   4.828   1.640   4.728
 3902TIP3    H211713   4.761   1.701   4.849
 3903TIP3   OH211714   5.634   5.739   1.277
 3903TIP3    H111715   5.604   5.818   1.322
 3903TIP3    H211716   5.676   5.686   1.345
 3904TIP3   OH211717   1.581   4.272   1.379
 3904TIP3    H111718   1.664   4.233   1.351
 3904TIP3    H211719   1.560   4.335   1.311
 3905TIP3   OH211720   6.262   1.602   3.721
 3905TIP3    H111721   6.300   1.521   3.687
 3905TIP3    H211722   6.276   1.666   3.651
 3906TIP3   OH211723   5.161   2.291   3.827
 3906TIP3    H111724   5.135   2.274   3.737
 3906TIP3    H211725   5.150   2.207   3.872
 3907TIP3   OH211726   2.841   1.875   2.805
 3907TIP3    H111727   2.915   1.891   2.864
 3907TIP3    H211728   2.850   1.940   2.736
 3908TIP3   OH211729   4.026   0.913   1.507
 3908TIP3    H111730   3.978   0.995   1.494
 3908TIP3    H211731   3.958   0.847   1.520
 3909TIP3   OH211732   4.935   4.900   4.463
 3909TIP3    H111733   5.010   4.846   4.488
 3909TIP3    H211734   4.953   4.986   4.502
 3910TIP3   OH211735   1.663   3.488   3.569
 3910TIP3    H111736   1.592   3.545   3.600
 3910TIP3    H211737   1.708   3.460   3.649
 3911TIP3   OH211738   1.888   3.568   4.563
 3911TIP3    H111739   1.937   3.486   4.554
 3911TIP3    H211740   1.797   3.542   4.555
 3912TIP3   OH211741   5.945   0.222   5.095
 3912TIP3    H111742   5.954   0.315   5.113
 3912TIP3    H211743   5.851   0.205   5.099
 3913TIP3   OH211744   4.796   1.140   0.612
 3913TIP3    H111745   4.849   1.106   0.540
 3913TIP3    H211746   4.854   1.138   0.688
 3914TIP3   OH211747   4.144   3.627   1.957
 3914TIP3    H111748   4.085   3.688   2.000
 3914TIP3    H211749   4.115   3.541   1.988
 3915TIP3   OH211750   5.248   1.941   1.259
 3915TIP3    H111751   5.228   1.857   1.217
 3915TIP3    H211752   5.325   1.974   1.212
 3916TIP3   OH211753   4.131   2.342   1.369
 3916TIP3    H111754   4.173   2.263   1.403
 3916TIP3    H211755   4.199   2.409   1.373
 3917TIP3   OH211756   1.675   0.670   1.520
 3917TIP3    H111757   1.618   0.718   1.460
 3917TIP3    H211758   1.714   0.601   1.465
 3918TIP3   OH211759   2.961   2.943   2.900
 3918TIP3    H111760   3.022   2.878   2.937
 3918TIP3    H211761   2.917   2.980   2.977
 3919TIP3   OH211762   1.131   1.558   0.542
 3919TIP3    H111763   1.177   1.488   0.496
 3919TIP3    H211764   1.174   1.564   0.627
 3920TIP3   OH211765   5.646   3.088   2.905
 3920TIP3    H111766   5.696   3.020   2.948
 3920TIP3    H211767   5.608   3.140   2.976
 3921TIP3   OH211768   2.266   5.385   2.241
 3921TIP3    H111769   2.314   5.426   2.169
 3921TIP3    H211770   2.181   5.362   2.203
 3922TIP3   OH211771   1.830   0.205   0.084
 3922TIP3    H111772   1.810   0.280   0.139
 3922TIP3    H211773   1.779   0.218   0.004
 3923TIP3   OH211774   1.104   4.414   0.470
 3923TIP3    H111775   1.078   4.357   0.543
 3923TIP3    H211776   1.091   4.502   0.503
 3924TIP3   OH211777   0.223   3.925   2.072
 3924TIP3    H111778   0.318   3.925   2.084
 3924TIP3    H211779   0.205   4.003   2.020
 3925TIP3   OH211780   5.789   0.532   1.262
 3925TIP3    H111781   5.803   0.615   1.215
 3925TIP3    H211782   5.872   0.517   1.308
 3926TIP3   OH211783   5.525   3.309   0.148
 3926TIP3    H111784   5.556   3.387   0.102
 3926TIP3    H211785   5.578   3.237   0.112
 3927TIP3   OH211786   3.983   1.550   3.801
 3927TIP3    H111787   3.989   1.455   3.802
 3927TIP3    H211788   3.939   1.571   3.719
 3928TIP3   OH211789   4.734   0.233   0.160
 3928TIP3    H111790   4.794   0.225   0.086
 3928TIP3    H211791   4.650   0.258   0.121
 3929TIP3   OH211792   1.828   5.841   3.764
 3929TIP3    H111793   1.911   5.866   3.804
 3929TIP3    H211794   1.850   5.826   3.672
 3930TIP3   OH211795   5.330   1.269   1.175
 3930TIP3    H111796   5.317   1.363   1.190
 3930TIP3    H211797   5.357   1.234   1.260
 3931TIP3   OH211798   5.007   3.531   1.206
 3931TIP3    H111799   4.941   3.549   1.272
 3931TIP3    H211800   5.051   3.452   1.237
 3932TIP3   OH211801   1.399   1.034   2.386
 3932TIP3    H111802   1.331   1.080   2.337
 3932TIP3    H211803   1.350   0.973   2.442
 3933TIP3   OH211804   3.395   1.179   1.993
 3933TIP3    H111805   3.343   1.203   1.916
 3933TIP3    H211806   3.484   1.172   1.961
 3934TIP3   OH211807   2.234   4.353   4.066
 3934TIP3    H111808   2.247   4.262   4.095
 3934TIP3    H211809   2.223   4.402   4.147
 3935TIP3   OH211810   0.480   3.366   3.284
 3935TIP3    H111811   0.531   3.424   3.228
 3935TIP3    H211812   0.544   3.330   3.346
 3936TIP3   OH211813   2.601   1.681   2.389
 3936TIP3    H111814   2.585   1.717   2.476
 3936TIP3    H211815   2.599   1.758   2.331
 3937TIP3   OH211816   0.778   5.288   3.335
 3937TIP3    H111817   0.782   5.350   3.263
 3937TIP3    H211818   0.746   5.340   3.409
 3938TIP3   OH211819   5.713   1.888   4.700
 3938TIP3    H111820   5.750   1.805   4.671
 3938TIP3    H211821   5.732   1.949   4.629
 3939TIP3   OH211822   1.672   2.086   3.112
 3939TIP3    H111823   1.606   2.019   3.132
 3939TIP3    H211824   1.626   2.169   3.124
 3940TIP3   OH211825   4.614   4.245   3.578
 3940TIP3    H111826   4.589   4.334   3.553
 3940TIP3    H211827   4.532   4.201   3.598
 3941TIP3   OH211828   1.957   5.185   2.439
 3941TIP3    H111829   1.939   5.188   2.533
 3941TIP3    H211830   2.051   5.172   2.433
 3942TIP3   OH211831   1.420   5.403   1.744
 3942TIP3    H111832   1.504   5.358   1.747
 3942TIP3    H211833   1.395   5.402   1.652
 3943TIP3   OH211834   0.156   0.271   0.143
 3943TIP3    H111835   0.070   0.241   0.174
 3943TIP3    H211836   0.137   0.354   0.098
 3944TIP3   OH211837   5.057   4.657   3.753
 3944TIP3    H111838   5.130   4.595   3.754
 3944TIP3    H211839   5.051   4.685   3.662
 3945TIP3   OH211840   4.469   3.460   2.630
 3945TIP3    H111841   4.543   3.454   2.570
 3945TIP3    H211842   4.392   3.468   2.573
 3946TIP3   OH211843   0.278   0.582   3.235
 3946TIP3    H111844   0.250   0.542   3.317
 3946TIP3    H211845   0.374   0.583   3.241
 3947TIP3   OH211846   1.383   5.354   2.949
 3947TIP3    H111847   1.313   5.419   2.947
 3947TIP3    H211848   1.423   5.359   2.863
 3948TIP3   OH211849   3.573   2.653   3.065
 3948TIP3    H111850   3.642   2.606   3.112
 3948TIP3    H211851   3.585   2.745   3.091
 3949TIP3   OH211852   0.197   5.322   1.137
 3949TIP3    H111853   0.224   5.263   1.207
 3949TIP3    H211854   0.238   5.405   1.159
 3950TIP3   OH211855   4.962   5.858   1.600
 3950TIP3    H111856   5.013   5.778   1.583
 3950TIP3    H211857   4.942   5.893   1.513
 3951TIP3   OH211858   1.233   3.577   0.431
 3951TIP3    H111859   1.152   3.576   0.380
 3951TIP3    H211860   1.302   3.559   0.368
 3952TIP3   OH211861   2.147   2.762   2.523
 3952TIP3    H111862   2.218   2.699   2.538
 3952TIP3    H211863   2.067   2.712   2.537
 3953TIP3   OH211864   3.996   1.510   4.591
 3953TIP3    H111865   4.039   1.582   4.545
 3953TIP3    H211866   4.053   1.435   4.577
 3954TIP3   OH211867   3.030   4.504   1.687
 3954TIP3    H111868   3.048   4.502   1.781
 3954TIP3    H211869   3.103   4.553   1.650
 3955TIP3   OH211870   2.089   4.496   3.551
 3955TIP3    H111871   2.125   4.515   3.638
 3955TIP3    H211872   2.075   4.401   3.550
 3956TIP3   OH211873   2.253   4.502   0.912
 3956TIP3    H111874   2.249   4.406   0.915
 3956TIP3    H211875   2.223   4.530   0.999
 3957TIP3   OH211876   2.891   1.220   3.453
 3957TIP3    H111877   2.986   1.210   3.460
 3957TIP3    H211878   2.872   1.205   3.360
 3958TIP3   OH211879   3.278   0.147   2.146
 3958TIP3    H111880   3.327   0.097   2.212
 3958TIP3    H211881   3.344   0.173   2.082
 3959TIP3   OH211882   3.544   1.895   3.241
 3959TIP3    H111883   3.556   1.894   3.146
 3959TIP3    H211884   3.612   1.837   3.274
 3960TIP3   OH211885   4.653   0.892   1.282
 3960TIP3    H111886   4.664   0.975   1.328
 3960TIP3    H211887   4.678   0.910   1.191
 3961TIP3   OH211888   0.398   1.136   1.832
 3961TIP3    H111889   0.375   1.229   1.832
 3961TIP3    H211890   0.479   1.131   1.882
 3962TIP3   OH211891   4.716   2.756   5.140
 3962TIP3    H111892   4.735   2.666   5.167
 3962TIP3    H211893   4.802   2.793   5.120
 3963TIP3   OH211894   1.780   5.007   2.316
 3963TIP3    H111895   1.847   4.985   2.251
 3963TIP3    H211896   1.823   5.069   2.375
 3964TIP3   OH211897   6.053   2.304   5.083
 3964TIP3    H111898   6.054   2.389   5.038
 3964TIP3    H211899   5.961   2.278   5.084
 3965TIP3   OH211900   2.827   0.125  -0.002
 3965TIP3    H111901   2.891   0.160   0.059
 3965TIP3    H211902   2.785   0.201  -0.040
 3966TIP3   OH211903   0.431   1.961   1.911
 3966TIP3    H111904   0.373   2.023   1.955
 3966TIP3    H211905   0.381   1.932   1.835
 3967TIP3   OH211906   2.189   4.873   4.627
 3967TIP3    H111907   2.233   4.852   4.710
 3967TIP3    H211908   2.144   4.956   4.645
 3968TIP3   OH211909   3.381   4.549   4.282
 3968TIP3    H111910   3.386   4.467   4.331
 3968TIP3    H211911   3.312   4.599   4.327
 3969TIP3   OH211912   2.357   3.909   1.307
 3969TIP3    H111913   2.336   4.001   1.320
 3969TIP3    H211914   2.330   3.866   1.389
 3970TIP3   OH211915   5.556   5.409   1.634
 3970TIP3    H111916   5.529   5.493   1.599
 3970TIP3    H211917   5.651   5.410   1.632
 3971TIP3   OH211918   1.428   5.153   2.077
 3971TIP3    H111919   1.498   5.091   2.054
 3971TIP3    H211920   1.348   5.101   2.073
 3972TIP3   OH211921   4.777   4.435   1.512
 3972TIP3    H111922   4.871   4.440   1.494
 3972TIP3    H211923   4.743   4.520   1.486
 3973TIP3   OH211924   5.611   4.307   0.661
 3973TIP3    H111925   5.628   4.347   0.576
 3973TIP3    H211926   5.697   4.279   0.692
 3974TIP3   OH211927   0.607   1.649   3.382
 3974TIP3    H111928   0.675   1.711   3.358
 3974TIP3    H211929   0.616   1.578   3.318
 3975TIP3   OH211930   6.229   3.648   0.274
 3975TIP3    H111931   6.269   3.605   0.199
 3975TIP3    H211932   6.297   3.706   0.308
 3976TIP3   OH211933   1.395   1.369   1.759
 3976TIP3    H111934   1.367   1.294   1.811
 3976TIP3    H211935   1.481   1.345   1.726
 3977TIP3   OH211936   5.084   4.696   2.033
 3977TIP3    H111937   5.047   4.672   2.118
 3977TIP3    H211938   5.010   4.690   1.972
 3978TIP3   OH211939   1.442   2.067   3.888
 3978TIP3    H111940   1.496   2.141   3.860
 3978TIP3    H211941   1.417   2.090   3.978
 3979TIP3   OH211942   1.497   5.530   4.265
 3979TIP3    H111943   1.497   5.506   4.357
 3979TIP3    H211944   1.429   5.597   4.258
 3980TIP3   OH211945   3.251   1.554   4.124
 3980TIP3    H111946   3.336   1.522   4.156
 3980TIP3    H211947   3.254   1.648   4.139
 3981TIP3   OH211948   2.010   0.518   5.007
 3981TIP3    H111949   1.965   0.499   4.925
 3981TIP3    H211950   1.945   0.565   5.059
 3982TIP3   OH211951   4.709   3.005   4.503
 3982TIP3    H111952   4.735   3.051   4.424
 3982TIP3    H211953   4.655   3.068   4.551
 3983TIP3   OH211954   5.407   1.339   4.782
 3983TIP3    H111955   5.478   1.370   4.838
 3983TIP3    H211956   5.451   1.298   4.707
 3984TIP3   OH211957   2.593   0.330   3.448
 3984TIP3    H111958   2.543   0.253   3.421
 3984TIP3    H211959   2.591   0.328   3.544
 3985TIP3   OH211960  -0.016   1.787   3.421
 3985TIP3    H111961  -0.022   1.792   3.326
 3985TIP3    H211962   0.070   1.747   3.439
 3986TIP3   OH211963   1.082   1.449   4.870
 3986TIP3    H111964   1.151   1.454   4.935
 3986TIP3    H211965   1.026   1.377   4.899
 3987TIP3   OH211966   1.688   5.531   0.366
 3987TIP3    H111967   1.605   5.484   0.373
 3987TIP3    H211968   1.749   5.482   0.421
 3988TIP3   OH211969   0.499   0.848   1.900
 3988TIP3    H111970   0.409   0.826   1.874
 3988TIP3    H211971   0.492   0.936   1.936
 3989TIP3   OH211972   0.294   2.490   3.129
 3989TIP3    H111973   0.262   2.509   3.217
 3989TIP3    H211974   0.230   2.531   3.071
 3990TIP3   OH211975   1.205   1.459   3.448
 3990TIP3    H111976   1.167   1.378   3.415
 3990TIP3    H211977   1.131   1.507   3.486
 3991TIP3   OH211978   0.275   5.539   4.980
 3991TIP3    H111979   0.298   5.620   5.026
 3991TIP3    H211980   0.352   5.483   4.988
 3992TIP3   OH211981   2.056   5.455   4.679
 3992TIP3    H111982   2.029   5.509   4.604
 3992TIP3    H211983   2.143   5.423   4.656
 3993TIP3   OH211984   1.928   0.111   2.005
 3993TIP3    H111985   1.902   0.077   2.091
 3993TIP3    H211986   1.930   0.033   1.949
 3994TIP3   OH211987   5.522   3.643   1.060
 3994TIP3    H111988   5.454   3.595   1.107
 3994TIP3    H211989   5.599   3.635   1.117
 3995TIP3   OH211990   2.834   0.973   3.087
 3995TIP3    H111991   2.872   0.903   3.140
 3995TIP3    H211992   2.822   0.935   3.000
 3996TIP3   OH211993   4.056   3.974   4.825
 3996TIP3    H111994   4.090   3.915   4.758
 3996TIP3    H211995   4.129   3.987   4.886
 3997TIP3   OH211996   1.945   0.130   3.365
 3997TIP3    H111997   1.952   0.174   3.280
 3997TIP3    H211998   1.861   0.160   3.400
 3998TIP3   OH211999   4.396   3.001   0.444
 3998TIP3    H112000   4.487   3.007   0.417
 3998TIP3    H212001   4.391   2.919   0.493
 3999TIP3   OH212002   4.316   3.132   1.797
 3999TIP3    H112003   4.227   3.121   1.764
 3999TIP3    H212004   4.368   3.070   1.746
 4000TIP3   OH212005   0.992   2.158   4.725
 4000TIP3    H112006   0.925   2.090   4.726
 4000TIP3    H212007   1.074   2.112   4.709
 4001TIP3   OH212008   6.353   0.145   0.521
 4001TIP3    H112009   6.362   0.228   0.568
 4001TIP3    H212010   6.313   0.169   0.438
 4002TIP3   OH212011   2.560   3.061   2.980
 4002TIP3    H112012   2.596   3.089   2.896
 4002TIP3    H212013   2.474   3.101   2.984
 4003TIP3   OH212014   3.334   5.111   0.573
 4003TIP3    H112015   3.350   5.068   0.489
 4003TIP3    H212016   3.241   5.134   0.570
 4004TIP3   OH212017   5.529   2.222   1.024
 4004TIP3    H112018   5.598   2.170   1.065
 4004TIP3    H212019   5.570   2.261   0.947
 4005TIP3   OH212020   4.739   4.538   1.119
 4005TIP3    H112021   4.824   4.501   1.145
 4005TIP3    H212022   4.695   4.467   1.073
 4006TIP3   OH212023   3.303   0.466   4.687
 4006TIP3    H112024   3.348   0.535   4.637
 4006TIP3    H212025   3.268   0.512   4.763
 4007TIP3   OH212026   1.323   2.218   2.655
 4007TIP3    H112027   1.288   2.131   2.671
 4007TIP3    H212028   1.333   2.257   2.742
 4008TIP3   OH212029   0.592   0.166   1.604
 4008TIP3    H112030   0.622   0.117   1.528
 4008TIP3    H212031   0.535   0.234   1.568
 4009TIP3   OH212032   0.914   4.368   2.384
 4009TIP3    H112033   0.858   4.295   2.360
 4009TIP3    H212034   0.989   4.327   2.427
 4010TIP3   OH212035   2.648   0.908   2.346
 4010TIP3    H112036   2.557   0.918   2.372
 4010TIP3    H212037   2.653   0.952   2.261
 4011TIP3   OH212038   0.784   2.794   0.342
 4011TIP3    H112039   0.705   2.821   0.388
 4011TIP3    H212040   0.758   2.791   0.249
 4012TIP3   OH212041   0.925   2.427   0.512
 4012TIP3    H112042   1.000   2.451   0.459
 4012TIP3    H212043   0.928   2.487   0.586
 4013TIP3   OH212044   0.963   2.668   2.672
 4013TIP3    H112045   0.868   2.671   2.668
 4013TIP3    H212046   0.984   2.693   2.762
 4014TIP3   OH212047   3.735   2.866   5.031
 4014TIP3    H112048   3.732   2.772   5.013
 4014TIP3    H212049   3.723   2.873   5.126
 4015TIP3   OH212050   0.238   0.218   4.367
 4015TIP3    H112051   0.308   0.228   4.303
 4015TIP3    H212052   0.272   0.262   4.446
 4016TIP3   OH212053   5.263   4.808   2.202
 4016TIP3    H112054   5.326   4.872   2.170
 4016TIP3    H212055   5.201   4.797   2.130
 4017TIP3   OH212056   5.840   0.167   1.598
 4017TIP3    H112057   5.790   0.150   1.518
 4017TIP3    H212058   5.826   0.260   1.616
 4018TIP3   OH212059   5.735   5.611   4.510
 4018TIP3    H112060   5.675   5.682   4.532
 4018TIP3    H212061   5.799   5.611   4.581
 4019TIP3   OH212062   4.953   1.341   1.308
 4019TIP3    H112063   4.867   1.299   1.297
 4019TIP3    H212064   5.013   1.269   1.324
 4020TIP3   OH212065   2.497   0.672   4.517
 4020TIP3    H112066   2.468   0.751   4.564
 4020TIP3    H212067   2.426   0.654   4.455
 4021TIP3   OH212068   2.654   5.817   2.283
 4021TIP3    H112069   2.563   5.814   2.313
 4021TIP3    H212070   2.699   5.869   2.349
 4022TIP3   OH212071   2.349   1.341   4.619
 4022TIP3    H112072   2.405   1.373   4.548
 4022TIP3    H212073   2.299   1.418   4.647
 4023TIP3   OH212074   1.492   5.962   4.352
 4023TIP3    H112075   1.527   5.873   4.359
 4023TIP3    H212076   1.565   6.019   4.377
 4024TIP3   OH212077   5.451   4.581   0.532
 4024TIP3    H112078   5.527   4.533   0.501
 4024TIP3    H212079   5.376   4.524   0.512
 4025TIP3   OH212080   0.683   3.552   3.450
 4025TIP3    H112081   0.596   3.569   3.414
 4025TIP3    H212082   0.743   3.570   3.379
 4026TIP3   OH212083   0.674   5.414   4.512
 4026TIP3    H112084   0.765   5.440   4.499
 4026TIP3    H212085   0.623   5.491   4.488
 4027TIP3   OH212086   0.965   5.365   2.050
 4027TIP3    H112087   1.008   5.311   1.983
 4027TIP3    H212088   0.931   5.440   2.002
 4028TIP3   OH212089   4.322   3.710   3.125
 4028TIP3    H112090   4.271   3.731   3.204
 4028TIP3    H212091   4.399   3.767   3.130
 4029TIP3   OH212092   1.488   4.690   4.744
 4029TIP3    H112093   1.486   4.724   4.833
 4029TIP3    H212094   1.467   4.765   4.689
 4030TIP3   OH212095   4.928   1.493   1.945
 4030TIP3    H112096   4.999   1.440   1.982
 4030TIP3    H212097   4.859   1.430   1.926
 4031TIP3   OH212098   5.311   5.653   1.862
 4031TIP3    H112099   5.315   5.580   1.924
 4031TIP3    H212100   5.394   5.699   1.872
 4032TIP3   OH212101   4.551   2.126   0.063
 4032TIP3    H112102   4.492   2.183   0.112
 4032TIP3    H212103   4.631   2.177   0.051
 4033TIP3   OH212104   1.373   1.734   1.632
 4033TIP3    H112105   1.313   1.669   1.596
 4033TIP3    H212106   1.329   1.818   1.620
 4034TIP3   OH212107   5.339   4.130   2.264
 4034TIP3    H112108   5.308   4.045   2.296
 4034TIP3    H212109   5.277   4.193   2.300
 4035TIP3   OH212110   5.738   3.465   2.317
 4035TIP3    H112111   5.779   3.497   2.398
 4035TIP3    H212112   5.652   3.434   2.345
 4036TIP3   OH212113   5.337   0.207   2.394
 4036TIP3    H112114   5.313   0.131   2.446
 4036TIP3    H212115   5.285   0.279   2.431
 4037TIP3   OH212116   1.278   2.575   1.080
 4037TIP3    H112117   1.270   2.671   1.079
 4037TIP3    H212118   1.367   2.560   1.114
 4038TIP3   OH212119   4.431   2.606   4.514
 4038TIP3    H112120   4.343   2.579   4.540
 4038TIP3    H212121   4.428   2.702   4.516
 4039TIP3   OH212122   0.224   5.248   0.300
 4039TIP3    H112123   0.208   5.162   0.260
 4039TIP3    H212124   0.161   5.306   0.257
 4040TIP3   OH212125   2.356   5.570   1.260
 4040TIP3    H112126   2.302   5.494   1.279
 4040TIP3    H212127   2.295   5.636   1.227
 4041TIP3   OH212128   5.190   3.492   1.661
 4041TIP3    H112129   5.107   3.532   1.687
 4041TIP3    H212130   5.236   3.563   1.616
 4042TIP3   OH212131   3.827   1.705   2.181
 4042TIP3    H112132   3.871   1.777   2.136
 4042TIP3    H212133   3.792   1.651   2.110
 4043TIP3   OH212134   5.362   2.560   1.516
 4043TIP3    H112135   5.369   2.655   1.507
 4043TIP3    H212136   5.274   2.545   1.550
 4044TIP3   OH212137   1.536   3.010   1.804
 4044TIP3    H112138   1.518   3.040   1.892
 4044TIP3    H212139   1.629   2.988   1.804
 4045TIP3   OH212140   5.314   0.463   1.325
 4045TIP3    H112141   5.344   0.379   1.358
 4045TIP3    H212142   5.280   0.509   1.402
 4046TIP3   OH212143   2.292   3.420   5.016
 4046TIP3    H112144   2.242   3.390   4.941
 4046TIP3    H212145   2.226   3.443   5.082
 4047TIP3   OH212146   4.427   5.883   0.397
 4047TIP3    H112147   4.507   5.877   0.345
 4047TIP3    H212148   4.381   5.801   0.379
 4048TIP3   OH212149   2.362   2.773   1.583
 4048TIP3    H112150   2.309   2.822   1.646
 4048TIP3    H212151   2.426   2.837   1.551
 4049TIP3   OH212152   5.235   3.049   2.273
 4049TIP3    H112153   5.220   3.038   2.367
 4049TIP3    H212154   5.277   2.968   2.246
 4050TIP3   OH212155   2.786   0.619   4.668
 4050TIP3    H112156   2.722   0.674   4.714
 4050TIP3    H212157   2.847   0.681   4.629
 4051TIP3   OH212158   2.559   3.204   0.828
 4051TIP3    H112159   2.464   3.211   0.837
 4051TIP3    H212160   2.578   3.237   0.740
 4052TIP3   OH212161   4.307   5.840   1.055
 4052TIP3    H112162   4.310   5.792   1.138
 4052TIP3    H212163   4.348   5.781   0.992
 4053TIP3   OH212164   4.346   0.595   0.756
 4053TIP3    H112165   4.321   0.685   0.781
 4053TIP3    H212166   4.286   0.539   0.805
 4054TIP3   OH212167   3.896   0.479   3.993
 4054TIP3    H112168   3.889   0.530   3.912
 4054TIP3    H212169   3.906   0.389   3.963
 4055TIP3   OH212170   1.095   3.134   4.786
 4055TIP3    H112171   1.072   3.118   4.694
 4055TIP3    H212172   1.188   3.156   4.783
 4056TIP3   OH212173   4.283   0.563   1.570
 4056TIP3    H112174   4.297   0.632   1.505
 4056TIP3    H212175   4.206   0.516   1.539
 4057TIP3   OH212176   4.301   0.086   4.675
 4057TIP3    H112177   4.382   0.136   4.681
 4057TIP3    H212178   4.328  -0.005   4.691
 4058TIP3   OH212179   5.878   4.925   2.698
 4058TIP3    H112180   5.953   4.957   2.748
 4058TIP3    H212181   5.857   4.840   2.739
 4059TIP3   OH212182   6.320   3.861   0.853
 4059TIP3    H112183   6.387   3.900   0.797
 4059TIP3    H212184   6.316   3.917   0.930
 4060TIP3   OH212185   6.096   5.615   1.516
 4060TIP3    H112186   6.190   5.597   1.508
 4060TIP3    H212187   6.074   5.587   1.604
 4061TIP3   OH212188   0.046   2.191   2.357
 4061TIP3    H112189   0.014   2.164   2.271
 4061TIP3    H212190   0.056   2.286   2.350
 4062TIP3   OH212191   3.417   0.171   0.590
 4062TIP3    H112192   3.421   0.076   0.586
 4062TIP3    H212193   3.377   0.197   0.507
 4063TIP3   OH212194   2.696   4.106   3.554
 4063TIP3    H112195   2.751   4.107   3.632
 4063TIP3    H212196   2.699   4.195   3.520
 4064TIP3   OH212197   5.771   0.922   1.992
 4064TIP3    H112198   5.773   0.936   2.087
 4064TIP3    H212199   5.854   0.957   1.961
 4065TIP3   OH212200   1.775   4.530   0.317
 4065TIP3    H112201   1.808   4.620   0.318
 4065TIP3    H212202   1.766   4.507   0.409
 4066TIP3   OH212203   1.908   1.924   4.018
 4066TIP3    H112204   1.946   1.998   3.972
 4066TIP3    H212205   1.885   1.861   3.950
 4067TIP3   OH212206   2.074   3.777   2.593
 4067TIP3    H112207   2.059   3.763   2.686
 4067TIP3    H212208   1.987   3.777   2.554
 4068TIP3   OH212209   4.487   4.155   4.824
 4068TIP3    H112210   4.523   4.228   4.773
 4068TIP3    H212211   4.538   4.079   4.794
 4069TIP3   OH212212   3.261   0.375   2.865
 4069TIP3    H112213   3.330   0.437   2.840
 4069TIP3    H212214   3.181   0.410   2.825
 4070TIP3   OH212215   2.439   4.261   1.854
 4070TIP3    H112216   2.397   4.346   1.871
 4070TIP3    H212217   2.532   4.281   1.847
 4071TIP3   OH212218   1.645   2.618   0.775
 4071TIP3    H112219   1.715   2.563   0.808
 4071TIP3    H212220   1.632   2.684   0.843
 4072TIP3   OH212221   2.188   1.654   3.623
 4072TIP3    H112222   2.217   1.620   3.539
 4072TIP3    H212223   2.269   1.685   3.665
 4073TIP3   OH212224   6.253   4.448   2.530
 4073TIP3    H112225   6.199   4.485   2.599
 4073TIP3    H212226   6.226   4.356   2.525
 4074TIP3   OH212227   0.384   5.932   1.166
 4074TIP3    H112228   0.408   5.897   1.080
 4074TIP3    H212229   0.288   5.931   1.167
 4075TIP3   OH212230   2.480   4.176   3.966
 4075TIP3    H112231   2.394   4.200   4.001
 4075TIP3    H212232   2.521   4.260   3.945
 4076TIP3   OH212233   1.123   5.307   2.490
 4076TIP3    H112234   1.205   5.280   2.447
 4076TIP3    H212235   1.119   5.401   2.477
 4077TIP3   OH212236   2.157   5.765   3.721
 4077TIP3    H112237   2.175   5.782   3.813
 4077TIP3    H212238   2.102   5.687   3.721
 4078TIP3   OH212239   0.896   1.892   0.759
 4078TIP3    H112240   0.817   1.939   0.786
 4078TIP3    H212241   0.885   1.804   0.794
 4079TIP3   OH212242   2.665   4.232   4.220
 4079TIP3    H112243   2.578   4.242   4.258
 4079TIP3    H212244   2.664   4.285   4.140
 4080TIP3   OH212245   0.899   0.063   4.907
 4080TIP3    H112246   0.906   0.146   4.860
 4080TIP3    H212247   0.951   0.002   4.855
 4081TIP3   OH212248   2.304   3.168   2.966
 4081TIP3    H112249   2.305   3.245   3.022
 4081TIP3    H212250   2.234   3.113   3.001
 4082TIP3   OH212251   1.823   5.439   1.995
 4082TIP3    H112252   1.782   5.481   1.919
 4082TIP3    H212253   1.830   5.347   1.970
 4083TIP3   OH212254   5.790   0.225   0.624
 4083TIP3    H112255   5.777   0.311   0.664
 4083TIP3    H212256   5.715   0.215   0.565
 4084TIP3   OH212257   0.037   1.946   4.196
 4084TIP3    H112258  -0.021   2.021   4.182
 4084TIP3    H212259   0.001   1.878   4.139
 4085TIP3   OH212260   3.852   4.613   0.041
 4085TIP3    H112261   3.776   4.591  -0.013
 4085TIP3    H212262   3.869   4.535   0.092
 4086TIP3   OH212263   4.335   5.709   0.202
 4086TIP3    H112264   4.300   5.740   0.118
 4086TIP3    H212265   4.260   5.710   0.261
 4087TIP3   OH212266   6.192   1.929   4.896
 4087TIP3    H112267   6.236   1.988   4.957
 4087TIP3    H212268   6.243   1.848   4.899
 4088TIP3   OH212269   0.335   1.404   1.761
 4088TIP3    H112270   0.414   1.455   1.744
 4088TIP3    H212271   0.263   1.465   1.746
 4089TIP3   OH212272   5.354   0.318   3.969
 4089TIP3    H112273   5.330   0.228   3.946
 4089TIP3    H212274   5.302   0.372   3.910
 4090TIP3   OH212275   2.017   3.828   0.922
 4090TIP3    H112276   1.930   3.869   0.919
 4090TIP3    H212277   2.035   3.818   1.015
 4091TIP3   OH212278   4.506   0.941   0.861
 4091TIP3    H112279   4.530   0.947   0.769
 4091TIP3    H212280   4.574   0.991   0.907
 4092TIP3   OH212281   1.164   5.030   0.216
 4092TIP3    H112282   1.188   4.938   0.206
 4092TIP3    H212283   1.068   5.030   0.213
 4093TIP3   OH212284   0.894   5.776   4.031
 4093TIP3    H112285   0.964   5.780   3.966
 4093TIP3    H212286   0.893   5.685   4.060
 4094TIP3   OH212287   4.826   5.638   3.979
 4094TIP3    H112288   4.864   5.558   4.017
 4094TIP3    H212289   4.740   5.610   3.947
 4095TIP3   OH212290   3.178   3.351   2.842
 4095TIP3    H112291   3.153   3.437   2.809
 4095TIP3    H212292   3.108   3.327   2.902
 4096TIP3   OH212293   2.722   5.029   4.891
 4096TIP3    H112294   2.669   5.045   4.969
 4096TIP3    H212295   2.801   5.080   4.904
 4097TIP3   OH212296   5.588   2.456   4.160
 4097TIP3    H112297   5.601   2.399   4.084
 4097TIP3    H212298   5.504   2.498   4.145
 4098TIP3   OH212299   3.532   3.866   1.855
 4098TIP3    H112300   3.590   3.895   1.925
 4098TIP3    H212301   3.497   3.946   1.818
 4099TIP3   OH212302   1.920   0.559   3.853
 4099TIP3    H112303   1.955   0.629   3.799
 4099TIP3    H212304   1.978   0.485   3.839
 4100TIP3   OH212305   3.696   3.048   4.833
 4100TIP3    H112306   3.605   3.020   4.823
 4100TIP3    H212307   3.736   2.982   4.890
 4101TIP3   OH212308   2.564   5.646   0.339
 4101TIP3    H112309   2.607   5.589   0.276
 4101TIP3    H212310   2.593   5.734   0.316
 4102TIP3   OH212311   0.694   5.810   0.207
 4102TIP3    H112312   0.712   5.878   0.141
 4102TIP3    H212313   0.708   5.727   0.161
 4103TIP3   OH212314   5.427   0.878   2.707
 4103TIP3    H112315   5.485   0.806   2.732
 4103TIP3    H212316   5.434   0.941   2.779
 4104TIP3   OH212317   4.366   4.691   0.063
 4104TIP3    H112318   4.437   4.684  -0.001
 4104TIP3    H212319   4.306   4.755   0.026
 4105TIP3   OH212320   5.700   2.084   2.957
 4105TIP3    H112321   5.770   2.145   2.978
 4105TIP3    H212322   5.623   2.140   2.945
 4106TIP3   OH212323   4.216   0.281   0.581
 4106TIP3    H112324   4.290   0.231   0.613
 4106TIP3    H212325   4.149   0.216   0.562
 4107TIP3   OH212326   0.308   0.398   2.157
 4107TIP3    H112327   0.283   0.334   2.223
 4107TIP3    H212328   0.252   0.377   2.082
 4108TIP3   OH212329   5.978   3.770   1.965
 4108TIP3    H112330   6.058   3.817   1.989
 4108TIP3    H212331   5.988   3.684   2.006
 4109TIP3   OH212332   3.254   1.941   1.818
 4109TIP3    H112333   3.238   1.876   1.750
 4109TIP3    H212334   3.237   2.025   1.775
 4110TIP3   OH212335   6.029   0.779   2.759
 4110TIP3    H112336   6.032   0.837   2.683
 4110TIP3    H212337   6.055   0.834   2.832
 4111TIP3   OH212338   3.580   5.837   2.700
 4111TIP3    H112339   3.528   5.836   2.781
 4111TIP3    H212340   3.670   5.844   2.731
 4112TIP3   OH212341   5.014   2.358   5.056
 4112TIP3    H112342   5.077   2.396   4.994
 4112TIP3    H212343   5.067   2.297   5.108
 4113TIP3   OH212344   1.057   5.864   0.760
 4113TIP3    H112345   0.976   5.813   0.769
 4113TIP3    H212346   1.040   5.945   0.807
 4114TIP3   OH212347   3.136   4.900   1.740
 4114TIP3    H112348   3.092   4.984   1.746
 4114TIP3    H212349   3.208   4.915   1.679
 4115TIP3   OH212350   3.131   4.249   1.654
 4115TIP3    H112351   3.132   4.188   1.580
 4115TIP3    H212352   3.113   4.334   1.614
 4116TIP3   OH212353   5.656   5.248   2.864
 4116TIP3    H112354   5.744   5.233   2.899
 4116TIP3    H212355   5.617   5.162   2.859
 4117TIP3   OH212356   0.254   1.733   3.551
 4117TIP3    H112357   0.261   1.654   3.603
 4117TIP3    H212358   0.286   1.709   3.465
 4118TIP3   OH212359   4.670   3.301   5.171
 4118TIP3    H112360   4.677   3.205   5.176
 4118TIP3    H212361   4.581   3.317   5.140
 4119TIP3   OH212362   4.124   1.220   1.830
 4119TIP3    H112363   4.200   1.244   1.883
 4119TIP3    H212364   4.161   1.184   1.749
 4120TIP3   OH212365   1.595   3.097   1.143
 4120TIP3    H112366   1.527   3.076   1.208
 4120TIP3    H212367   1.573   3.184   1.111
 4121TIP3   OH212368   3.920   3.284   1.184
 4121TIP3    H112369   3.879   3.280   1.271
 4121TIP3    H212370   3.856   3.242   1.126
 4122TIP3   OH212371   0.213   4.189   3.998
 4122TIP3    H112372   0.297   4.186   4.044
 4122TIP3    H212373   0.161   4.120   4.040
 4123TIP3   OH212374   3.425   1.635   0.570
 4123TIP3    H112375   3.404   1.724   0.543
 4123TIP3    H212376   3.520   1.636   0.584
 4124TIP3   OH212377   3.302   4.772   3.337
 4124TIP3    H112378   3.286   4.800   3.247
 4124TIP3    H212379   3.321   4.853   3.385
 4125TIP3   OH212380   3.373   3.878   2.722
 4125TIP3    H112381   3.363   3.928   2.804
 4125TIP3    H212382   3.288   3.837   2.709
 4126TIP3   OH212383   5.675   1.596   5.139
 4126TIP3    H112384   5.757   1.633   5.170
 4126TIP3    H212385   5.689   1.577   5.047
 4127TIP3   OH212386   4.656   4.390   1.968
 4127TIP3    H112387   4.686   4.359   2.053
 4127TIP3    H212388   4.566   4.420   1.983
 4128TIP3   OH212389   2.391   0.123   3.452
 4128TIP3    H112390   2.322   0.090   3.510
 4128TIP3    H212391   2.348   0.193   3.403
 4129TIP3   OH212392   4.368   5.382   1.953
 4129TIP3    H112393   4.304   5.334   1.901
 4129TIP3    H212394   4.445   5.387   1.897
 4130TIP3   OH212395   1.516   5.148   0.168
 4130TIP3    H112396   1.481   5.106   0.090
 4130TIP3    H212397   1.448   5.210   0.195
 4131TIP3   OH212398   4.610   2.801   4.282
 4131TIP3    H112399   4.571   2.884   4.254
 4131TIP3    H212400   4.665   2.823   4.356
 4132TIP3   OH212401   4.628   1.844   4.911
 4132TIP3    H112402   4.654   1.933   4.937
 4132TIP3    H212403   4.550   1.826   4.963
 4133TIP3   OH212404   1.237   5.726   3.721
 4133TIP3    H112405   1.275   5.647   3.759
 4133TIP3    H212406   1.176   5.694   3.654
 4134TIP3   OH212407   5.029   1.389   3.758
 4134TIP3    H112408   5.028   1.296   3.737
 4134TIP3    H212409   5.122   1.410   3.770
 4135TIP3   OH212410   0.162   5.070   1.854
 4135TIP3    H112411   0.185   5.162   1.867
 4135TIP3    H212412   0.067   5.068   1.860
 4136TIP3   OH212413   3.819   5.318   3.209
 4136TIP3    H112414   3.751   5.345   3.147
 4136TIP3    H212415   3.900   5.354   3.173
 4137TIP3   OH212416   4.018   5.130   4.185
 4137TIP3    H112417   3.986   5.042   4.167
 4137TIP3    H212418   3.968   5.159   4.262
 4138TIP3   OH212419   1.510   1.883   3.114
 4138TIP3    H112420   1.420   1.877   3.147
 4138TIP3    H212421   1.548   1.798   3.135
 4139TIP3   OH212422   0.243   2.060   5.143
 4139TIP3    H112423   0.250   1.965   5.153
 4139TIP3    H212424   0.231   2.074   5.049
 4140TIP3   OH212425   2.626   1.328   0.674
 4140TIP3    H112426   2.591   1.297   0.757
 4140TIP3    H212427   2.615   1.253   0.614
 4141TIP3   OH212428   4.222   2.427   2.558
 4141TIP3    H112429   4.143   2.480   2.557
 4141TIP3    H212430   4.220   2.381   2.642
 4142TIP3   OH212431   2.956   0.701   4.896
 4142TIP3    H112432   2.964   0.669   4.986
 4142TIP3    H212433   2.874   0.663   4.864
 4143TIP3   OH212434   1.800   3.212   0.412
 4143TIP3    H112435   1.792   3.172   0.325
 4143TIP3    H212436   1.774   3.143   0.473
 4144TIP3   OH212437   3.261   5.923   2.875
 4144TIP3    H112438   3.269   6.010   2.835
 4144TIP3    H212439   3.334   5.918   2.936
 4145TIP3   OH212440   0.040   5.443   0.250
 4145TIP3    H112441   0.050   5.489   0.167
 4145TIP3    H212442   0.031   5.512   0.315
 4146TIP3   OH212443   1.023   4.663   0.579
 4146TIP3    H112444   0.990   4.752   0.595
 4146TIP3    H212445   0.993   4.612   0.655
 4147TIP3   OH212446   1.887   0.268   1.175
 4147TIP3    H112447   1.972   0.306   1.150
 4147TIP3    H212448   1.840   0.259   1.092
 4148TIP3   OH212449   3.116   4.705   1.417
 4148TIP3    H112450   3.075   4.724   1.334
 4148TIP3    H212451   3.156   4.788   1.444
 4149TIP3   OH212452   5.886   3.822   2.218
 4149TIP3    H112453   5.892   3.731   2.187
 4149TIP3    H212454   5.911   3.874   2.142
 4150TIP3   OH212455   1.610   4.133   0.975
 4150TIP3    H112456   1.581   4.216   0.937
 4150TIP3    H212457   1.530   4.092   1.007
 4151TIP3   OH212458   2.378   1.393   0.484
 4151TIP3    H112459   2.465   1.432   0.475
 4151TIP3    H212460   2.342   1.394   0.395
 4152TIP3   OH212461   2.113   0.133   0.804
 4152TIP3    H112462   2.052   0.162   0.736
 4152TIP3    H212463   2.057   0.091   0.869
 4153TIP3   OH212464   5.688   2.736   4.989
 4153TIP3    H112465   5.620   2.802   4.977
 4153TIP3    H212466   5.770   2.782   4.974
 4154TIP3   OH212467   3.851   2.636   1.884
 4154TIP3    H112468   3.894   2.553   1.902
 4154TIP3    H212469   3.818   2.665   1.969
 4155TIP3   OH212470   1.382   3.016   1.287
 4155TIP3    H112471   1.310   2.960   1.258
 4155TIP3    H212472   1.345   3.067   1.360
 4156TIP3   OH212473   5.855   0.471   2.929
 4156TIP3    H112474   5.857   0.413   2.853
 4156TIP3    H212475   5.856   0.559   2.891
 4157TIP3   OH212476   3.812   1.581   1.397
 4157TIP3    H112477   3.759   1.659   1.412
 4157TIP3    H212478   3.902   1.611   1.404
 4158TIP3   OH212479   2.689   5.905   1.462
 4158TIP3    H112480   2.619   5.844   1.485
 4158TIP3    H212481   2.655   5.954   1.388
 4159TIP3   OH212482   3.041   2.345   1.127
 4159TIP3    H112483   3.007   2.260   1.099
 4159TIP3    H212484   3.126   2.325   1.167
 4160TIP3   OH212485   2.433   1.952   0.831
 4160TIP3    H112486   2.429   2.027   0.890
 4160TIP3    H212487   2.432   1.876   0.889
 4161TIP3   OH212488   4.260   5.167   3.472
 4161TIP3    H112489   4.281   5.232   3.539
 4161TIP3    H212490   4.245   5.219   3.393
 4162TIP3   OH212491   0.951   2.433   2.117
 4162TIP3    H112492   0.862   2.457   2.144
 4162TIP3    H212493   0.961   2.472   2.030
 4163TIP3   OH212494   4.500   4.629   2.573
 4163TIP3    H112495   4.438   4.581   2.629
 4163TIP3    H212496   4.460   4.715   2.561
 4164TIP3   OH212497   3.310   3.964   3.193
 4164TIP3    H112498   3.298   3.972   3.099
 4164TIP3    H212499   3.243   3.901   3.221
 4165TIP3   OH212500   4.034   1.707   3.206
 4165TIP3    H112501   4.060   1.674   3.120
 4165TIP3    H212502   4.117   1.727   3.251
 4166TIP3   OH212503   4.496   4.589   3.964
 4166TIP3    H112504   4.568   4.567   3.905
 4166TIP3    H212505   4.440   4.648   3.913
 4167TIP3   OH212506   2.413   2.786   0.135
 4167TIP3    H112507   2.396   2.836   0.055
 4167TIP3    H212508   2.508   2.775   0.138
 4168TIP3   OH212509   2.581   2.483   1.398
 4168TIP3    H112510   2.630   2.455   1.320
 4168TIP3    H212511   2.489   2.481   1.370
 4169TIP3   OH212512   5.718   2.344   1.950
 4169TIP3    H112513   5.765   2.402   1.891
 4169TIP3    H212514   5.772   2.341   2.029
 4170TIP3   OH212515   1.642   3.957   2.151
 4170TIP3    H112516   1.715   3.942   2.090
 4170TIP3    H212517   1.670   4.032   2.203
 4171TIP3   OH212518   2.074   1.118   0.372
 4171TIP3    H112519   2.040   1.208   0.381
 4171TIP3    H212520   2.162   1.129   0.336
 4172TIP3   OH212521   3.983   1.227   4.318
 4172TIP3    H112522   4.035   1.146   4.318
 4172TIP3    H212523   3.902   1.202   4.362
 4173TIP3   OH212524   4.053   3.439   4.482
 4173TIP3    H112525   3.987   3.506   4.496
 4173TIP3    H212526   4.041   3.410   4.392
 4174TIP3   OH212527   5.758   1.404   4.480
 4174TIP3    H112528   5.700   1.433   4.410
 4174TIP3    H212529   5.837   1.374   4.434
 4175TIP3   OH212530   4.557   4.527   4.234
 4175TIP3    H112531   4.481   4.561   4.281
 4175TIP3    H212532   4.540   4.549   4.142
 4176TIP3   OH212533   5.554   3.749   3.252
 4176TIP3    H112534   5.609   3.675   3.276
 4176TIP3    H212535   5.594   3.784   3.172
 4177TIP3   OH212536   0.443   0.802   1.232
 4177TIP3    H112537   0.475   0.730   1.177
 4177TIP3    H212538   0.357   0.774   1.261
 4178TIP3   OH212539   1.991   5.195   1.254
 4178TIP3    H112540   1.898   5.188   1.276
 4178TIP3    H212541   1.995   5.175   1.161
 4179TIP3   OH212542   6.217   1.495   1.932
 4179TIP3    H112543   6.276   1.441   1.880
 4179TIP3    H212544   6.245   1.585   1.914
 4180TIP3   OH212545   2.822   3.215   5.157
 4180TIP3    H112546   2.743   3.212   5.103
 4180TIP3    H212547   2.893   3.194   5.097
 4181TIP3   OH212548   4.907   0.288   2.576
 4181TIP3    H112549   4.872   0.241   2.499
 4181TIP3    H212550   4.913   0.379   2.547
 4182TIP3   OH212551   0.059   5.406   4.788
 4182TIP3    H112552   0.048   5.399   4.693
 4182TIP3    H212553   0.151   5.388   4.803
 4183TIP3   OH212554   1.171   2.229   0.627
 4183TIP3    H112555   1.240   2.224   0.693
 4183TIP3    H212556   1.090   2.236   0.676
 4184TIP3   OH212557   1.854   1.493   3.894
 4184TIP3    H112558   1.839   1.586   3.879
 4184TIP3    H212559   1.768   1.452   3.883
 4185TIP3   OH212560   5.467   5.512   2.305
 4185TIP3    H112561   5.442   5.444   2.367
 4185TIP3    H212562   5.385   5.539   2.264
 4186TIP3   OH212563   0.991   1.962   4.306
 4186TIP3    H112564   0.990   2.050   4.269
 4186TIP3    H212565   1.026   1.973   4.394
 4187TIP3   OH212566   4.844   0.533   0.128
 4187TIP3    H112567   4.809   0.608   0.080
 4187TIP3    H212568   4.892   0.483   0.062
 4188TIP3   OH212569   5.627   2.908   2.170
 4188TIP3    H112570   5.680   2.912   2.249
 4188TIP3    H212571   5.690   2.903   2.098
 4189TIP3   OH212572   4.224   2.943   0.229
 4189TIP3    H112573   4.179   3.014   0.182
 4189TIP3    H212574   4.254   2.983   0.311
 4190TIP3   OH212575   5.078   3.773   0.811
 4190TIP3    H112576   5.088   3.867   0.820
 4190TIP3    H212577   5.167   3.739   0.809
 4191TIP3   OH212578   2.030   2.167   0.982
 4191TIP3    H112579   2.011   2.205   1.068
 4191TIP3    H212580   1.943   2.149   0.944
 4192TIP3   OH212581   1.630   2.756   2.810
 4192TIP3    H112582   1.674   2.671   2.805
 4192TIP3    H212583   1.570   2.747   2.884
 4193TIP3   OH212584   1.307   3.067   2.389
 4193TIP3    H112585   1.233   3.071   2.448
 4193TIP3    H212586   1.282   3.002   2.323
 4194TIP3   OH212587   3.653   1.799   3.846
 4194TIP3    H112588   3.671   1.708   3.868
 4194TIP3    H212589   3.566   1.797   3.806
 4195TIP3   OH212590   4.784   2.297   1.096
 4195TIP3    H112591   4.846   2.284   1.167
 4195TIP3    H212592   4.707   2.247   1.122
 4196TIP3   OH212593   6.051   0.971   0.230
 4196TIP3    H112594   6.000   0.896   0.200
 4196TIP3    H212595   6.057   0.960   0.325
 4197TIP3   OH212596   2.973   5.867   2.730
 4197TIP3    H112597   2.966   5.951   2.776
 4197TIP3    H212598   2.889   5.824   2.744
 4198TIP3   OH212599   5.555   3.844   1.587
 4198TIP3    H112600   5.562   3.940   1.588
 4198TIP3    H212601   5.640   3.814   1.617
 4199TIP3   OH212602   3.190   3.400   4.898
 4199TIP3    H112603   3.218   3.439   4.815
 4199TIP3    H212604   3.115   3.345   4.874
 4200TIP3   OH212605   0.895   5.056   4.845
 4200TIP3    H112606   0.917   5.104   4.766
 4200TIP3    H212607   0.923   5.113   4.917
 4201TIP3   OH212608   4.212   0.606   4.618
 4201TIP3    H112609   4.200   0.596   4.524
 4201TIP3    H212610   4.138   0.661   4.646
 4202TIP3   OH212611   2.448   4.649   1.046
 4202TIP3    H112612   2.404   4.628   1.129
 4202TIP3    H212613   2.402   4.596   0.981
 4203TIP3   OH212614   2.848   5.638   4.906
 4203TIP3    H112615   2.782   5.580   4.945
 4203TIP3    H212616   2.800   5.689   4.840
 4204TIP3   OH212617   2.946   4.150   0.740
 4204TIP3    H112618   2.862   4.179   0.775
 4204TIP3    H212619   2.990   4.230   0.712
 4205TIP3   OH212620   3.057   3.916   4.006
 4205TIP3    H112621   2.965   3.892   3.996
 4205TIP3    H212622   3.090   3.923   3.916
 4206TIP3   OH212623   0.828   1.763   2.298
 4206TIP3    H112624   0.908   1.808   2.269
 4206TIP3    H212625   0.859   1.700   2.364
 4207TIP3   OH212626   3.723   3.161   3.546
 4207TIP3    H112627   3.666   3.218   3.597
 4207TIP3    H212628   3.703   3.073   3.578
 4208TIP3   OH212629   5.347   5.299   2.499
 4208TIP3    H112630   5.320   5.345   2.578
 4208TIP3    H212631   5.266   5.261   2.464
 4209TIP3   OH212632   0.516   5.292   1.181
 4209TIP3    H112633   0.460   5.366   1.206
 4209TIP3    H212634   0.466   5.215   1.208
 4210TIP3   OH212635   3.734   2.463   0.536
 4210TIP3    H112636   3.721   2.469   0.631
 4210TIP3    H212637   3.829   2.471   0.525
 4211TIP3   OH212638   4.927   2.376   2.316
 4211TIP3    H112639   4.865   2.400   2.248
 4211TIP3    H212640   5.000   2.336   2.269
 4212TIP3   OH212641   1.179   0.075   4.002
 4212TIP3    H112642   1.177   0.167   4.029
 4212TIP3    H212643   1.157   0.026   4.081
 4213TIP3   OH212644   0.296   3.312   2.858
 4213TIP3    H112645   0.215   3.277   2.821
 4213TIP3    H212646   0.283   3.407   2.861
 4214TIP3   OH212647   4.636   0.520   2.675
 4214TIP3    H112648   4.588   0.574   2.738
 4214TIP3    H212649   4.651   0.437   2.721
 4215TIP3   OH212650   0.612   2.289   4.526
 4215TIP3    H112651   0.525   2.288   4.486
 4215TIP3    H212652   0.661   2.353   4.476
 4216TIP3   OH212653   5.175   0.142   3.353
 4216TIP3    H112654   5.237   0.096   3.409
 4216TIP3    H212655   5.182   0.097   3.268
 4217TIP3   OH212656   0.350   3.056   0.065
 4217TIP3    H112657   0.371   3.056  -0.029
 4217TIP3    H212658   0.383   2.972   0.097
 4218TIP3   OH212659   2.495   0.430   1.350
 4218TIP3    H112660   2.405   0.448   1.379
 4218TIP3    H212661   2.537   0.516   1.349
 4219TIP3   OH212662   0.805   4.515   1.677
 4219TIP3    H112663   0.710   4.503   1.683
 4219TIP3    H212664   0.841   4.435   1.718
 4220TIP3   OH212665   4.547   1.523   3.333
 4220TIP3    H112666   4.605   1.581   3.284
 4220TIP3    H212667   4.578   1.529   3.423
 4221TIP3   OH212668   1.528   3.387   2.687
 4221TIP3    H112669   1.598   3.419   2.630
 4221TIP3    H212670   1.570   3.321   2.742
 4222TIP3   OH212671   2.809   4.543   3.684
 4222TIP3    H112672   2.904   4.545   3.682
 4222TIP3    H212673   2.785   4.605   3.753
 4223TIP3   OH212674   2.860   0.685   4.293
 4223TIP3    H112675   2.946   0.653   4.263
 4223TIP3    H212676   2.880   0.760   4.349
 4224TIP3   OH212677   0.085   2.920   4.968
 4224TIP3    H112678   0.137   2.956   5.039
 4224TIP3    H212679   0.133   2.944   4.888
 4225TIP3   OH212680   0.451   1.087   5.163
 4225TIP3    H112681   0.503   1.046   5.094
 4225TIP3    H212682   0.478   1.041   5.243
 4226TIP3   OH212683   4.098   4.509   1.187
 4226TIP3    H112684   4.105   4.447   1.115
 4226TIP3    H212685   4.115   4.595   1.147
 4227TIP3   OH212686   1.216   0.215   4.243
 4227TIP3    H112687   1.298   0.264   4.236
 4227TIP3    H212688   1.170   0.256   4.317
 4228TIP3   OH212689   3.950   1.517   5.151
 4228TIP3    H112690   3.875   1.576   5.157
 4228TIP3    H212691   3.912   1.432   5.131
 4229TIP3   OH212692   2.094   2.566   1.443
 4229TIP3    H112693   2.068   2.657   1.454
 4229TIP3    H212694   2.091   2.529   1.531
 4230TIP3   OH212695   2.455   1.603   0.850
 4230TIP3    H112696   2.410   1.557   0.921
 4230TIP3    H212697   2.548   1.598   0.874
 4231TIP3   OH212698   2.747   3.700   3.671
 4231TIP3    H112699   2.765   3.723   3.762
 4231TIP3    H212700   2.826   3.727   3.623
 4232TIP3   OH212701   2.344   2.128   4.408
 4232TIP3    H112702   2.388   2.052   4.447
 4232TIP3    H212703   2.403   2.157   4.338
 4233TIP3   OH212704   4.827   2.955   3.764
 4233TIP3    H112705   4.873   2.871   3.757
 4233TIP3    H212706   4.807   2.979   3.673
 4234TIP3   OH212707   3.044   5.898   3.064
 4234TIP3    H112708   3.016   5.989   3.074
 4234TIP3    H212709   3.091   5.897   2.981
 4235TIP3   OH212710   1.471   1.652   4.706
 4235TIP3    H112711   1.528   1.575   4.700
 4235TIP3    H212712   1.392   1.620   4.748
 4236TIP3   OH212713   4.614   3.012   5.057
 4236TIP3    H112714   4.633   2.918   5.049
 4236TIP3    H212715   4.617   3.044   4.967
 4237TIP3   OH212716   5.155   0.879   4.194
 4237TIP3    H112717   5.107   0.891   4.275
 4237TIP3    H212718   5.161   0.967   4.156
 4238TIP3   OH212719   4.889   0.545   3.592
 4238TIP3    H112720   4.947   0.480   3.552
 4238TIP3    H212721   4.865   0.603   3.519
 4239TIP3   OH212722   5.397   0.701   0.398
 4239TIP3    H112723   5.307   0.714   0.430
 4239TIP3    H212724   5.386   0.671   0.308
 4240TIP3   OH212725   3.998   4.916   0.981
 4240TIP3    H112726   4.053   4.839   0.962
 4240TIP3    H212727   3.928   4.882   1.037
 4241TIP3   OH212728   4.077   3.696   1.055
 4241TIP3    H112729   4.107   3.718   0.966
 4241TIP3    H212730   4.153   3.716   1.110
 4242TIP3   OH212731   0.282   0.958   3.107
 4242TIP3    H112732   0.187   0.968   3.111
 4242TIP3    H212733   0.296   0.880   3.053
 4243TIP3   OH212734   5.961   1.851   3.752
 4243TIP3    H112735   5.999   1.817   3.833
 4243TIP3    H212736   5.880   1.802   3.742
 4244TIP3   OH212737   0.448   5.336   3.551
 4244TIP3    H112738   0.496   5.397   3.494
 4244TIP3    H212739   0.356   5.347   3.525
 4245TIP3   OH212740   4.767   0.634   0.416
 4245TIP3    H112741   4.835   0.677   0.468
 4245TIP3    H212742   4.718   0.706   0.376
 4246TIP3   OH212743   3.763   4.417   4.044
 4246TIP3    H112744   3.742   4.510   4.041
 4246TIP3    H212745   3.831   4.405   3.978
 4247TIP3   OH212746   4.936   3.326   1.808
 4247TIP3    H112747   4.847   3.348   1.782
 4247TIP3    H212748   4.926   3.284   1.894
 4248TIP3   OH212749   0.142   5.346   4.206
 4248TIP3    H112750   0.227   5.311   4.233
 4248TIP3    H212751   0.124   5.304   4.122
 4249TIP3   OH212752   4.384   0.095   3.586
 4249TIP3    H112753   4.416   0.184   3.599
 4249TIP3    H212754   4.452   0.051   3.535
 4250TIP3   OH212755   0.700   5.826   1.567
 4250TIP3    H112756   0.611   5.822   1.600
 4250TIP3    H212757   0.702   5.905   1.512
 4251TIP3   OH212758   6.288   0.675   3.560
 4251TIP3    H112759   6.352   0.730   3.516
 4251TIP3    H212760   6.335   0.637   3.634
 4252TIP3   OH212761   2.338   3.658   0.986
 4252TIP3    H112762   2.409   3.722   0.974
 4252TIP3    H212763   2.383   3.575   1.003
 4253TIP3   OH212764   6.278   0.574   1.325
 4253TIP3    H112765   6.187   0.591   1.349
 4253TIP3    H212766   6.292   0.482   1.346
 4254TIP3   OH212767   2.578   4.013   3.218
 4254TIP3    H112768   2.668   3.992   3.245
 4254TIP3    H212769   2.524   3.954   3.270
 4255TIP3   OH212770   1.537   1.067   3.377
 4255TIP3    H112771   1.608   1.126   3.352
 4255TIP3    H212772   1.582   0.990   3.414
 4256TIP3   OH212773   3.739   4.590   5.017
 4256TIP3    H112774   3.666   4.544   5.059
 4256TIP3    H212775   3.784   4.522   4.966
 4257TIP3   OH212776   4.553   3.884   3.196
 4257TIP3    H112777   4.622   3.825   3.167
 4257TIP3    H212778   4.573   3.902   3.288
 4258TIP3   OH212779   2.024   4.614   3.897
 4258TIP3    H112780   2.096   4.561   3.932
 4258TIP3    H212781   1.949   4.555   3.900
 4259TIP3   OH212782   0.596   0.250   3.778
 4259TIP3    H112783   0.526   0.236   3.715
 4259TIP3    H212784   0.576   0.189   3.850
 4260TIP3   OH212785   5.078   0.284   4.572
 4260TIP3    H112786   5.113   0.292   4.483
 4260TIP3    H212787   5.029   0.365   4.586
 4261TIP3   OH212788   2.002   5.177   0.827
 4261TIP3    H112789   1.923   5.229   0.812
 4261TIP3    H212790   2.055   5.231   0.887
 4262TIP3   OH212791   3.209   4.701   4.476
 4262TIP3    H112792   3.224   4.609   4.498
 4262TIP3    H212793   3.171   4.739   4.555
 4263TIP3   OH212794   3.084   0.061   1.712
 4263TIP3    H112795   3.116   0.005   1.783
 4263TIP3    H212796   2.997   0.027   1.692
 4264TIP3   OH212797   5.002   1.365   4.503
 4264TIP3    H112798   4.995   1.301   4.433
 4264TIP3    H212799   5.024   1.314   4.581
 4265TIP3   OH212800   0.998   5.474   3.734
 4265TIP3    H112801   1.057   5.401   3.719
 4265TIP3    H212802   0.984   5.476   3.829
 4266TIP3   OH212803   0.089   3.483   5.138
 4266TIP3    H112804   0.146   3.554   5.169
 4266TIP3    H212805   0.013   3.527   5.101
 4267TIP3   OH212806   6.009   1.220   4.675
 4267TIP3    H112807   6.046   1.138   4.642
 4267TIP3    H212808   5.997   1.274   4.597
 4268TIP3   OH212809   0.955   1.230   4.200
 4268TIP3    H112810   1.026   1.191   4.250
 4268TIP3    H212811   0.882   1.238   4.262
 4269TIP3   OH212812   0.756   4.696   2.108
 4269TIP3    H112813   0.724   4.719   2.021
 4269TIP3    H212814   0.692   4.734   2.168
 4270TIP3   OH212815   5.363   3.771   4.451
 4270TIP3    H112816   5.449   3.798   4.418
 4270TIP3    H212817   5.302   3.837   4.417
 4271TIP3   OH212818   4.635   2.712   0.814
 4271TIP3    H112819   4.658   2.694   0.722
 4271TIP3    H212820   4.619   2.625   0.852
 4272TIP3   OH212821   5.227   0.604   1.574
 4272TIP3    H112822   5.161   0.543   1.607
 4272TIP3    H212823   5.178   0.684   1.554
 4273TIP3   OH212824   1.197   3.506   2.606
 4273TIP3    H112825   1.165   3.488   2.518
 4273TIP3    H212826   1.292   3.509   2.598
 4274TIP3   OH212827   3.131   4.261   2.834
 4274TIP3    H112828   3.095   4.309   2.908
 4274TIP3    H212829   3.056   4.249   2.775
 4275TIP3   OH212830   3.495   2.128   0.506
 4275TIP3    H112831   3.518   2.149   0.597
 4275TIP3    H212832   3.458   2.039   0.511
 4276TIP3   OH212833   4.592   3.779   0.721
 4276TIP3    H112834   4.665   3.760   0.781
 4276TIP3    H212835   4.607   3.870   0.695
 4277TIP3   OH212836   0.584   2.255   1.953
 4277TIP3    H112837   0.492   2.248   1.928
 4277TIP3    H212838   0.583   2.305   2.034
 4278TIP3   OH212839   1.778   3.865   3.453
 4278TIP3    H112840   1.786   3.771   3.435
 4278TIP3    H212841   1.866   3.899   3.441
 4279TIP3   OH212842   2.261   4.744   4.120
 4279TIP3    H112843   2.209   4.768   4.197
 4279TIP3    H212844   2.277   4.650   4.130
 4280TIP3   OH212845   0.860   4.465   3.365
 4280TIP3    H112846   0.902   4.550   3.377
 4280TIP3    H212847   0.866   4.422   3.451
 4281TIP3   OH212848   2.850   2.749   1.222
 4281TIP3    H112849   2.780   2.814   1.226
 4281TIP3    H212850   2.895   2.757   1.306
 4282TIP3   OH212851   2.061   4.551   3.067
 4282TIP3    H112852   2.143   4.587   3.032
 4282TIP3    H212853   2.005   4.628   3.081
 4283TIP3   OH212854   5.012   5.145   1.634
 4283TIP3    H112855   5.066   5.085   1.583
 4283TIP3    H212856   4.933   5.095   1.655
 4284TIP3   OH212857   2.156   0.383   1.454
 4284TIP3    H112858   2.198   0.310   1.408
 4284TIP3    H212859   2.195   0.381   1.541
 4285TIP3   OH212860   4.686   1.093   1.431
 4285TIP3    H112861   4.676   1.182   1.395
 4285TIP3    H212862   4.626   1.090   1.505
 4286TIP3   OH212863   5.091   4.339   2.403
 4286TIP3    H112864   5.125   4.384   2.481
 4286TIP3    H212865   5.088   4.247   2.429
 4287TIP3   OH212866   2.913   2.014   4.769
 4287TIP3    H112867   2.925   2.105   4.794
 4287TIP3    H212868   2.988   1.968   4.808
 4288TIP3   OH212869   1.768   2.508   2.159
 4288TIP3    H112870   1.760   2.466   2.245
 4288TIP3    H212871   1.862   2.502   2.138
 4289TIP3   OH212872   2.359   1.216   2.530
 4289TIP3    H112873   2.350   1.123   2.507
 4289TIP3    H212874   2.271   1.241   2.559
 4290TIP3   OH212875   0.232   1.253   2.850
 4290TIP3    H112876   0.200   1.331   2.804
 4290TIP3    H212877   0.327   1.261   2.850
 4291TIP3   OH212878   5.979   4.446   0.827
 4291TIP3    H112879   5.986   4.541   0.814
 4291TIP3    H212880   6.070   4.416   0.833
 4292TIP3   OH212881   4.313   2.669   0.042
 4292TIP3    H112882   4.370   2.745   0.054
 4292TIP3    H212883   4.311   2.627   0.128
 4293TIP3   OH212884   5.730   3.665   0.823
 4293TIP3    H112885   5.814   3.619   0.818
 4293TIP3    H212886   5.664   3.597   0.809
 4294TIP3   OH212887   2.690   2.184   4.358
 4294TIP3    H112888   2.702   2.091   4.374
 4294TIP3    H212889   2.747   2.227   4.422
 4295TIP3   OH212890   0.495   2.417   0.136
 4295TIP3    H112891   0.490   2.507   0.167
 4295TIP3    H212892   0.424   2.372   0.181
 4296TIP3   OH212893   5.943   3.262   4.413
 4296TIP3    H112894   5.958   3.313   4.334
 4296TIP3    H212895   5.924   3.174   4.381
 4297TIP3   OH212896   1.122   3.812   5.081
 4297TIP3    H112897   1.148   3.903   5.073
 4297TIP3    H212898   1.081   3.791   4.997
 4298TIP3   OH212899   3.288   2.094   2.844
 4298TIP3    H112900   3.342   2.021   2.813
 4298TIP3    H212901   3.348   2.168   2.848
 4299TIP3   OH212902   6.288   2.916   0.517
 4299TIP3    H112903   6.301   2.832   0.562
 4299TIP3    H212904   6.354   2.917   0.448
 4300TIP3   OH212905   1.725   5.271   1.607
 4300TIP3    H112906   1.715   5.203   1.673
 4300TIP3    H212907   1.795   5.328   1.641
 4301TIP3   OH212908   5.619   5.471   2.057
 4301TIP3    H112909   5.582   5.481   2.145
 4301TIP3    H212910   5.567   5.529   2.002
 4302TIP3   OH212911   2.819   5.163   0.127
 4302TIP3    H112912   2.826   5.171   0.032
 4302TIP3    H212913   2.735   5.121   0.142
 4303TIP3   OH212914   2.252   1.929   0.239
 4303TIP3    H112915   2.197   1.892   0.307
 4303TIP3    H212916   2.244   2.024   0.251
 4304TIP3   OH212917   3.449   0.892   4.838
 4304TIP3    H112918   3.523   0.835   4.856
 4304TIP3    H212919   3.382   0.865   4.900
 4305TIP3   OH212920   5.468   5.056   1.832
 4305TIP3    H112921   5.482   5.076   1.740
 4305TIP3    H212922   5.499   5.134   1.878
 4306TIP3   OH212923   0.858   1.854   1.574
 4306TIP3    H112924   0.772   1.830   1.538
 4306TIP3    H212925   0.897   1.771   1.601
 4307TIP3   OH212926   5.660   0.867   4.152
 4307TIP3    H112927   5.599   0.831   4.216
 4307TIP3    H212928   5.620   0.950   4.125
 4308TIP3   OH212929   1.782   2.722   3.760
 4308TIP3    H112930   1.793   2.643   3.813
 4308TIP3    H212931   1.733   2.692   3.684
 4309TIP3   OH212932   2.643   2.781   4.164
 4309TIP3    H112933   2.689   2.763   4.082
 4309TIP3    H212934   2.586   2.856   4.143
 4310TIP3   OH212935   5.707   3.981   1.243
 4310TIP3    H112936   5.758   3.942   1.314
 4310TIP3    H212937   5.737   3.936   1.164
 4311TIP3   OH212938   1.421   3.170   5.130
 4311TIP3    H112939   1.357   3.239   5.110
 4311TIP3    H212940   1.421   3.165   5.226
 4312TIP3   OH212941   0.263   5.367   2.498
 4312TIP3    H112942   0.300   5.290   2.540
 4312TIP3    H212943   0.168   5.355   2.504
 4313TIP3   OH212944   0.777   2.381   0.951
 4313TIP3    H112945   0.696   2.336   0.930
 4313TIP3    H212946   0.817   2.329   1.021
 4314TIP3   OH212947   2.375   4.930   1.037
 4314TIP3    H112948   2.380   4.836   1.055
 4314TIP3    H212949   2.322   4.936   0.958
 4315TIP3   OH212950   4.698   3.155   4.836
 4315TIP3    H112951   4.778   3.205   4.822
 4315TIP3    H212952   4.628   3.221   4.836
 4316TIP3   OH212953   3.697   0.615   1.844
 4316TIP3    H112954   3.775   0.561   1.834
 4316TIP3    H212955   3.676   0.609   1.938
 4317TIP3   OH212956   6.162   2.017   3.964
 4317TIP3    H112957   6.084   2.019   3.908
 4317TIP3    H212958   6.227   1.968   3.914
 4318TIP3   OH212959   2.360   4.703   3.652
 4318TIP3    H112960   2.318   4.632   3.700
 4318TIP3    H212961   2.361   4.674   3.561
 4319TIP3   OH212962   4.063   3.244   2.717
 4319TIP3    H112963   4.047   3.337   2.705
 4319TIP3    H212964   4.063   3.208   2.629
 4320TIP3   OH212965   2.326   5.943   2.751
 4320TIP3    H112966   2.312   5.975   2.662
 4320TIP3    H212967   2.242   5.906   2.777
 4321TIP3   OH212968   1.467   4.941   3.189
 4321TIP3    H112969   1.540   4.878   3.193
 4321TIP3    H212970   1.479   4.996   3.266
 4322TIP3   OH212971   3.177   2.217   0.554
 4322TIP3    H112972   3.169   2.171   0.637
 4322TIP3    H212973   3.248   2.280   0.568
 4323TIP3   OH212974   3.986   2.798   0.800
 4323TIP3    H112975   3.981   2.713   0.756
 4323TIP3    H212976   4.067   2.794   0.851
 4324TIP3   OH212977   5.211   3.864   1.398
 4324TIP3    H112978   5.144   3.928   1.423
 4324TIP3    H212979   5.204   3.857   1.303
 4325TIP3   OH212980   0.655   4.687   4.698
 4325TIP3    H112981   0.640   4.596   4.674
 4325TIP3    H212982   0.665   4.733   4.615
 4326TIP3   OH212983   3.706   1.184   2.521
 4326TIP3    H112984   3.655   1.224   2.591
 4326TIP3    H212985   3.645   1.122   2.480
 4327TIP3   OH212986   5.011   0.445   1.704
 4327TIP3    H112987   5.065   0.378   1.662
 4327TIP3    H212988   4.922   0.422   1.680
 4328TIP3   OH212989   2.338   4.222   3.090
 4328TIP3    H112990   2.333   4.211   2.995
 4328TIP3    H212991   2.373   4.140   3.123
 4329TIP3   OH212992   2.499   5.246   3.282
 4329TIP3    H112993   2.449   5.327   3.278
 4329TIP3    H212994   2.590   5.273   3.284
 4330TIP3   OH212995   2.227   1.022   5.069
 4330TIP3    H112996   2.177   1.065   5.139
 4330TIP3    H212997   2.259   0.941   5.109
 4331TIP3   OH212998   0.045   3.376   3.711
 4331TIP3    H112999   0.070   3.333   3.630
 4331TIP3    H213000   0.117   3.358   3.771
 4332TIP3   OH213001   1.939   0.821   3.748
 4332TIP3    H113002   1.976   0.849   3.664
 4332TIP3    H213003   1.979   0.880   3.812
 4333TIP3   OH213004   0.882   0.054   4.551
 4333TIP3    H113005   0.832   0.069   4.631
 4333TIP3    H213006   0.962   0.104   4.563
 4334TIP3   OH213007   5.457   3.185   2.184
 4334TIP3    H113008   5.502   3.101   2.182
 4334TIP3    H213009   5.386   3.174   2.247
 4335TIP3   OH213010   3.841   3.597   4.556
 4335TIP3    H113011   3.767   3.551   4.518
 4335TIP3    H213012   3.812   3.620   4.644
 4336TIP3   OH213013   5.578   3.433   0.755
 4336TIP3    H113014   5.607   3.377   0.827
 4336TIP3    H213015   5.585   3.377   0.677
 4337TIP3   OH213016   4.823   2.698   2.411
 4337TIP3    H113017   4.843   2.776   2.463
 4337TIP3    H213018   4.871   2.627   2.453
 4338TIP3   OH213019   4.671   1.369   1.344
 4338TIP3    H113020   4.685   1.404   1.432
 4338TIP3    H213021   4.689   1.442   1.286
 4339TIP3   OH213022   4.013   3.357   3.732
 4339TIP3    H113023   4.038   3.326   3.645
 4339TIP3    H213024   3.925   3.321   3.746
 4340TIP3   OH213025   3.391   4.184   4.249
 4340TIP3    H113026   3.304   4.154   4.224
 4340TIP3    H213027   3.449   4.150   4.180
 4341TIP3   OH213028   2.415   5.921   3.407
 4341TIP3    H113029   2.461   5.909   3.324
 4341TIP3    H213030   2.479   5.893   3.474
 4342TIP3   OH213031   6.232   5.216   0.231
 4342TIP3    H113032   6.186   5.238   0.151
 4342TIP3    H213033   6.261   5.300   0.267
 4343TIP3   OH213034   4.923   0.718   4.347
 4343TIP3    H113035   4.923   0.812   4.364
 4343TIP3    H213036   4.847   0.703   4.291
 4344TIP3   OH213037   2.029   2.875   4.332
 4344TIP3    H113038   1.948   2.841   4.294
 4344TIP3    H213039   2.085   2.799   4.343
 4345TIP3   OH213040   4.660   1.461   2.258
 4345TIP3    H113041   4.620   1.409   2.327
 4345TIP3    H213042   4.744   1.418   2.241
 4346TIP3   OH213043   2.722   4.242   1.848
 4346TIP3    H113044   2.760   4.220   1.933
 4346TIP3    H213045   2.740   4.166   1.792
 4347TIP3   OH213046   6.175   4.451   4.370
 4347TIP3    H113047   6.091   4.479   4.333
 4347TIP3    H213048   6.231   4.437   4.293
 4348TIP3   OH213049   5.448   2.239   2.987
 4348TIP3    H113050   5.450   2.222   3.081
 4348TIP3    H213051   5.369   2.194   2.957
 4349TIP3   OH213052   1.971   2.561   3.239
 4349TIP3    H113053   1.977   2.560   3.335
 4349TIP3    H213054   2.039   2.501   3.210
 4350TIP3   OH213055   6.176   0.532   0.987
 4350TIP3    H113056   6.198   0.445   1.020
 4350TIP3    H213057   6.087   0.523   0.953
 4351TIP3   OH213058   5.064   5.828   0.182
 4351TIP3    H113059   5.090   5.744   0.220
 4351TIP3    H213060   4.969   5.821   0.171
 4352TIP3   OH213061   3.221   2.788   2.009
 4352TIP3    H113062   3.270   2.719   2.053
 4352TIP3    H213063   3.244   2.780   1.917
 4353TIP3   OH213064   1.892   5.015   1.028
 4353TIP3    H113065   1.811   5.063   1.046
 4353TIP3    H213066   1.908   5.029   0.935
 4354TIP3   OH213067   5.704   2.241   4.932
 4354TIP3    H113068   5.652   2.314   4.967
 4354TIP3    H213069   5.682   2.238   4.839
 4355TIP3   OH213070   2.258   4.039   1.938
 4355TIP3    H113071   2.299   4.087   1.866
 4355TIP3    H213072   2.176   4.006   1.902
 4356TIP3   OH213073   0.560   1.790   4.742
 4356TIP3    H113074   0.548   1.697   4.760
 4356TIP3    H213075   0.497   1.834   4.798
 4357TIP3   OH213076   1.603   5.364   2.185
 4357TIP3    H113077   1.550   5.314   2.123
 4357TIP3    H213078   1.685   5.380   2.139
 4358TIP3   OH213079   0.658   0.443   2.677
 4358TIP3    H113080   0.752   0.427   2.676
 4358TIP3    H213081   0.624   0.393   2.603
 4359TIP3   OH213082   2.551   4.745   3.392
 4359TIP3    H113083   2.483   4.681   3.372
 4359TIP3    H213084   2.525   4.823   3.343
 4360TIP3   OH213085   4.737   4.767   2.212
 4360TIP3    H113086   4.788   4.722   2.145
 4360TIP3    H213087   4.680   4.699   2.248
 4361TIP3   OH213088   6.154   5.395   4.215
 4361TIP3    H113089   6.172   5.317   4.268
 4361TIP3    H213090   6.240   5.424   4.185
 4362TIP3   OH213091   5.446   5.173   0.053
 4362TIP3    H113092   5.395   5.130   0.121
 4362TIP3    H213093   5.504   5.232   0.101
 4363TIP3   OH213094   2.564   5.828   5.018
 4363TIP3    H113095   2.491   5.768   5.001
 4363TIP3    H213096   2.587   5.812   5.109
 4364TIP3   OH213097   3.207   5.475   3.087
 4364TIP3    H113098   3.166   5.424   3.157
 4364TIP3    H213099   3.268   5.414   3.047
 4365TIP3   OH213100   1.105   5.034   3.657
 4365TIP3    H113101   1.133   5.115   3.615
 4365TIP3    H213102   1.019   5.016   3.620
 4366TIP3   OH213103   0.247   1.198   3.705
 4366TIP3    H113104   0.300   1.207   3.626
 4366TIP3    H213105   0.255   1.105   3.729
 4367TIP3   OH213106   3.304   3.398   2.195
 4367TIP3    H113107   3.218   3.355   2.188
 4367TIP3    H213108   3.322   3.429   2.106
 4368TIP3   OH213109   2.764   3.956   4.678
 4368TIP3    H113110   2.849   3.916   4.664
 4368TIP3    H213111   2.738   3.928   4.766
 4369TIP3   OH213112   2.869   5.057   0.473
 4369TIP3    H113113   2.817   4.989   0.429
 4369TIP3    H213114   2.804   5.121   0.501
 4370TIP3   OH213115   5.771   5.132   1.046
 4370TIP3    H113116   5.763   5.213   1.096
 4370TIP3    H213117   5.826   5.076   1.100
 4371TIP3   OH213118   1.098   5.851   2.831
 4371TIP3    H113119   1.059   5.795   2.764
 4371TIP3    H213120   1.044   5.929   2.831
 4372TIP3   OH213121   3.925   5.375   0.656
 4372TIP3    H113122   4.017   5.396   0.641
 4372TIP3    H213123   3.900   5.319   0.582
 4373TIP3   OH213124   0.920   2.051   3.798
 4373TIP3    H113125   0.840   2.031   3.847
 4373TIP3    H213126   0.988   1.998   3.840
 4374TIP3   OH213127   3.826   1.776   1.090
 4374TIP3    H113128   3.821   1.682   1.106
 4374TIP3    H213129   3.869   1.812   1.168
 4375TIP3   OH213130   0.702   3.827   2.591
 4375TIP3    H113131   0.623   3.837   2.643
 4375TIP3    H213132   0.756   3.766   2.641
 4376TIP3   OH213133   2.681   0.649   1.167
 4376TIP3    H113134   2.639   0.703   1.234
 4376TIP3    H213135   2.712   0.711   1.101
 4377TIP3   OH213136   5.169   0.662   2.657
 4377TIP3    H113137   5.155   0.754   2.636
 4377TIP3    H213138   5.081   0.624   2.655
 4378TIP3   OH213139   3.679   2.580   3.489
 4378TIP3    H113140   3.622   2.588   3.566
 4378TIP3    H213141   3.760   2.543   3.523
 4379TIP3   OH213142   2.694   1.876   4.676
 4379TIP3    H113143   2.761   1.808   4.665
 4379TIP3    H213144   2.743   1.953   4.702
 4380TIP3   OH213145   0.845   0.938   0.416
 4380TIP3    H113146   0.860   0.851   0.454
 4380TIP3    H213147   0.751   0.938   0.395
 4381TIP3   OH213148   2.907   5.231   1.269
 4381TIP3    H113149   2.947   5.155   1.312
 4381TIP3    H213150   2.981   5.285   1.243
 4382TIP3   OH213151   1.376   4.273   1.837
 4382TIP3    H113152   1.408   4.335   1.903
 4382TIP3    H213153   1.448   4.213   1.824
 4383TIP3   OH213154   1.748   0.931   3.920
 4383TIP3    H113155   1.755   0.917   3.826
 4383TIP3    H213156   1.803   0.863   3.959
 4384TIP3   OH213157   2.467   4.888   0.337
 4384TIP3    H113158   2.439   4.798   0.320
 4384TIP3    H213159   2.451   4.902   0.430
 4385TIP3   OH213160   2.613   3.827   0.128
 4385TIP3    H113161   2.646   3.762   0.066
 4385TIP3    H213162   2.690   3.854   0.178
 4386TIP3   OH213163   3.627   0.204   2.054
 4386TIP3    H113164   3.660   0.155   1.979
 4386TIP3    H213165   3.557   0.258   2.018
 4387TIP3   OH213166   3.592   1.999   3.507
 4387TIP3    H113167   3.684   1.982   3.489
 4387TIP3    H213168   3.547   1.982   3.424
 4388TIP3   OH213169   4.398   3.961   0.845
 4388TIP3    H113170   4.492   3.944   0.837
 4388TIP3    H213171   4.387   4.050   0.813
 4389TIP3   OH213172   4.871   5.437   0.555
 4389TIP3    H113173   4.802   5.461   0.494
 4389TIP3    H213174   4.825   5.406   0.633
 4390TIP3   OH213175   1.192   5.071   4.321
 4390TIP3    H113176   1.170   4.999   4.263
 4390TIP3    H213177   1.142   5.054   4.401
 4391TIP3   OH213178   5.780   4.562   4.024
 4391TIP3    H113179   5.874   4.549   4.042
 4391TIP3    H213180   5.778   4.609   3.941
 4392TIP3   OH213181   2.496   3.129   4.672
 4392TIP3    H113182   2.456   3.102   4.755
 4392TIP3    H213183   2.564   3.064   4.656
 4393TIP3   OH213184   4.327   2.759   3.466
 4393TIP3    H113185   4.255   2.740   3.406
 4393TIP3    H213186   4.284   2.784   3.548
 4394TIP3   OH213187   5.708   2.586   2.983
 4394TIP3    H113188   5.695   2.611   2.892
 4394TIP3    H213189   5.703   2.490   2.983
 4395TIP3   OH213190   0.564   3.941   0.486
 4395TIP3    H113191   0.657   3.940   0.463
 4395TIP3    H213192   0.559   3.896   0.570
 4396TIP3   OH213193   0.082   5.730   2.439
 4396TIP3    H113194   0.050   5.762   2.355
 4396TIP3    H213195   0.116   5.807   2.483
 4397TIP3   OH213196   6.114   5.419   0.426
 4397TIP3    H113197   6.180   5.408   0.494
 4397TIP3    H213198   6.031   5.424   0.473
 4398TIP3   OH213199   5.850   3.329   0.249
 4398TIP3    H113200   5.903   3.281   0.186
 4398TIP3    H213201   5.805   3.261   0.299
 4399TIP3   OH213202   2.162   4.886   2.377
 4399TIP3    H113203   2.224   4.952   2.408
 4399TIP3    H213204   2.114   4.929   2.306
 4400TIP3   OH213205   0.289   0.159   0.488
 4400TIP3    H113206   0.199   0.127   0.491
 4400TIP3    H213207   0.292   0.213   0.409
 4401TIP3   OH213208   0.942   5.240   0.142
 4401TIP3    H113209   0.913   5.279   0.224
 4401TIP3    H213210   0.971   5.314   0.089
 4402TIP3   OH213211   3.254   1.511   3.447
 4402TIP3    H113212   3.206   1.483   3.526
 4402TIP3    H213213   3.255   1.433   3.391
 4403TIP3   OH213214   2.761   4.829   0.342
 4403TIP3    H113215   2.770   4.776   0.263
 4403TIP3    H213216   2.668   4.848   0.348
 4404TIP3   OH213217   5.841   2.925   1.990
 4404TIP3    H113218   5.936   2.932   1.978
 4404TIP3    H213219   5.806   2.918   1.901
 4405TIP3   OH213220   1.749   1.331   0.094
 4405TIP3    H113221   1.657   1.341   0.068
 4405TIP3    H213222   1.791   1.292   0.018
 4406TIP3   OH213223   5.036   3.463   4.948
 4406TIP3    H113224   4.944   3.488   4.938
 4406TIP3    H213225   5.082   3.545   4.961
 4407TIP3   OH213226   3.950   2.171   0.671
 4407TIP3    H113227   3.883   2.103   0.673
 4407TIP3    H213228   3.946   2.207   0.583
 4408TIP3   OH213229   2.692   0.313   0.240
 4408TIP3    H113230   2.645   0.331   0.158
 4408TIP3    H213231   2.784   0.333   0.220
 4409TIP3   OH213232   0.454   3.525   2.217
 4409TIP3    H113233   0.413   3.585   2.280
 4409TIP3    H213234   0.391   3.518   2.146
 4410TIP3   OH213235   2.590   2.041   2.876
 4410TIP3    H113236   2.666   1.983   2.879
 4410TIP3    H213237   2.521   1.988   2.838
 4411TIP3   OH213238   0.226   2.475   4.950
 4411TIP3    H113239   0.307   2.476   4.900
 4411TIP3    H213240   0.248   2.518   5.033
 4412TIP3   OH213241   4.632   3.399   1.907
 4412TIP3    H113242   4.636   3.390   1.812
 4412TIP3    H213243   4.594   3.486   1.921
 4413TIP3   OH213244   5.255   0.566   2.054
 4413TIP3    H113245   5.171   0.605   2.029
 4413TIP3    H213246   5.273   0.601   2.141
 4414TIP3   OH213247   3.097   4.926   4.293
 4414TIP3    H113248   3.150   4.995   4.332
 4414TIP3    H213249   3.140   4.845   4.320
 4415TIP3   OH213250   2.204   1.858   3.048
 4415TIP3    H113251   2.176   1.934   2.997
 4415TIP3    H213252   2.178   1.782   2.995
 4416TIP3   OH213253   5.183   5.830   2.882
 4416TIP3    H113254   5.240   5.793   2.815
 4416TIP3    H213255   5.094   5.818   2.848
 4417TIP3   OH213256   1.871   3.039   1.023
 4417TIP3    H113257   1.800   3.047   1.087
 4417TIP3    H213258   1.826   3.022   0.940
 4418TIP3   OH213259   4.441   3.802   2.540
 4418TIP3    H113260   4.369   3.749   2.574
 4418TIP3    H213261   4.473   3.850   2.617
 4419TIP3   OH213262   4.709   1.111   4.911
 4419TIP3    H113263   4.802   1.104   4.932
 4419TIP3    H213264   4.667   1.137   4.993
 4420TIP3   OH213265   1.346   1.485   2.439
 4420TIP3    H113266   1.267   1.433   2.422
 4420TIP3    H213267   1.357   1.482   2.534
 4421TIP3   OH213268   0.935   4.237   4.665
 4421TIP3    H113269   0.945   4.142   4.662
 4421TIP3    H213270   0.851   4.253   4.620
 4422TIP3   OH213271   1.311   3.679   3.238
 4422TIP3    H113272   1.281   3.667   3.328
 4422TIP3    H213273   1.326   3.590   3.206
 4423TIP3   OH213274   3.535   2.399   0.800
 4423TIP3    H113275   3.462   2.351   0.840
 4423TIP3    H213276   3.517   2.491   0.819
 4424TIP3   OH213277   2.517   4.939   4.395
 4424TIP3    H113278   2.613   4.945   4.401
 4424TIP3    H213279   2.499   4.845   4.394
 4425TIP3   OH213280   4.819   3.853   1.269
 4425TIP3    H113281   4.769   3.884   1.345
 4425TIP3    H213282   4.789   3.762   1.257
 4426TIP3   OH213283   0.770   0.314   2.214
 4426TIP3    H113284   0.829   0.241   2.197
 4426TIP3    H213285   0.686   0.286   2.179
 4427TIP3   OH213286   2.553   2.911   1.437
 4427TIP3    H113287   2.595   2.995   1.458
 4427TIP3    H213288   2.568   2.901   1.343
 4428TIP3   OH213289   2.346   2.153   4.926
 4428TIP3    H113290   2.426   2.206   4.927
 4428TIP3    H213291   2.275   2.216   4.919
 4429TIP3   OH213292   3.003   1.512   4.260
 4429TIP3    H113293   3.044   1.501   4.346
 4429TIP3    H213294   3.076   1.520   4.199
 4430TIP3   OH213295   1.026   3.371   3.680
 4430TIP3    H113296   1.042   3.354   3.773
 4430TIP3    H213297   1.113   3.373   3.641
 4431TIP3   OH213298   6.075   5.896   5.132
 4431TIP3    H113299   6.009   5.871   5.067
 4431TIP3    H213300   6.064   5.834   5.204
 4432TIP3   OH213301   2.150   1.623   3.919
 4432TIP3    H113302   2.178   1.709   3.950
 4432TIP3    H213303   2.205   1.605   3.843
 4433TIP3   OH213304   5.751   4.202   0.183
 4433TIP3    H113305   5.697   4.134   0.224
 4433TIP3    H213306   5.688   4.260   0.139
 4434TIP3   OH213307   5.274   4.816   3.394
 4434TIP3    H113308   5.365   4.823   3.366
 4434TIP3    H213309   5.232   4.761   3.327
 4435TIP3   OH213310   1.477   4.396   4.353
 4435TIP3    H113311   1.537   4.362   4.419
 4435TIP3    H213312   1.534   4.431   4.284
 4436TIP3   OH213313   2.570   1.138   0.486
 4436TIP3    H113314   2.477   1.125   0.473
 4436TIP3    H213315   2.609   1.121   0.400
 4437TIP3   OH213316   2.296   1.385   0.746
 4437TIP3    H113317   2.320   1.400   0.655
 4437TIP3    H213318   2.374   1.410   0.796
 4438TIP3   OH213319   6.268   4.558   0.734
 4438TIP3    H113320   6.287   4.479   0.683
 4438TIP3    H213321   6.273   4.629   0.671
 4439TIP3   OH213322   1.842   5.935   2.111
 4439TIP3    H113323   1.761   5.900   2.147
 4439TIP3    H213324   1.909   5.870   2.135
 4440TIP3   OH213325   0.535   2.864   0.463
 4440TIP3    H113326   0.506   2.817   0.384
 4440TIP3    H213327   0.460   2.859   0.522
 4441TIP3   OH213328   2.371   0.942   1.452
 4441TIP3    H113329   2.414   1.025   1.468
 4441TIP3    H213330   2.350   0.908   1.539
 4442TIP3   OH213331   0.693   5.029   3.288
 4442TIP3    H113332   0.638   5.042   3.211
 4442TIP3    H213333   0.734   5.115   3.303
 4443TIP3   OH213334   1.502   0.702   3.309
 4443TIP3    H113335   1.515   0.608   3.326
 4443TIP3    H213336   1.586   0.732   3.277
 4444TIP3   OH213337   1.259   1.536   5.077
 4444TIP3    H113338   1.278   1.478   5.151
 4444TIP3    H213339   1.334   1.596   5.073
 4445TIP3   OH213340   0.146   2.778   3.248
 4445TIP3    H113341   0.172   2.860   3.290
 4445TIP3    H213342   0.185   2.710   3.302
 4446TIP3   OH213343   4.151   0.994   1.114
 4446TIP3    H113344   4.167   0.990   1.020
 4446TIP3    H213345   4.236   0.975   1.154
 4447TIP3   OH213346   2.583   4.685   4.300
 4447TIP3    H113347   2.561   4.613   4.359
 4447TIP3    H213348   2.674   4.668   4.274
 4448TIP3   OH213349   5.809   0.279   1.131
 4448TIP3    H113350   5.726   0.255   1.090
 4448TIP3    H213351   5.797   0.371   1.156
 4449TIP3   OH213352   6.239   5.320   0.648
 4449TIP3    H113353   6.295   5.246   0.624
 4449TIP3    H213354   6.281   5.359   0.724
 4450TIP3   OH213355   2.749   5.809   0.111
 4450TIP3    H113356   2.817   5.745   0.132
 4450TIP3    H213357   2.777   5.846   0.027
 4451TIP3   OH213358   1.489   1.490   0.397
 4451TIP3    H113359   1.457   1.400   0.400
 4451TIP3    H213360   1.494   1.518   0.488
 4452TIP3   OH213361   2.024   0.275   4.720
 4452TIP3    H113362   2.107   0.307   4.755
 4452TIP3    H213363   2.040   0.183   4.702
 4453TIP3   OH213364   1.756   2.519   4.667
 4453TIP3    H113365   1.723   2.531   4.756
 4453TIP3    H213366   1.845   2.487   4.678
 4454TIP3   OH213367   1.432   1.891   3.520
 4454TIP3    H113368   1.415   1.825   3.453
 4454TIP3    H213369   1.446   1.972   3.472
 4455TIP3   OH213370   1.559   2.366   0.832
 4455TIP3    H113371   1.635   2.348   0.886
 4455TIP3    H213372   1.582   2.445   0.782
 4456TIP3   OH213373   6.245   0.905   4.156
 4456TIP3    H113374   6.311   0.841   4.183
 4456TIP3    H213375   6.289   0.959   4.091
 4457TIP3   OH213376   5.782   3.519   0.422
 4457TIP3    H113377   5.792   3.457   0.350
 4457TIP3    H213378   5.869   3.557   0.433
 4458TIP3   OH213379   5.886   5.576   1.004
 4458TIP3    H113380   5.806   5.555   1.053
 4458TIP3    H213381   5.858   5.639   0.938
 4459TIP3   OH213382   2.832   0.702   3.523
 4459TIP3    H113383   2.747   0.746   3.524
 4459TIP3    H213384   2.868   0.721   3.436
 4460TIP3   OH213385   6.090   1.263   3.297
 4460TIP3    H113386   6.143   1.207   3.240
 4460TIP3    H213387   6.151   1.331   3.326
 4461TIP3   OH213388   0.256   3.503   1.995
 4461TIP3    H113389   0.228   3.426   2.045
 4461TIP3    H213390   0.201   3.575   2.029
 4462TIP3   OH213391   6.052   2.340   2.541
 4462TIP3    H113392   6.031   2.249   2.560
 4462TIP3    H213393   6.118   2.335   2.472
 4463TIP3   OH213394   4.782   0.623   5.017
 4463TIP3    H113395   4.785   0.540   4.969
 4463TIP3    H213396   4.866   0.664   4.998
 4464TIP3   OH213397   1.288   0.561   5.033
 4464TIP3    H113398   1.228   0.606   5.092
 4464TIP3    H213399   1.351   0.517   5.091
 4465TIP3   OH213400   4.867   2.645   1.222
 4465TIP3    H113401   4.957   2.628   1.196
 4465TIP3    H213402   4.865   2.628   1.316
 4466TIP3   OH213403   5.415   2.234   2.286
 4466TIP3    H113404   5.481   2.214   2.352
 4466TIP3    H213405   5.412   2.157   2.230
 4467TIP3   OH213406   3.649   4.055   2.977
 4467TIP3    H113407   3.568   4.097   3.006
 4467TIP3    H213408   3.639   3.963   3.003
 4468TIP3   OH213409   1.004   5.832   4.290
 4468TIP3    H113410   0.921   5.835   4.243
 4468TIP3    H213411   1.000   5.908   4.349
 4469TIP3   OH213412   5.386   5.661   2.739
 4469TIP3    H113413   5.418   5.751   2.737
 4469TIP3    H213414   5.462   5.608   2.716
 4470TIP3   OH213415   3.854   5.237   0.425
 4470TIP3    H113416   3.765   5.201   0.420
 4470TIP3    H213417   3.875   5.259   0.334
 4471TIP3   OH213418   3.883   5.141   3.432
 4471TIP3    H113419   3.868   5.198   3.356
 4471TIP3    H213420   3.965   5.096   3.412
 4472TIP3   OH213421   2.805   2.306   4.869
 4472TIP3    H113422   2.811   2.242   4.940
 4472TIP3    H213423   2.849   2.384   4.902
 4473TIP3   OH213424   0.171   4.322   0.493
 4473TIP3    H113425   0.149   4.313   0.400
 4473TIP3    H213426   0.177   4.416   0.507
 4474TIP3   OH213427   1.512   5.330   3.181
 4474TIP3    H113428   1.503   5.368   3.094
 4474TIP3    H213429   1.478   5.397   3.240
 4475TIP3   OH213430   2.089   3.664   3.355
 4475TIP3    H113431   2.100   3.758   3.370
 4475TIP3    H213432   2.005   3.642   3.396
 4476TIP3   OH213433   1.894   4.995   1.576
 4476TIP3    H113434   1.842   4.947   1.640
 4476TIP3    H213435   1.912   5.079   1.619
 4477TIP3   OH213436   3.801   2.075   3.161
 4477TIP3    H113437   3.819   2.003   3.100
 4477TIP3    H213438   3.865   2.062   3.231
 4478TIP3   OH213439   3.276   1.833   4.189
 4478TIP3    H113440   3.269   1.853   4.096
 4478TIP3    H213441   3.331   1.902   4.224
 4479TIP3   OH213442   3.530   2.291   4.929
 4479TIP3    H113443   3.446   2.244   4.932
 4479TIP3    H213444   3.527   2.341   4.847
 4480TIP3   OH213445   0.246   3.409   1.090
 4480TIP3    H113446   0.235   3.463   1.169
 4480TIP3    H213447   0.210   3.463   1.019
 4481TIP3   OH213448   3.581   3.501   1.086
 4481TIP3    H113449   3.563   3.450   1.164
 4481TIP3    H213450   3.675   3.488   1.070
 4482TIP3   OH213451   5.768   3.809   5.013
 4482TIP3    H113452   5.739   3.808   5.104
 4482TIP3    H213453   5.836   3.742   5.009
 4483TIP3   OH213454   5.627   1.174   4.381
 4483TIP3    H113455   5.622   1.258   4.426
 4483TIP3    H213456   5.620   1.109   4.451
 4484TIP3   OH213457   5.230   0.610   2.344
 4484TIP3    H113458   5.312   0.583   2.385
 4484TIP3    H213459   5.170   0.623   2.417
 4485TIP3   OH213460   3.916   5.004   1.886
 4485TIP3    H113461   3.975   5.060   1.836
 4485TIP3    H213462   3.974   4.950   1.940
 4486TIP3   OH213463   3.900   3.696   1.521
 4486TIP3    H113464   3.909   3.727   1.611
 4486TIP3    H213465   3.967   3.629   1.512
 4487TIP3   OH213466   2.190   2.619   4.261
 4487TIP3    H113467   2.273   2.573   4.255
 4487TIP3    H213468   2.150   2.608   4.174
 4488TIP3   OH213469   5.668   4.331   1.862
 4488TIP3    H113470   5.699   4.241   1.849
 4488TIP3    H213471   5.603   4.324   1.931
 4489TIP3   OH213472   5.844   1.618   4.618
 4489TIP3    H113473   5.930   1.632   4.579
 4489TIP3    H213474   5.815   1.535   4.582
 4490TIP3   OH213475   5.508   2.047   1.887
 4490TIP3    H113476   5.597   2.075   1.866
 4490TIP3    H213477   5.454   2.125   1.874
 4491TIP3   OH213478   1.289   5.883   0.602
 4491TIP3    H113479   1.313   5.791   0.593
 4491TIP3    H213480   1.203   5.882   0.643
 4492TIP3   OH213481   0.328   5.322   4.770
 4492TIP3    H113482   0.366   5.234   4.768
 4492TIP3    H213483   0.355   5.358   4.855
 4493TIP3   OH213484   0.102   0.363   4.963
 4493TIP3    H113485   0.147   0.292   4.916
 4493TIP3    H213486   0.010   0.355   4.938
 4494TIP3   OH213487   2.955   1.756   4.398
 4494TIP3    H113488   2.976   1.748   4.491
 4494TIP3    H213489   2.937   1.666   4.370
 4495TIP3   OH213490   4.307   5.059   1.454
 4495TIP3    H113491   4.395   5.056   1.416
 4495TIP3    H213492   4.292   4.971   1.488
 4496TIP3   OH213493   4.904   5.346   4.411
 4496TIP3    H113494   4.914   5.310   4.499
 4496TIP3    H213495   4.823   5.398   4.414
 4497TIP3   OH213496   1.610   4.503   1.691
 4497TIP3    H113497   1.577   4.547   1.770
 4497TIP3    H213498   1.536   4.503   1.631
 4498TIP3   OH213499   0.251   2.459   3.897
 4498TIP3    H113500   0.319   2.524   3.914
 4498TIP3    H213501   0.193   2.464   3.973
 4499TIP3   OH213502   5.746   1.089   0.895
 4499TIP3    H113503   5.839   1.087   0.873
 4499TIP3    H213504   5.725   0.999   0.921
 4500TIP3   OH213505   4.623   1.112   2.262
 4500TIP3    H113506   4.596   1.188   2.312
 4500TIP3    H213507   4.579   1.038   2.305
 4501TIP3   OH213508   4.819   4.966   2.579
 4501TIP3    H113509   4.856   4.878   2.579
 4501TIP3    H213510   4.836   5.000   2.491
 4502TIP3   OH213511   0.500   0.955   0.332
 4502TIP3    H113512   0.523   0.863   0.334
 4502TIP3    H213513   0.545   0.993   0.407
 4503TIP3   OH213514   5.550   0.988   3.020
 4503TIP3    H113515   5.579   1.024   2.936
 4503TIP3    H213516   5.580   1.051   3.085
 4504TIP3   OH213517   2.594   5.897   3.607
 4504TIP3    H113518   2.683   5.912   3.574
 4504TIP3    H213519   2.589   5.950   3.687
 4505TIP3   OH213520   2.424   2.053   1.470
 4505TIP3    H113521   2.376   1.993   1.412
 4505TIP3    H213522   2.475   1.995   1.527
 4506TIP3   OH213523   3.704   1.149   3.649
 4506TIP3    H113524   3.780   1.203   3.671
 4506TIP3    H213525   3.640   1.168   3.717
 4507TIP3   OH213526   1.875   3.065   1.345
 4507TIP3    H113527   1.782   3.081   1.361
 4507TIP3    H213528   1.910   3.150   1.318
 4508TIP3   OH213529   2.928   3.390   4.408
 4508TIP3    H113530   2.989   3.328   4.368
 4508TIP3    H213531   2.955   3.475   4.373
 4509TIP3   OH213532   0.145   0.134   1.160
 4509TIP3    H113533   0.064   0.183   1.147
 4509TIP3    H213534   0.137   0.059   1.102
 4510TIP3   OH213535   6.340   0.566   4.726
 4510TIP3    H113536   6.256   0.529   4.699
 4510TIP3    H213537   6.323   0.601   4.814
 4511TIP3   OH213538   3.070   0.403   2.086
 4511TIP3    H113539   3.074   0.313   2.117
 4511TIP3    H213540   2.998   0.442   2.135
 4512TIP3   OH213541   3.161   2.883   5.071
 4512TIP3    H113542   3.123   2.956   5.120
 4512TIP3    H213543   3.192   2.921   4.989
 4513TIP3   OH213544   5.310   1.471   2.504
 4513TIP3    H113545   5.350   1.553   2.532
 4513TIP3    H213546   5.303   1.479   2.409
 4514TIP3   OH213547   2.172   2.405   0.129
 4514TIP3    H113548   2.158   2.458   0.050
 4514TIP3    H213549   2.089   2.409   0.176
 4515TIP3   OH213550   3.921   3.618   2.267
 4515TIP3    H113551   3.868   3.620   2.188
 4515TIP3    H213552   4.007   3.649   2.239
 4516TIP3   OH213553   4.810   4.539   0.545
 4516TIP3    H113554   4.736   4.513   0.600
 4516TIP3    H213555   4.849   4.614   0.589
 4517TIP3   OH213556   3.960   5.702   4.447
 4517TIP3    H113557   3.884   5.752   4.417
 4517TIP3    H213558   3.926   5.650   4.520
 4518TIP3   OH213559   4.910   0.972   3.104
 4518TIP3    H113560   4.944   0.982   3.015
 4518TIP3    H213561   4.817   0.951   3.091
 4519TIP3   OH213562   6.057   2.746   3.535
 4519TIP3    H113563   6.100   2.720   3.617
 4519TIP3    H213564   6.120   2.725   3.467
 4520TIP3   OH213565   4.046   2.013   3.305
 4520TIP3    H113566   4.097   2.072   3.361
 4520TIP3    H213567   4.108   1.944   3.279
 4521TIP3   OH213568   0.084   0.211   2.453
 4521TIP3    H113569   0.171   0.192   2.417
 4521TIP3    H213570   0.032   0.134   2.434
 4522TIP3   OH213571   1.451   3.689   3.545
 4522TIP3    H113572   1.366   3.730   3.559
 4522TIP3    H213573   1.503   3.757   3.502
 4523TIP3   OH213574   1.831   2.677   4.228
 4523TIP3    H113575   1.797   2.634   4.306
 4523TIP3    H213576   1.884   2.610   4.184
 4524TIP3   OH213577   2.664   3.369   2.997
 4524TIP3    H113578   2.574   3.356   3.026
 4524TIP3    H213579   2.717   3.344   3.072
 4525TIP3   OH213580   4.084   5.428   2.454
 4525TIP3    H113581   4.123   5.341   2.463
 4525TIP3    H213582   4.080   5.443   2.360
 4526TIP3   OH213583   1.012   3.794   4.076
 4526TIP3    H113584   1.076   3.834   4.136
 4526TIP3    H213585   1.064   3.734   4.023
 4527TIP3   OH213586   2.508   3.469   1.103
 4527TIP3    H113587   2.505   3.474   1.198
 4527TIP3    H213588   2.531   3.378   1.084
 4528TIP3   OH213589   0.081   5.100   0.609
 4528TIP3    H113590   0.172   5.090   0.637
 4528TIP3    H213591   0.077   5.059   0.523
 4529TIP3   OH213592   1.012   3.557   0.279
 4529TIP3    H113593   1.042   3.630   0.225
 4529TIP3    H213594   0.934   3.524   0.234
 4530TIP3   OH213595   0.714   5.223   2.128
 4530TIP3    H113596   0.797   5.265   2.107
 4530TIP3    H213597   0.679   5.273   2.202
 4531TIP3   OH213598   2.812   5.824   0.945
 4531TIP3    H113599   2.880   5.814   1.012
 4531TIP3    H213600   2.771   5.908   0.964
 4532TIP3   OH213601   1.685   3.897   1.291
 4532TIP3    H113602   1.650   3.885   1.203
 4532TIP3    H213603   1.651   3.823   1.341
 4533TIP3   OH213604   0.439   3.905   4.312
 4533TIP3    H113605   0.410   3.866   4.394
 4533TIP3    H213606   0.530   3.877   4.302
 4534TIP3   OH213607   3.520   3.783   2.502
 4534TIP3    H113608   3.479   3.828   2.576
 4534TIP3    H213609   3.466   3.706   2.487
 4535TIP3   OH213610   3.444   3.164   3.047
 4535TIP3    H113611   3.397   3.135   2.968
 4535TIP3    H213612   3.484   3.247   3.022
 4536TIP3   OH213613   2.613   1.658   3.422
 4536TIP3    H113614   2.544   1.622   3.366
 4536TIP3    H213615   2.689   1.603   3.406
 4537TIP3   OH213616   3.940   1.289   3.728
 4537TIP3    H113617   3.958   1.227   3.798
 4537TIP3    H213618   4.016   1.280   3.669
 4538TIP3   OH213619   2.465   0.534   3.650
 4538TIP3    H113620   2.529   0.463   3.644
 4538TIP3    H213621   2.515   0.613   3.632
 4539TIP3   OH213622   4.665   1.698   1.743
 4539TIP3    H113623   4.680   1.605   1.760
 4539TIP3    H213624   4.735   1.742   1.790
 4540TIP3   OH213625   4.879   4.384   1.812
 4540TIP3    H113626   4.915   4.308   1.859
 4540TIP3    H213627   4.819   4.424   1.874
 4541TIP3   OH213628   5.774   2.109   1.183
 4541TIP3    H113629   5.762   2.014   1.181
 4541TIP3    H213630   5.757   2.133   1.274
 4542TIP3   OH213631   3.579   0.097   3.336
 4542TIP3    H113632   3.628   0.167   3.293
 4542TIP3    H213633   3.636   0.067   3.406
 4543TIP3   OH213634   2.539   1.633   5.144
 4543TIP3    H113635   2.550   1.664   5.054
 4543TIP3    H213636   2.559   1.539   5.139
 4544TIP3   OH213637   5.637   2.472   5.090
 4544TIP3    H113638   5.649   2.553   5.140
 4544TIP3    H213639   5.609   2.407   5.155
 4545TIP3   OH213640   4.233   2.587   5.186
 4545TIP3    H113641   4.231   2.631   5.101
 4545TIP3    H213642   4.170   2.516   5.178
 4546TIP3   OH213643   1.366   0.337   2.179
 4546TIP3    H113644   1.384   0.428   2.201
 4546TIP3    H213645   1.272   0.333   2.167
 4547TIP3   OH213646   6.116   1.656   5.041
 4547TIP3    H113647   6.049   1.660   5.110
 4547TIP3    H213648   6.102   1.571   5.000
 4548TIP3   OH213649   2.845   2.231   4.099
 4548TIP3    H113650   2.846   2.285   4.179
 4548TIP3    H213651   2.929   2.250   4.056
 4549TIP3   OH213652   2.674   3.279   2.539
 4549TIP3    H113653   2.611   3.326   2.484
 4549TIP3    H213654   2.683   3.335   2.616
 4550TIP3   OH213655   0.399   4.819   0.875
 4550TIP3    H113656   0.306   4.833   0.862
 4550TIP3    H213657   0.426   4.891   0.932
 4551TIP3   OH213658   3.640   1.147   1.831
 4551TIP3    H113659   3.675   1.068   1.873
 4551TIP3    H213660   3.707   1.214   1.847
 4552TIP3   OH213661   5.173   5.266   2.223
 4552TIP3    H113662   5.084   5.233   2.209
 4552TIP3    H213663   5.214   5.199   2.278
 4553TIP3   OH213664   3.490   4.980   0.131
 4553TIP3    H113665   3.584   4.976   0.116
 4553TIP3    H213666   3.452   4.945   0.051
 4554TIP3   OH213667   2.217   5.911   1.572
 4554TIP3    H113668   2.268   5.900   1.652
 4554TIP3    H213669   2.225   6.004   1.551
 4555TIP3   OH213670   6.035   1.057   1.967
 4555TIP3    H113671   6.014   1.041   2.059
 4555TIP3    H213672   6.118   1.011   1.953
 4556TIP3   OH213673   3.729   2.107   4.055
 4556TIP3    H113674   3.711   2.187   4.005
 4556TIP3    H213675   3.754   2.043   3.988
 4557TIP3   OH213676   2.545   3.408   4.706
 4557TIP3    H113677   2.576   3.455   4.628
 4557TIP3    H213678   2.516   3.323   4.672
 4558TIP3   OH213679   5.548   5.650   3.928
 4558TIP3    H113680   5.576   5.692   4.009
 4558TIP3    H213681   5.546   5.720   3.864
 4559TIP3   OH213682   3.076   4.762   2.617
 4559TIP3    H113683   3.152   4.761   2.560
 4559TIP3    H213684   3.001   4.769   2.558
 4560TIP3   OH213685   5.240   1.314   0.824
 4560TIP3    H113686   5.157   1.294   0.780
 4560TIP3    H213687   5.307   1.278   0.766
 4561TIP3   OH213688   0.792   4.982   2.401
 4561TIP3    H113689   0.804   4.965   2.494
 4561TIP3    H213690   0.727   4.917   2.373
 4562TIP3   OH213691   2.676   3.901   2.600
 4562TIP3    H113692   2.593   3.872   2.561
 4562TIP3    H213693   2.672   3.872   2.691
 4563TIP3   OH213694   2.306   5.380   0.177
 4563TIP3    H113695   2.352   5.451   0.133
 4563TIP3    H213696   2.242   5.423   0.234
 4564TIP3   OH213697   0.767   0.279   4.136
 4564TIP3    H113698   0.781   0.286   4.042
 4564TIP3    H213699   0.744   0.368   4.164
 4565TIP3   OH213700   6.204   3.309   2.865
 4565TIP3    H113701   6.256   3.332   2.942
 4565TIP3    H213702   6.207   3.214   2.862
 4566TIP3   OH213703   3.882   0.114   4.404
 4566TIP3    H113704   3.848   0.143   4.488
 4566TIP3    H213705   3.923   0.030   4.422
 4567TIP3   OH213706   4.999   5.868   2.243
 4567TIP3    H113707   4.945   5.797   2.279
 4567TIP3    H213708   4.994   5.857   2.149
 4568TIP3   OH213709   3.212   5.923   0.896
 4568TIP3    H113710   3.238   5.992   0.957
 4568TIP3    H213711   3.131   5.888   0.933
 4569TIP3   OH213712   1.978   4.398   0.539
 4569TIP3    H113713   2.055   4.429   0.493
 4569TIP3    H213714   2.003   4.312   0.573
 4570TIP3   OH213715   0.669   3.383   0.836
 4570TIP3    H113716   0.693   3.419   0.751
 4570TIP3    H213717   0.728   3.424   0.898
 4571TIP3   OH213718   4.070   3.376   2.034
 4571TIP3    H113719   4.159   3.342   2.048
 4571TIP3    H213720   4.013   3.309   2.072
 4572TIP3   OH213721   0.146   4.369   4.521
 4572TIP3    H113722   0.195   4.298   4.480
 4572TIP3    H213723   0.079   4.324   4.573
 4573TIP3   OH213724   0.707   5.673   2.753
 4573TIP3    H113725   0.650   5.691   2.678
 4573TIP3    H213726   0.659   5.609   2.804
 4574TIP3   OH213727   3.104   2.601   0.677
 4574TIP3    H113728   3.050   2.573   0.751
 4574TIP3    H213729   3.057   2.675   0.639
 4575TIP3   OH213730   2.884   0.598   1.917
 4575TIP3    H113731   2.910   0.656   1.845
 4575TIP3    H213732   2.790   0.587   1.906
 4576TIP3   OH213733   0.650   5.913   1.149
 4576TIP3    H113734   0.639   5.825   1.185
 4576TIP3    H213735   0.563   5.952   1.156
 4577TIP3   OH213736   5.400   2.498   2.390
 4577TIP3    H113737   5.381   2.407   2.413
 4577TIP3    H213738   5.492   2.499   2.367
 4578TIP3   OH213739   3.202   4.968   1.180
 4578TIP3    H113740   3.176   4.976   1.088
 4578TIP3    H213741   3.264   4.895   1.180
 4579TIP3   OH213742   2.340   0.488   0.470
 4579TIP3    H113743   2.340   0.417   0.534
 4579TIP3    H213744   2.432   0.506   0.454
 4580TIP3   OH213745   3.337   1.652   1.691
 4580TIP3    H113746   3.420   1.688   1.721
 4580TIP3    H213747   3.359   1.604   1.611
 4581TIP3   OH213748   5.945   2.184   3.734
 4581TIP3    H113749   5.959   2.095   3.700
 4581TIP3    H213750   5.884   2.223   3.672
 4582TIP3   OH213751   4.585   2.754   3.561
 4582TIP3    H113752   4.501   2.749   3.516
 4582TIP3    H213753   4.566   2.723   3.650
 4583TIP3   OH213754   4.347   2.191   3.278
 4583TIP3    H113755   4.303   2.185   3.362
 4583TIP3    H213756   4.349   2.284   3.258
 4584TIP3   OH213757   5.157   4.552   3.429
 4584TIP3    H113758   5.073   4.506   3.435
 4584TIP3    H213759   5.143   4.633   3.479
 4585TIP3   OH213760   1.216   3.368   2.854
 4585TIP3    H113761   1.243   3.417   2.777
 4585TIP3    H213762   1.275   3.397   2.923
 4586TIP3   OH213763   4.833   4.175   1.314
 4586TIP3    H113764   4.738   4.167   1.305
 4586TIP3    H213765   4.854   4.118   1.388
 4587TIP3   OH213766   2.736   0.682   4.018
 4587TIP3    H113767   2.736   0.777   4.032
 4587TIP3    H213768   2.763   0.645   4.102
 4588TIP3   OH213769   0.751   4.625   0.367
 4588TIP3    H113770   0.811   4.559   0.402
 4588TIP3    H213771   0.693   4.645   0.440
 4589TIP3   OH213772   4.031   4.155   1.830
 4589TIP3    H113773   3.980   4.077   1.810
 4589TIP3    H213774   4.076   4.176   1.748
 4590TIP3   OH213775   5.467   5.054   2.185
 4590TIP3    H113776   5.543   5.053   2.127
 4590TIP3    H213777   5.496   5.105   2.260
 4591TIP3   OH213778   4.351   3.657   4.558
 4591TIP3    H113779   4.341   3.738   4.609
 4591TIP3    H213780   4.443   3.634   4.567
 4592TIP3   OH213781   2.782   0.125   1.756
 4592TIP3    H113782   2.729   0.198   1.724
 4592TIP3    H213783   2.811   0.153   1.843
 4593TIP3   OH213784   4.328   0.208   2.137
 4593TIP3    H113785   4.333   0.136   2.200
 4593TIP3    H213786   4.234   0.228   2.131
 4594TIP3   OH213787   2.483   3.907   0.847
 4594TIP3    H113788   2.576   3.901   0.826
 4594TIP3    H213789   2.461   3.999   0.831
 4595TIP3   OH213790   6.296   0.075   4.627
 4595TIP3    H113791   6.224   0.104   4.683
 4595TIP3    H213792   6.365   0.140   4.641
 4596TIP3   OH213793   2.626   2.311   1.012
 4596TIP3    H113794   2.649   2.398   1.045
 4596TIP3    H213795   2.637   2.253   1.088
 4597TIP3   OH213796   4.429   1.859   1.832
 4597TIP3    H113797   4.504   1.799   1.834
 4597TIP3    H213798   4.438   1.906   1.749
 4598TIP3   OH213799   1.600   1.307   1.553
 4598TIP3    H113800   1.601   1.366   1.478
 4598TIP3    H213801   1.620   1.363   1.628
 4599TIP3   OH213802   5.170   4.295   3.219
 4599TIP3    H113803   5.233   4.366   3.206
 4599TIP3    H213804   5.128   4.315   3.303
 4600TIP3   OH213805   2.881   2.562   2.901
 4600TIP3    H113806   2.940   2.538   2.972
 4600TIP3    H213807   2.794   2.558   2.940
 4601TIP3   OH213808   5.583   2.526   0.582
 4601TIP3    H113809   5.674   2.512   0.610
 4601TIP3    H213810   5.532   2.511   0.662
 4602TIP3   OH213811   4.680   2.526   4.542
 4602TIP3    H113812   4.702   2.516   4.634
 4602TIP3    H213813   4.587   2.548   4.541
 4603TIP3   OH213814   0.469   1.501   3.582
 4603TIP3    H113815   0.516   1.571   3.536
 4603TIP3    H213816   0.516   1.421   3.558
 4604TIP3   OH213817   3.536   1.577   2.503
 4604TIP3    H113818   3.446   1.547   2.490
 4604TIP3    H213819   3.591   1.507   2.466
 4605TIP3   OH213820   4.817   2.442   2.085
 4605TIP3    H113821   4.824   2.526   2.040
 4605TIP3    H213822   4.722   2.425   2.089
 4606TIP3   OH213823   6.109   4.580   2.759
 4606TIP3    H113824   6.034   4.536   2.797
 4606TIP3    H213825   6.097   4.673   2.782
 4607TIP3   OH213826   4.887   1.397   4.977
 4607TIP3    H113827   4.979   1.424   4.964
 4607TIP3    H213828   4.838   1.449   4.914
 4608TIP3   OH213829   4.055   5.956   1.007
 4608TIP3    H113830   4.131   5.904   0.982
 4608TIP3    H213831   4.073   5.983   1.097
 4609TIP3   OH213832   5.768   1.270   0.048
 4609TIP3    H113833   5.754   1.209  -0.025
 4609TIP3    H213834   5.686   1.319   0.054
 4610TIP3   OH213835   1.162   5.378   4.419
 4610TIP3    H113836   1.066   5.386   4.416
 4610TIP3    H213837   1.187   5.369   4.327
 4611TIP3   OH213838   2.547   1.431   4.389
 4611TIP3    H113839   2.505   1.517   4.386
 4611TIP3    H213840   2.557   1.406   4.297
 4612TIP3   OH213841   6.055   4.344   3.745
 4612TIP3    H113842   6.078   4.434   3.721
 4612TIP3    H213843   5.963   4.336   3.720
 4613TIP3   OH213844   5.138   5.293   3.270
 4613TIP3    H113845   5.086   5.287   3.350
 4613TIP3    H213846   5.218   5.244   3.289
 4614TIP3   OH213847   4.405   3.247   4.515
 4614TIP3    H113848   4.417   3.320   4.456
 4614TIP3    H213849   4.455   3.271   4.593
 4615TIP3   OH213850   5.200   4.770   0.180
 4615TIP3    H113851   5.207   4.675   0.186
 4615TIP3    H213852   5.226   4.791   0.090
 4616TIP3   OH213853   2.766   4.979   0.803
 4616TIP3    H113854   2.689   4.991   0.859
 4616TIP3    H213855   2.740   5.013   0.718
 4617TIP3   OH213856   1.512   0.133   3.634
 4617TIP3    H113857   1.422   0.139   3.600
 4617TIP3    H213858   1.504   0.157   3.727
 4618TIP3   OH213859   1.252   5.689   4.266
 4618TIP3    H113860   1.177   5.747   4.276
 4618TIP3    H213861   1.231   5.635   4.190
 4619TIP3   OH213862   0.701   0.912   4.758
 4619TIP3    H113863   0.611   0.926   4.727
 4619TIP3    H213864   0.715   0.818   4.745
 4620TIP3   OH213865   0.949   1.147   0.221
 4620TIP3    H113866   0.980   1.169   0.309
 4620TIP3    H213867   0.865   1.192   0.213
 4621TIP3   OH213868   2.024   0.749   1.968
 4621TIP3    H113869   2.011   0.842   1.948
 4621TIP3    H213870   2.057   0.748   2.058
 4622TIP3   OH213871   4.008   5.033   2.979
 4622TIP3    H113872   4.042   4.950   3.014
 4622TIP3    H213873   4.069   5.099   3.012
 4623TIP3   OH213874   3.396   5.164   4.039
 4623TIP3    H113875   3.454   5.234   4.069
 4623TIP3    H213876   3.313   5.179   4.085
 4624TIP3   OH213877   5.787   0.975   2.504
 4624TIP3    H113878   5.794   1.032   2.428
 4624TIP3    H213879   5.852   1.009   2.565
 4625TIP3   OH213880   3.350   4.909   0.788
 4625TIP3    H113881   3.262   4.907   0.826
 4625TIP3    H213882   3.342   4.965   0.711
 4626TIP3   OH213883   2.660   2.642   4.910
 4626TIP3    H113884   2.658   2.708   4.840
 4626TIP3    H213885   2.738   2.664   4.961
 4627TIP3   OH213886   0.778   2.503   3.565
 4627TIP3    H113887   0.686   2.481   3.582
 4627TIP3    H213888   0.785   2.500   3.469
 4628TIP3   OH213889   3.148   3.137   5.188
 4628TIP3    H113890   3.098   3.218   5.182
 4628TIP3    H213891   3.225   3.152   5.133
 4629TIP3   OH213892   1.728   2.176   2.705
 4629TIP3    H113893   1.679   2.160   2.625
 4629TIP3    H213894   1.735   2.090   2.747
 4630TIP3   OH213895   3.827   4.259   0.678
 4630TIP3    H113896   3.882   4.296   0.609
 4630TIP3    H213897   3.864   4.293   0.760
 4631TIP3   OH213898   2.107   0.843   4.626
 4631TIP3    H113899   2.019   0.809   4.608
 4631TIP3    H213900   2.127   0.811   4.714
 4632TIP3   OH213901   1.675   3.443   3.112
 4632TIP3    H113902   1.691   3.377   3.181
 4632TIP3    H213903   1.715   3.405   3.034
 4633TIP3   OH213904   3.989   1.944   1.256
 4633TIP3    H113905   4.082   1.942   1.279
 4633TIP3    H213906   3.983   2.009   1.186
 4634TIP3   OH213907   4.175   3.600   4.795
 4634TIP3    H113908   4.259   3.586   4.751
 4634TIP3    H213909   4.197   3.607   4.888
 4635TIP3   OH213910   5.315   1.411   3.650
 4635TIP3    H113911   5.325   1.317   3.635
 4635TIP3    H213912   5.274   1.444   3.570
 4636TIP3   OH213913   4.154   5.120   5.006
 4636TIP3    H113914   4.247   5.141   5.000
 4636TIP3    H213915   4.109   5.200   4.979
 4637TIP3   OH213916   4.451   2.832   2.755
 4637TIP3    H113917   4.373   2.825   2.700
 4637TIP3    H213918   4.419   2.816   2.844
 4638TIP3   OH213919   0.666   2.932   1.247
 4638TIP3    H113920   0.623   2.869   1.304
 4638TIP3    H213921   0.649   2.900   1.158
 4639TIP3   OH213922   5.788   5.878   1.829
 4639TIP3    H113923   5.778   5.969   1.860
 4639TIP3    H213924   5.841   5.836   1.896
 4640TIP3   OH213925   4.581   5.627   3.853
 4640TIP3    H113926   4.550   5.567   3.785
 4640TIP3    H213927   4.542   5.711   3.831
 4641TIP3   OH213928   1.599   2.159   2.440
 4641TIP3    H113929   1.526   2.105   2.472
 4641TIP3    H213930   1.565   2.248   2.442
 4642TIP3   OH213931   0.285   5.531   1.951
 4642TIP3    H113932   0.209   5.542   2.009
 4642TIP3    H213933   0.333   5.458   1.988
 4643TIP3   OH213934   5.915   3.051   2.293
 4643TIP3    H113935   5.977   2.993   2.247
 4643TIP3    H213936   5.864   2.992   2.348
 4644TIP3   OH213937   0.943   3.805   2.021
 4644TIP3    H113938   0.903   3.718   2.022
 4644TIP3    H213939   0.976   3.818   2.110
 4645TIP3   OH213940   2.682   2.870   5.166
 4645TIP3    H113941   2.672   2.915   5.083
 4645TIP3    H213942   2.593   2.850   5.195
 4646TIP3   OH213943   1.006   0.577   0.397
 4646TIP3    H113944   0.976   0.488   0.377
 4646TIP3    H213945   1.062   0.600   0.323
 4647TIP3   OH213946   1.848   4.355   3.016
 4647TIP3    H113947   1.934   4.379   3.051
 4647TIP3    H213948   1.786   4.389   3.080
 4648TIP3   OH213949   4.022   0.788   4.952
 4648TIP3    H113950   3.927   0.788   4.945
 4648TIP3    H213951   4.052   0.751   4.869
 4649TIP3   OH213952   5.264   2.804   3.669
 4649TIP3    H113953   5.329   2.771   3.608
 4649TIP3    H213954   5.243   2.730   3.725
 4650TIP3   OH213955   3.629   5.766   2.111
 4650TIP3    H113956   3.563   5.773   2.181
 4650TIP3    H213957   3.636   5.855   2.077
 4651TIP3   OH213958   1.561   2.015   2.175
 4651TIP3    H113959   1.500   1.979   2.112
 4651TIP3    H213960   1.507   2.063   2.237
 4652TIP3   OH213961   0.440   4.458   1.918
 4652TIP3    H113962   0.496   4.395   1.872
 4652TIP3    H213963   0.371   4.479   1.856
 4653TIP3   OH213964   0.104   0.672   4.249
 4653TIP3    H113965   0.129   0.707   4.335
 4653TIP3    H213966   0.174   0.611   4.227
 4654TIP3   OH213967   1.043   1.911   3.444
 4654TIP3    H113968   0.950   1.930   3.459
 4654TIP3    H213969   1.058   1.935   3.353
 4655TIP3   OH213970   5.468   2.177   1.610
 4655TIP3    H113971   5.402   2.108   1.598
 4655TIP3    H213972   5.441   2.223   1.690
 4656TIP3   OH213973   1.853   2.487   0.895
 4656TIP3    H113974   1.913   2.508   0.824
 4656TIP3    H213975   1.886   2.536   0.971
 4657TIP3   OH213976   3.235   2.343   3.164
 4657TIP3    H113977   3.254   2.250   3.178
 4657TIP3    H213978   3.294   2.389   3.223
 4658TIP3   OH213979   2.947   5.101   3.442
 4658TIP3    H113980   2.903   5.019   3.462
 4658TIP3    H213981   3.009   5.114   3.514
 4659TIP3   OH213982   2.193   4.404   0.112
 4659TIP3    H113983   2.202   4.413   0.207
 4659TIP3    H213984   2.193   4.494   0.079
 4660TIP3   OH213985   2.861   3.064   1.600
 4660TIP3    H113986   2.797   3.132   1.579
 4660TIP3    H213987   2.876   3.072   1.694
 4661TIP3   OH213988   3.987   3.431   2.490
 4661TIP3    H113989   3.968   3.490   2.563
 4661TIP3    H213990   3.919   3.448   2.426
 4662TIP3   OH213991   3.324   5.200   2.711
 4662TIP3    H113992   3.274   5.123   2.736
 4662TIP3    H213993   3.396   5.165   2.658
 4663TIP3   OH213994   0.726   0.691   2.478
 4663TIP3    H113995   0.781   0.638   2.421
 4663TIP3    H213996   0.689   0.758   2.420
 4664TIP3   OH213997   5.788   5.961   0.594
 4664TIP3    H113998   5.820   5.904   0.525
 4664TIP3    H213999   5.719   6.013   0.554
 4665TIP3   OH214000   2.634   4.255   3.121
 4665TIP3    H114001   2.724   4.222   3.118
 4665TIP3    H214002   2.589   4.196   3.181
 4666TIP3   OH214003   6.325   1.528   1.359
 4666TIP3    H114004   6.417   1.508   1.377
 4666TIP3    H214005   6.304   1.596   1.423
 4667TIP3   OH214006   5.392   2.020   0.507
 4667TIP3    H114007   5.432   1.935   0.485
 4667TIP3    H214008   5.314   2.024   0.452
 4668TIP3   OH214009   0.944   5.682   1.325
 4668TIP3    H114010   0.975   5.765   1.288
 4668TIP3    H214011   1.021   5.643   1.365
 4669TIP3   OH214012   2.500   0.102   1.884
 4669TIP3    H114013   2.459   0.016   1.876
 4669TIP3    H214014   2.536   0.120   1.797
 4670TIP3   OH214015   5.153   0.180   3.062
 4670TIP3    H114016   5.237   0.175   3.017
 4670TIP3    H214017   5.159   0.259   3.116
 4671TIP3   OH214018   5.242   2.872   5.103
 4671TIP3    H114019   5.151   2.842   5.099
 4671TIP3    H214020   5.235   2.964   5.128
 4672TIP3   OH214021   2.291   3.034   0.408
 4672TIP3    H114022   2.292   3.067   0.318
 4672TIP3    H214023   2.380   3.000   0.422
 4673TIP3   OH214024   0.718   4.590   2.433
 4673TIP3    H114025   0.763   4.590   2.517
 4673TIP3    H214026   0.752   4.512   2.388
 4674TIP3   OH214027   1.516   0.227   0.776
 4674TIP3    H114028   1.437   0.188   0.738
 4674TIP3    H214029   1.580   0.156   0.774
 4675TIP3   OH214030   1.954   0.342   2.515
 4675TIP3    H114031   1.975   0.435   2.519
 4675TIP3    H214032   2.038   0.297   2.523
 4676TIP3   OH214033   4.875   2.972   1.532
 4676TIP3    H114034   4.911   3.059   1.547
 4676TIP3    H214035   4.903   2.950   1.443
 4677TIP3   OH214036   2.086   4.895   3.336
 4677TIP3    H114037   2.110   4.985   3.361
 4677TIP3    H214038   2.008   4.906   3.282
 4678TIP3   OH214039   5.973   3.548   2.153
 4678TIP3    H114040   6.019   3.472   2.116
 4678TIP3    H214041   5.889   3.512   2.183
 4679TIP3   OH214042   3.806   5.721   5.090
 4679TIP3    H114043   3.733   5.770   5.051
 4679TIP3    H214044   3.883   5.747   5.040
 4680TIP3   OH214045   2.612   1.089   2.124
 4680TIP3    H114046   2.700   1.118   2.148
 4680TIP3    H214047   2.555   1.159   2.152
 4681TIP3   OH214048   2.337   0.739   3.318
 4681TIP3    H114049   2.253   0.756   3.360
 4681TIP3    H214050   2.391   0.700   3.387
 4682TIP3   OH214051   2.792   4.602   0.196
 4682TIP3    H114052   2.766   4.601   0.104
 4682TIP3    H214053   2.861   4.536   0.203
 4683TIP3   OH214054   5.798   0.728   3.930
 4683TIP3    H114055   5.760   0.752   4.014
 4683TIP3    H214056   5.877   0.783   3.923
 4684TIP3   OH214057   1.720   5.217   1.098
 4684TIP3    H114058   1.669   5.295   1.076
 4684TIP3    H214059   1.689   5.193   1.186
 4685TIP3   OH214060   3.140   5.941   2.519
 4685TIP3    H114061   3.075   5.905   2.459
 4685TIP3    H214062   3.127   5.893   2.600
 4686TIP3   OH214063   5.600   0.633   4.543
 4686TIP3    H114064   5.661   0.659   4.474
 4686TIP3    H214065   5.626   0.544   4.566
 4687TIP3   OH214066   3.214   1.758   4.519
 4687TIP3    H114067   3.207   1.804   4.436
 4687TIP3    H214068   3.308   1.756   4.538
 4688TIP3   OH214069   0.522   3.758   1.578
 4688TIP3    H114070   0.578   3.695   1.533
 4688TIP3    H214071   0.476   3.705   1.644
 4689TIP3   OH214072   2.386   1.972   0.568
 4689TIP3    H114073   2.412   1.993   0.657
 4689TIP3    H214074   2.399   1.877   0.560
 4690TIP3   OH214075   5.236   2.218   4.890
 4690TIP3    H114076   5.204   2.132   4.864
 4690TIP3    H214077   5.285   2.202   4.971
 4691TIP3   OH214078   0.279   3.707   2.945
 4691TIP3    H114079   0.191   3.689   2.978
 4691TIP3    H214080   0.326   3.742   3.021
 4692TIP3   OH214081   0.246   1.864   1.709
 4692TIP3    H114082   0.180   1.894   1.646
 4692TIP3    H214083   0.213   1.780   1.739
 4693TIP3   OH214084   3.043   3.379   1.238
 4693TIP3    H114085   2.967   3.359   1.292
 4693TIP3    H214086   3.048   3.475   1.238
 4694TIP3   OH214087   5.053   1.577   4.000
 4694TIP3    H114088   5.011   1.663   3.996
 4694TIP3    H214089   5.098   1.569   3.916
 4695TIP3   OH214090   1.415   5.149   4.507
 4695TIP3    H114091   1.335   5.173   4.553
 4695TIP3    H214092   1.399   5.173   4.415
 4696TIP3   OH214093   4.483   3.369   3.920
 4696TIP3    H114094   4.403   3.399   3.878
 4696TIP3    H214095   4.456   3.294   3.974
 4697TIP3   OH214096   2.154   3.798   1.150
 4697TIP3    H114097   2.208   3.747   1.090
 4697TIP3    H214098   2.215   3.837   1.211
 4698TIP3   OH214099   3.010   3.010   3.192
 4698TIP3    H114100   3.018   2.967   3.277
 4698TIP3    H214101   3.005   3.103   3.212
 4699TIP3   OH214102   0.360   0.061   1.772
 4699TIP3    H114103   0.338   0.021   1.687
 4699TIP3    H214104   0.365   0.155   1.753
 4700TIP3   OH214105   1.523   4.201   3.486
 4700TIP3    H114106   1.532   4.171   3.577
 4700TIP3    H214107   1.470   4.281   3.492
 4701TIP3   OH214108   5.325   1.697   1.670
 4701TIP3    H114109   5.284   1.644   1.602
 4701TIP3    H214110   5.359   1.633   1.732
 4702TIP3   OH214111   6.350   2.536   1.891
 4702TIP3    H114112   6.305   2.454   1.868
 4702TIP3    H214113   6.280   2.601   1.893
 4703TIP3   OH214114   2.927   4.037   1.432
 4703TIP3    H114115   2.964   4.091   1.363
 4703TIP3    H214116   2.985   3.961   1.436
 4704TIP3   OH214117   0.970   4.114   1.088
 4704TIP3    H114118   1.014   4.109   1.003
 4704TIP3    H214119   1.041   4.129   1.150
 4705TIP3   OH214120   2.293   1.509   1.435
 4705TIP3    H114121   2.221   1.542   1.381
 4705TIP3    H214122   2.264   1.524   1.525
 4706TIP3   OH214123   1.095   0.343   1.389
 4706TIP3    H114124   1.150   0.421   1.377
 4706TIP3    H214125   1.059   0.327   1.302
 4707TIP3   OH214126   4.661   1.755   0.512
 4707TIP3    H114127   4.594   1.699   0.552
 4707TIP3    H214128   4.704   1.798   0.586
 4708TIP3   OH214129   4.345   2.729   2.995
 4708TIP3    H114130   4.335   2.662   2.927
 4708TIP3    H214131   4.372   2.680   3.073
 4709TIP3   OH214132   4.569   3.034   2.890
 4709TIP3    H114133   4.552   2.955   2.838
 4709TIP3    H214134   4.525   3.104   2.841
 4710TIP3   OH214135   1.352   5.101   1.425
 4710TIP3    H114136   1.388   5.094   1.336
 4710TIP3    H214137   1.331   5.011   1.449
 4711TIP3   OH214138   0.669   2.725   3.327
 4711TIP3    H114139   0.635   2.727   3.417
 4711TIP3    H214140   0.683   2.816   3.305
 4712TIP3   OH214141   1.430   1.708   4.238
 4712TIP3    H114142   1.502   1.765   4.213
 4712TIP3    H214143   1.356   1.767   4.250
 4713TIP3   OH214144   1.935   0.180   3.888
 4713TIP3    H114145   1.934   0.088   3.863
 4713TIP3    H214146   2.019   0.191   3.934
 4714TIP3   OH214147   4.425   3.337   5.150
 4714TIP3    H114148   4.395   3.293   5.230
 4714TIP3    H214149   4.371   3.299   5.081
 4715TIP3   OH214150   5.977   4.511   1.229
 4715TIP3    H114151   5.946   4.491   1.318
 4715TIP3    H214152   5.920   4.459   1.172
 4716TIP3   OH214153   0.810   0.691   0.558
 4716TIP3    H114154   0.755   0.681   0.480
 4716TIP3    H214155   0.889   0.641   0.538
 4717TIP3   OH214156   2.607   0.927   4.492
 4717TIP3    H114157   2.625   0.834   4.490
 4717TIP3    H214158   2.691   0.968   4.513
 4718TIP3   OH214159   5.139   2.584   0.637
 4718TIP3    H114160   5.049   2.553   0.632
 4718TIP3    H214161   5.134   2.676   0.609
 4719TIP3   OH214162   0.845   5.249   2.822
 4719TIP3    H114163   0.847   5.244   2.726
 4719TIP3    H214164   0.937   5.259   2.847
 4720TIP3   OH214165   2.649   2.515   4.479
 4720TIP3    H114166   2.715   2.583   4.475
 4720TIP3    H214167   2.691   2.443   4.526
 4721TIP3   OH214168   4.033   5.470   3.596
 4721TIP3    H114169   3.955   5.416   3.587
 4721TIP3    H214170   4.027   5.508   3.683
 4722TIP3   OH214171   3.448   2.375   4.123
 4722TIP3    H114172   3.457   2.401   4.031
 4722TIP3    H214173   3.369   2.419   4.153
 4723TIP3   OH214174   3.250   1.627   2.880
 4723TIP3    H114175   3.335   1.601   2.844
 4723TIP3    H214176   3.201   1.662   2.806
 4724TIP3   OH214177   0.987   4.604   2.207
 4724TIP3    H114178   0.958   4.542   2.274
 4724TIP3    H214179   0.909   4.654   2.184
 4725TIP3   OH214180   5.385   4.618   0.810
 4725TIP3    H114181   5.426   4.539   0.845
 4725TIP3    H214182   5.420   4.626   0.722
 4726TIP3   OH214183   1.537   2.581   1.146
 4726TIP3    H114184   1.573   2.670   1.145
 4726TIP3    H214185   1.608   2.527   1.179
 4727TIP3   OH214186   4.127   0.147   0.852
 4727TIP3    H114187   4.052   0.193   0.890
 4727TIP3    H214188   4.101   0.054   0.854
 4728TIP3   OH214189   5.022   1.145   3.996
 4728TIP3    H114190   5.086   1.208   3.965
 4728TIP3    H214191   5.033   1.069   3.939
 4729TIP3   OH214192   1.385   3.448   3.052
 4729TIP3    H114193   1.406   3.387   3.122
 4729TIP3    H214194   1.470   3.478   3.020
 4730TIP3   OH214195   5.405   4.845   4.573
 4730TIP3    H114196   5.431   4.770   4.627
 4730TIP3    H214197   5.414   4.920   4.632
 4731TIP3   OH214198   1.806   5.264   4.627
 4731TIP3    H114199   1.787   5.338   4.684
 4731TIP3    H214200   1.902   5.261   4.623
 4732TIP3   OH214201   1.372   0.593   2.286
 4732TIP3    H114202   1.434   0.666   2.280
 4732TIP3    H214203   1.289   0.634   2.308
 4733TIP3   OH214204   5.772   3.166   0.456
 4733TIP3    H114205   5.688   3.194   0.493
 4733TIP3    H214206   5.823   3.139   0.532
 4734TIP3   OH214207   1.001   4.080   2.823
 4734TIP3    H114208   0.937   4.091   2.752
 4734TIP3    H214209   0.948   4.077   2.903
 4735TIP3   OH214210   5.037   1.326   2.483
 4735TIP3    H114211   5.118   1.339   2.533
 4735TIP3    H214212   4.974   1.296   2.548
 4736TIP3   OH214213   4.213   0.804   2.276
 4736TIP3    H114214   4.275   0.795   2.204
 4736TIP3    H214215   4.141   0.855   2.238
 4737TIP3   OH214216   4.909   2.472   3.582
 4737TIP3    H114217   4.961   2.438   3.509
 4737TIP3    H214218   4.818   2.455   3.556
 4738TIP3   OH214219   6.119   1.951   4.632
 4738TIP3    H114220   6.104   1.953   4.727
 4738TIP3    H214221   6.211   1.926   4.623
 4739TIP3   OH214222   0.685   1.015   3.258
 4739TIP3    H114223   0.676   1.082   3.190
 4739TIP3    H214224   0.598   0.978   3.267
 4740TIP3   OH214225   3.496   3.645   2.187
 4740TIP3    H114226   3.423   3.694   2.224
 4740TIP3    H214227   3.465   3.554   2.185
 4741TIP3   OH214228   4.253   5.064   1.997
 4741TIP3    H114229   4.199   5.102   1.928
 4741TIP3    H214230   4.252   5.129   2.067
 4742TIP3   OH214231   4.470   0.153   0.351
 4742TIP3    H114232   4.393   0.209   0.345
 4742TIP3    H214233   4.469   0.103   0.269
 4743TIP3   OH214234   1.549   5.077   5.060
 4743TIP3    H114235   1.498   5.143   5.107
 4743TIP3    H214236   1.559   5.113   4.972
 4744TIP3   OH214237   2.366   5.413   5.003
 4744TIP3    H114238   2.440   5.369   5.044
 4744TIP3    H214239   2.341   5.481   5.065
 4745TIP3   OH214240   1.148   0.238   4.570
 4745TIP3    H114241   1.228   0.193   4.542
 4745TIP3    H214242   1.179   0.310   4.625
 4746TIP3   OH214243   6.203   0.109   4.330
 4746TIP3    H114244   6.220   0.166   4.405
 4746TIP3    H214245   6.126   0.059   4.355
 4747TIP3   OH214246   0.722   5.064   0.113
 4747TIP3    H114247   0.645   5.115   0.140
 4747TIP3    H214248   0.796   5.117   0.142
 4748TIP3   OH214249   2.392   1.442   1.062
 4748TIP3    H114250   2.415   1.473   1.149
 4748TIP3    H214251   2.326   1.374   1.077
 4749TIP3   OH214252   5.352   2.498   2.982
 4749TIP3    H114253   5.269   2.492   2.936
 4749TIP3    H214254   5.395   2.414   2.964
 4750TIP3   OH214255   0.193   4.301   3.746
 4750TIP3    H114256   0.271   4.325   3.695
 4750TIP3    H214257   0.229   4.263   3.827
 4751TIP3   OH214258   0.581   1.848   1.473
 4751TIP3    H114259   0.642   1.848   1.399
 4751TIP3    H214260   0.503   1.893   1.441
 4752TIP3   OH214261   4.085   1.009   3.664
 4752TIP3    H114262   4.114   1.043   3.580
 4752TIP3    H214263   4.133   0.927   3.675
 4753TIP3   OH214264   3.322   5.073   1.897
 4753TIP3    H114265   3.368   5.057   1.980
 4753TIP3    H214266   3.378   5.030   1.831
 4754TIP3   OH214267   1.037   3.767   2.954
 4754TIP3    H114268   1.098   3.817   2.900
 4754TIP3    H214269   0.990   3.832   3.005
 4755TIP3   OH214270   1.516   2.196   0.129
 4755TIP3    H114271   1.595   2.248   0.144
 4755TIP3    H214272   1.470   2.243   0.060
 4756TIP3   OH214273   5.155   0.887   4.737
 4756TIP3    H114274   5.225   0.953   4.740
 4756TIP3    H214275   5.075   0.935   4.756
 4757TIP3   OH214276   3.500   5.220   3.574
 4757TIP3    H114277   3.545   5.266   3.503
 4757TIP3    H214278   3.429   5.279   3.600
 4758TIP3   OH214279   1.797   0.740   0.297
 4758TIP3    H114280   1.703   0.730   0.311
 4758TIP3    H214281   1.823   0.812   0.354
 4759TIP3   OH214282   0.966   4.491   5.123
 4759TIP3    H114283   0.961   4.500   5.028
 4759TIP3    H214284   0.875   4.492   5.152
 4760TIP3   OH214285   3.543   4.617   4.653
 4760TIP3    H114286   3.632   4.614   4.617
 4760TIP3    H214287   3.535   4.536   4.703
 4761TIP3   OH214288   5.295   2.247   1.201
 4761TIP3    H114289   5.348   2.219   1.126
 4761TIP3    H214290   5.343   2.320   1.239
 4762TIP3   OH214291   6.075   4.855   2.452
 4762TIP3    H114292   6.055   4.805   2.531
 4762TIP3    H214293   6.044   4.801   2.380
 4763TIP3   OH214294   4.652   0.417   4.414
 4763TIP3    H114295   4.713   0.389   4.482
 4763TIP3    H214296   4.708   0.454   4.345
 4764TIP3   OH214297   1.973   2.068   0.366
 4764TIP3    H114298   2.024   2.135   0.411
 4764TIP3    H214299   1.989   2.084   0.273
 4765TIP3   OH214300   0.344   5.292   2.082
 4765TIP3    H114301   0.276   5.282   2.148
 4765TIP3    H214302   0.415   5.236   2.112
 4766TIP3   OH214303   2.947   3.726   0.221
 4766TIP3    H114304   3.010   3.699   0.288
 4766TIP3    H214305   2.929   3.646   0.171
 4767TIP3   OH214306   5.825   2.259   1.581
 4767TIP3    H114307   5.778   2.232   1.502
 4767TIP3    H214308   5.799   2.195   1.647
 4768TIP3   OH214309   3.641   1.304   0.815
 4768TIP3    H114310   3.587   1.262   0.748
 4768TIP3    H214311   3.620   1.258   0.896
 4769TIP3   OH214312   5.431   4.528   3.410
 4769TIP3    H114313   5.336   4.531   3.398
 4769TIP3    H214314   5.451   4.435   3.420
 4770TIP3   OH214315   6.174   1.799   1.012
 4770TIP3    H114316   6.245   1.823   1.072
 4770TIP3    H214317   6.158   1.878   0.961
 4771TIP3   OH214318   0.157   1.971   0.025
 4771TIP3    H114319   0.150   1.959   0.120
 4771TIP3    H214320   0.067   1.961  -0.007
 4772TIP3   OH214321   0.103   5.564   2.144
 4772TIP3    H114322   0.083   5.657   2.145
 4772TIP3    H214323   0.018   5.520   2.138
 4773TIP3   OH214324   5.580   3.837   3.502
 4773TIP3    H114325   5.611   3.750   3.527
 4773TIP3    H214326   5.549   3.827   3.412
 4774TIP3   OH214327   4.183   3.716   2.279
 4774TIP3    H114328   4.167   3.811   2.276
 4774TIP3    H214329   4.248   3.701   2.210
 4775TIP3   OH214330   6.372   2.952   2.200
 4775TIP3    H114331   6.282   2.976   2.182
 4775TIP3    H214332   6.374   2.857   2.190
 4776TIP3   OH214333   3.674   1.066   0.143
 4776TIP3    H114334   3.689   1.018   0.224
 4776TIP3    H214335   3.751   1.047   0.089
 4777TIP3   OH214336   5.236   3.106   1.440
 4777TIP3    H114337   5.159   3.091   1.494
 4777TIP3    H214338   5.220   3.056   1.360
 4778TIP3   OH214339   4.961   4.014   4.734
 4778TIP3    H114340   4.878   3.977   4.706
 4778TIP3    H214341   4.985   3.964   4.812
 4779TIP3   OH214342   4.614   3.577   4.632
 4779TIP3    H114343   4.627   3.631   4.554
 4779TIP3    H214344   4.700   3.542   4.652
 4780TIP3   OH214345   1.963   2.535   2.528
 4780TIP3    H114346   2.048   2.495   2.508
 4780TIP3    H214347   1.958   2.536   2.623
 4781TIP3   OH214348   1.897   4.224   1.855
 4781TIP3    H114349   1.979   4.274   1.862
 4781TIP3    H214350   1.863   4.245   1.768
 4782TIP3   OH214351   3.367   2.612   1.803
 4782TIP3    H114352   3.385   2.706   1.808
 4782TIP3    H214353   3.451   2.572   1.783
 4783TIP3   OH214354   4.169   5.348   4.593
 4783TIP3    H114355   4.155   5.435   4.630
 4783TIP3    H214356   4.106   5.291   4.638
 4784TIP3   OH214357   0.909   5.146   3.069
 4784TIP3    H114358   0.999   5.172   3.054
 4784TIP3    H214359   0.858   5.195   3.005
 4785TIP3   OH214360   4.510   5.346   0.069
 4785TIP3    H114361   4.484   5.256   0.050
 4785TIP3    H214362   4.593   5.357   0.023
 4786TIP3   OH214363   4.285   3.672   1.229
 4786TIP3    H114364   4.257   3.720   1.307
 4786TIP3    H214365   4.381   3.676   1.232
 4787TIP3   OH214366   5.437   5.187   4.421
 4787TIP3    H114367   5.342   5.172   4.424
 4787TIP3    H214368   5.452   5.222   4.333
 4788TIP3   OH214369   4.205   1.287   0.303
 4788TIP3    H114370   4.195   1.293   0.208
 4788TIP3    H214371   4.122   1.249   0.333
 4789TIP3   OH214372   5.421   0.576   4.930
 4789TIP3    H114373   5.432   0.629   4.851
 4789TIP3    H214374   5.455   0.630   5.001
 4790TIP3   OH214375   1.046   0.124   3.225
 4790TIP3    H114376   1.123   0.173   3.197
 4790TIP3    H214377   1.025   0.160   3.311
 4791TIP3   OH214378   6.121   3.016   1.184
 4791TIP3    H114379   6.209   2.996   1.217
 4791TIP3    H214380   6.070   3.032   1.264
 4792TIP3   OH214381   0.650   3.730   1.952
 4792TIP3    H114382   0.687   3.658   2.003
 4792TIP3    H214383   0.629   3.691   1.867
 4793TIP3   OH214384   4.753   3.144   4.262
 4793TIP3    H114385   4.760   3.088   4.185
 4793TIP3    H214386   4.686   3.208   4.240
 4794TIP3   OH214387   5.625   2.624   3.232
 4794TIP3    H114388   5.652   2.583   3.150
 4794TIP3    H214389   5.622   2.551   3.295
 4795TIP3   OH214390   2.194   2.597   2.828
 4795TIP3    H114391   2.159   2.640   2.906
 4795TIP3    H214392   2.273   2.647   2.807
 4796TIP3   OH214393   5.165   3.892   0.429
 4796TIP3    H114394   5.242   3.889   0.486
 4796TIP3    H214395   5.199   3.919   0.344
 4797TIP3   OH214396   0.366   2.561   4.177
 4797TIP3    H114397   0.277   2.526   4.173
 4797TIP3    H214398   0.389   2.558   4.270
 4798TIP3   OH214399   0.322   3.679   1.782
 4798TIP3    H114400   0.300   3.638   1.865
 4798TIP3    H214401   0.262   3.640   1.719
 4799TIP3   OH214402   6.007   3.585   0.918
 4799TIP3    H114403   6.095   3.608   0.948
 4799TIP3    H214404   5.970   3.533   0.989
 4800TIP3   OH214405   5.032   0.017   4.629
 4800TIP3    H114406   5.047  -0.003   4.721
 4800TIP3    H214407   5.050   0.111   4.622
 4801TIP3   OH214408   4.861   1.363   3.237
 4801TIP3    H114409   4.839   1.395   3.149
 4801TIP3    H214410   4.779   1.328   3.271
 4802TIP3   OH214411   0.182   5.052   4.350
 4802TIP3    H114412   0.261   5.105   4.365
 4802TIP3    H214413   0.140   5.047   4.435
 4803TIP3   OH214414   0.415   4.571   1.056
 4803TIP3    H114415   0.403   4.665   1.051
 4803TIP3    H214416   0.500   4.555   1.015
 4804TIP3   OH214417   4.961   3.773   0.017
 4804TIP3    H114418   4.877   3.791  -0.024
 4804TIP3    H214419   4.959   3.823   0.099
 4805TIP3   OH214420   2.716   1.336   4.829
 4805TIP3    H114421   2.699   1.264   4.768
 4805TIP3    H214422   2.732   1.412   4.772
 4806TIP3   OH214423   2.268   0.577   1.799
 4806TIP3    H114424   2.204   0.632   1.756
 4806TIP3    H214425   2.239   0.573   1.890
 4807TIP3   OH214426   0.497   4.075   4.897
 4807TIP3    H114427   0.556   4.143   4.928
 4807TIP3    H214428   0.545   4.031   4.826
 4808TIP3   OH214429   5.207   0.754   5.085
 4808TIP3    H114430   5.283   0.703   5.057
 4808TIP3    H214431   5.139   0.732   5.021
 4809TIP3   OH214432   0.257   1.072   4.684
 4809TIP3    H114433   0.321   1.125   4.732
 4809TIP3    H214434   0.173   1.113   4.703
 4810TIP3   OH214435   2.761   2.302   3.162
 4810TIP3    H114436   2.786   2.256   3.082
 4810TIP3    H214437   2.760   2.233   3.229
 4811TIP3   OH214438   0.431   3.360   1.806
 4811TIP3    H114439   0.404   3.421   1.874
 4811TIP3    H214440   0.350   3.338   1.760
 4812TIP3   OH214441   4.909   4.381   5.028
 4812TIP3    H114442   4.962   4.363   4.950
 4812TIP3    H214443   4.945   4.462   5.064
 4813TIP3   OH214444   1.197   1.779   4.636
 4813TIP3    H114445   1.224   1.692   4.606
 4813TIP3    H214446   1.162   1.765   4.724
 4814TIP3   OH214447   5.713   2.870   2.461
 4814TIP3    H114448   5.678   2.944   2.512
 4814TIP3    H214449   5.699   2.794   2.517
 4815TIP3   OH214450   0.638   5.430   1.477
 4815TIP3    H114451   0.657   5.382   1.396
 4815TIP3    H214452   0.707   5.403   1.537
 4816TIP3   OH214453   3.330   1.529   2.061
 4816TIP3    H114454   3.319   1.451   2.116
 4816TIP3    H214455   3.400   1.578   2.104
 4817TIP3   OH214456   3.573   4.932   2.299
 4817TIP3    H114457   3.527   5.015   2.303
 4817TIP3    H214458   3.636   4.942   2.227
 4818TIP3   OH214459   4.316   0.541   1.191
 4818TIP3    H114460   4.318   0.539   1.096
 4818TIP3    H214461   4.228   0.513   1.215
 4819TIP3   OH214462   2.336   5.567   1.700
 4819TIP3    H114463   2.354   5.650   1.745
 4819TIP3    H214464   2.256   5.535   1.742
 4820TIP3   OH214465   4.330   0.389   2.878
 4820TIP3    H114466   4.251   0.386   2.824
 4820TIP3    H214467   4.307   0.339   2.956
 4821TIP3   OH214468   3.097   5.684   2.020
 4821TIP3    H114469   3.054   5.650   1.941
 4821TIP3    H214470   3.174   5.729   1.987
 4822TIP3   OH214471   0.278   1.595   4.785
 4822TIP3    H114472   0.228   1.670   4.753
 4822TIP3    H214473   0.327   1.564   4.709
 4823TIP3   OH214474   1.221   0.168   0.315
 4823TIP3    H114475   1.252   0.142   0.402
 4823TIP3    H214476   1.135   0.127   0.307
 4824TIP3   OH214477   5.868   2.199   3.477
 4824TIP3    H114478   5.817   2.118   3.473
 4824TIP3    H214479   5.920   2.197   3.396
 4825TIP3   OH214480   1.552   3.829   0.733
 4825TIP3    H114481   1.597   3.828   0.649
 4825TIP3    H214482   1.478   3.769   0.722
 4826TIP3   OH214483   5.715   0.849   4.857
 4826TIP3    H114484   5.747   0.936   4.836
 4826TIP3    H214485   5.760   0.826   4.939
 4827TIP3   OH214486   2.576   0.785   3.622
 4827TIP3    H114487   2.540   0.808   3.708
 4827TIP3    H214488   2.562   0.864   3.570
 4828TIP3   OH214489   2.025   0.458   4.447
 4828TIP3    H114490   2.046   0.396   4.517
 4828TIP3    H214491   1.956   0.415   4.396
 4829TIP3   OH214492   5.463   0.568   0.130
 4829TIP3    H114493   5.551   0.564   0.167
 4829TIP3    H214494   5.414   0.500   0.177
 4830TIP3   OH214495   5.451   3.537   2.657
 4830TIP3    H114496   5.484   3.599   2.592
 4830TIP3    H214497   5.458   3.451   2.616
 4831TIP3   OH214498   5.851   4.857   1.805
 4831TIP3    H114499   5.913   4.909   1.754
 4831TIP3    H214500   5.806   4.803   1.740
 4832TIP3   OH214501   1.822   1.237   2.226
 4832TIP3    H114502   1.779   1.267   2.306
 4832TIP3    H214503   1.752   1.232   2.162
 4833TIP3   OH214504   5.006   1.372   0.588
 4833TIP3    H114505   5.050   1.297   0.547
 4833TIP3    H214506   5.077   1.434   0.607
 4834TIP3   OH214507   1.881   2.545   2.788
 4834TIP3    H114508   1.935   2.608   2.836
 4834TIP3    H214509   1.862   2.476   2.852
 4835TIP3   OH214510   0.472   2.715   2.456
 4835TIP3    H114511   0.425   2.796   2.439
 4835TIP3    H214512   0.483   2.674   2.371
 4836TIP3   OH214513   3.420   3.202   1.968
 4836TIP3    H114514   3.395   3.143   1.898
 4836TIP3    H214515   3.378   3.166   2.046
 4837TIP3   OH214516   3.501   4.836   2.550
 4837TIP3    H114517   3.527   4.862   2.461
 4837TIP3    H214518   3.582   4.840   2.600
 4838TIP3   OH214519   1.359   5.493   3.804
 4838TIP3    H114520   1.396   5.503   3.716
 4838TIP3    H214521   1.434   5.505   3.863
 4839TIP3   OH214522   5.661   0.382   4.616
 4839TIP3    H114523   5.682   0.326   4.541
 4839TIP3    H214524   5.721   0.354   4.685
 4840TIP3   OH214525   2.150   2.445   3.763
 4840TIP3    H114526   2.062   2.409   3.766
 4840TIP3    H214527   2.207   2.370   3.780
 4841TIP3   OH214528   4.723   5.988   2.413
 4841TIP3    H114529   4.662   5.915   2.405
 4841TIP3    H214530   4.760   5.998   2.325
 4842TIP3   OH214531   0.090   0.624   0.937
 4842TIP3    H114532   0.128   0.553   0.885
 4842TIP3    H214533   0.002   0.593   0.959
 4843TIP3   OH214534   1.307   3.163   0.986
 4843TIP3    H114535   1.291   3.070   1.004
 4843TIP3    H214536   1.235   3.189   0.928
 4844TIP3   OH214537   5.892   2.470   1.730
 4844TIP3    H114538   5.980   2.490   1.696
 4844TIP3    H214539   5.852   2.416   1.662
 4845TIP3   OH214540   1.749   0.710   0.833
 4845TIP3    H114541   1.683   0.767   0.872
 4845TIP3    H214542   1.709   0.680   0.751
 4846TIP3   OH214543   1.699   2.794   5.176
 4846TIP3    H114544   1.665   2.868   5.126
 4846TIP3    H214545   1.651   2.719   5.142
 4847TIP3   OH214546   0.718   0.254   0.979
 4847TIP3    H114547   0.739   0.183   0.918
 4847TIP3    H214548   0.709   0.331   0.924
 4848TIP3   OH214549   2.207   4.718   0.397
 4848TIP3    H114550   2.203   4.627   0.369
 4848TIP3    H214551   2.249   4.714   0.483
 4849TIP3   OH214552   2.431   2.176   1.934
 4849TIP3    H114553   2.343   2.212   1.931
 4849TIP3    H214554   2.487   2.252   1.950
 4850TIP3   OH214555   3.376   1.770   2.338
 4850TIP3    H114556   3.369   1.863   2.356
 4850TIP3    H214557   3.344   1.727   2.417
 4851TIP3   OH214558   4.216   0.091   1.242
 4851TIP3    H114559   4.290   0.119   1.294
 4851TIP3    H214560   4.251   0.080   1.154
 4852TIP3   OH214561   0.981   0.635   4.178
 4852TIP3    H114562   1.046   0.609   4.112
 4852TIP3    H214563   1.018   0.604   4.261
 4853TIP3   OH214564   4.392   2.446   3.566
 4853TIP3    H114565   4.335   2.501   3.513
 4853TIP3    H214566   4.422   2.503   3.637
 4854TIP3   OH214567   3.363   4.429   4.027
 4854TIP3    H114568   3.325   4.515   4.008
 4854TIP3    H214569   3.400   4.438   4.114
 4855TIP3   OH214570   4.335   2.674   1.254
 4855TIP3    H114571   4.384   2.601   1.217
 4855TIP3    H214572   4.306   2.643   1.340
 4856TIP3   OH214573   2.846   1.364   1.440
 4856TIP3    H114574   2.916   1.401   1.492
 4856TIP3    H214575   2.778   1.340   1.504
 4857TIP3   OH214576   1.859   5.490   3.041
 4857TIP3    H114577   1.955   5.492   3.043
 4857TIP3    H214578   1.835   5.426   3.109
 4858TIP3   OH214579   1.404   0.900   2.905
 4858TIP3    H114580   1.328   0.842   2.913
 4858TIP3    H214581   1.469   0.861   2.964
 4859TIP3   OH214582   5.344   4.765   1.122
 4859TIP3    H114583   5.331   4.846   1.072
 4859TIP3    H214584   5.258   4.723   1.122
 4860TIP3   OH214585   3.887   4.106   2.693
 4860TIP3    H114586   3.917   4.078   2.606
 4860TIP3    H214587   3.846   4.028   2.729
 4861TIP3   OH214588   0.838   5.253   2.441
 4861TIP3    H114589   0.831   5.165   2.404
 4861TIP3    H214590   0.930   5.276   2.431
 4862TIP3   OH214591   4.033   1.805   4.200
 4862TIP3    H114592   4.119   1.768   4.220
 4862TIP3    H214593   4.051   1.898   4.182
 4863TIP3   OH214594   5.174   4.286   1.499
 4863TIP3    H114595   5.220   4.269   1.581
 4863TIP3    H214596   5.096   4.231   1.503
 4864TIP3   OH214597   1.223   0.101   0.988
 4864TIP3    H114598   1.199   0.139   0.904
 4864TIP3    H214599   1.176   0.154   1.053
 4865TIP3   OH214600   3.389   1.122   3.584
 4865TIP3    H114601   3.419   1.033   3.601
 4865TIP3    H214602   3.439   1.176   3.645
 4866TIP3   OH214603   1.653   5.257   2.630
 4866TIP3    H114604   1.639   5.181   2.573
 4866TIP3    H214605   1.734   5.237   2.677
 4867TIP3   OH214606   5.794   2.070   0.634
 4867TIP3    H114607   5.752   1.987   0.609
 4867TIP3    H214608   5.860   2.045   0.699
 4868TIP3   OH214609   5.222   4.431   0.456
 4868TIP3    H114610   5.260   4.352   0.417
 4868TIP3    H214611   5.139   4.401   0.494
 4869TIP3   OH214612   3.230   5.777   4.233
 4869TIP3    H114613   3.176   5.840   4.282
 4869TIP3    H214614   3.186   5.769   4.148
 4870TIP3   OH214615   5.877   1.560   4.245
 4870TIP3    H114616   5.788   1.580   4.216
 4870TIP3    H214617   5.896   1.474   4.208
 4871TIP3   OH214618   2.497   3.568   2.790
 4871TIP3    H114619   2.502   3.610   2.876
 4871TIP3    H214620   2.588   3.549   2.767
 4872TIP3   OH214621   5.085   3.273   1.251
 4872TIP3    H114622   5.117   3.276   1.342
 4872TIP3    H214623   5.105   3.184   1.222
 4873TIP3   OH214624   1.120   3.420   1.126
 4873TIP3    H114625   1.178   3.409   1.051
 4873TIP3    H214626   1.034   3.439   1.088
 4874TIP3   OH214627   4.730   2.014   1.783
 4874TIP3    H114628   4.750   1.951   1.853
 4874TIP3    H214629   4.706   2.094   1.829
 4875TIP3   OH214630   1.245   3.068   0.570
 4875TIP3    H114631   1.321   3.040   0.520
 4875TIP3    H214632   1.231   3.159   0.545
 4876TIP3   OH214633   2.747   2.986   2.153
 4876TIP3    H114634   2.826   2.934   2.141
 4876TIP3    H214635   2.756   3.024   2.241
 4877TIP3   OH214636   3.055   0.057   4.774
 4877TIP3    H114637   3.119   0.118   4.738
 4877TIP3    H214638   3.035   0.091   4.861
 4878TIP3   OH214639   4.225   0.953   1.693
 4878TIP3    H114640   4.237   0.870   1.740
 4878TIP3    H214641   4.160   0.932   1.626
 4879TIP3   OH214642   0.660   5.004   3.979
 4879TIP3    H114643   0.692   4.916   3.961
 4879TIP3    H214644   0.595   5.020   3.910
 4880TIP3   OH214645   3.612   5.060   3.340
 4880TIP3    H114646   3.572   5.068   3.253
 4880TIP3    H214647   3.696   5.018   3.323
 4881TIP3   OH214648   2.567   1.173   4.635
 4881TIP3    H114649   2.478   1.208   4.636
 4881TIP3    H214650   2.557   1.082   4.608
 4882TIP3   OH214651   1.456   3.192   3.174
 4882TIP3    H114652   1.417   3.115   3.217
 4882TIP3    H214653   1.523   3.222   3.234
 4883TIP3   OH214654   1.667   1.042   2.466
 4883TIP3    H114655   1.580   1.071   2.437
 4883TIP3    H214656   1.648   0.974   2.532
 4884TIP3   OH214657   3.680   5.400   1.525
 4884TIP3    H114658   3.664   5.307   1.538
 4884TIP3    H214659   3.735   5.405   1.447
 4885TIP3   OH214660   3.832   1.633   0.432
 4885TIP3    H114661   3.788   1.551   0.411
 4885TIP3    H214662   3.902   1.641   0.367
 4886TIP3   OH214663   1.166   2.854   3.198
 4886TIP3    H114664   1.104   2.864   3.270
 4886TIP3    H214665   1.167   2.759   3.181
 4887TIP3   OH214666   3.523   4.573   3.695
 4887TIP3    H114667   3.449   4.556   3.638
 4887TIP3    H214668   3.534   4.492   3.745
 4888TIP3   OH214669   2.012   4.107   1.569
 4888TIP3    H114670   1.957   4.066   1.502
 4888TIP3    H214671   1.952   4.163   1.618
 4889TIP3   OH214672   5.809   5.207   5.086
 4889TIP3    H114673   5.887   5.162   5.053
 4889TIP3    H214674   5.787   5.163   5.168
 4890TIP3   OH214675   3.446   5.620   3.027
 4890TIP3    H114676   3.435   5.617   3.122
 4890TIP3    H214677   3.356   5.621   2.992
 4891TIP3   OH214678   5.429   3.521   2.945
 4891TIP3    H114679   5.476   3.517   2.861
 4891TIP3    H214680   5.489   3.566   3.004
 4892TIP3   OH214681   0.760   2.171   2.339
 4892TIP3    H114682   0.807   2.090   2.322
 4892TIP3    H214683   0.803   2.208   2.416
 4893TIP3   OH214684   6.311   5.479   2.472
 4893TIP3    H114685   6.272   5.428   2.400
 4893TIP3    H214686   6.350   5.555   2.429
 4894TIP3   OH214687   3.379   2.710   5.008
 4894TIP3    H114688   3.301   2.723   5.061
 4894TIP3    H214689   3.428   2.642   5.054
 4895TIP3   OH214690   4.363   1.536   2.977
 4895TIP3    H114691   4.442   1.590   2.982
 4895TIP3    H214692   4.356   1.513   2.884
 4896TIP3   OH214693   1.978   1.648   4.559
 4896TIP3    H114694   2.055   1.701   4.583
 4896TIP3    H214695   2.015   1.565   4.528
 4897TIP3   OH214696   4.532   1.554   4.704
 4897TIP3    H114697   4.569   1.514   4.625
 4897TIP3    H214698   4.608   1.577   4.757
 4898TIP3   OH214699   5.131   0.763   3.521
 4898TIP3    H114700   5.049   0.733   3.481
 4898TIP3    H214701   5.195   0.760   3.449
 4899TIP3   OH214702   0.499   1.915   4.515
 4899TIP3    H114703   0.523   1.862   4.591
 4899TIP3    H214704   0.582   1.926   4.467
 4900TIP3   OH214705   1.003   2.002   3.171
 4900TIP3    H114706   1.020   2.025   3.080
 4900TIP3    H214707   0.919   1.956   3.169
 4901TIP3   OH214708   1.815   4.463   3.281
 4901TIP3    H114709   1.860   4.390   3.323
 4901TIP3    H214710   1.820   4.535   3.343
 4902TIP3   OH214711   3.716   3.889   2.736
 4902TIP3    H114712   3.665   3.882   2.656
 4902TIP3    H214713   3.662   3.941   2.795
 4903TIP3   OH214714   0.152   1.292   0.219
 4903TIP3    H114715   0.213   1.320   0.288
 4903TIP3    H214716   0.209   1.252   0.153
 4904TIP3   OH214717   5.294   3.752   0.008
 4904TIP3    H114718   5.228   3.821  -0.003
 4904TIP3    H214719   5.374   3.799   0.031
 4905TIP3   OH214720   4.189   5.502   2.215
 4905TIP3    H114721   4.159   5.540   2.132
 4905TIP3    H214722   4.217   5.413   2.192
 4906TIP3   OH214723   0.905   3.638   1.507
 4906TIP3    H114724   0.887   3.544   1.507
 4906TIP3    H214725   0.890   3.666   1.417
 4907TIP3   OH214726   1.736   0.419   4.062
 4907TIP3    H114727   1.695   0.466   3.989
 4907TIP3    H214728   1.827   0.451   4.062
 4908TIP3   OH214729   2.254   5.059   4.341
 4908TIP3    H114730   2.272   5.106   4.259
 4908TIP3    H214731   2.341   5.041   4.378
 4909TIP3   OH214732   2.746   2.317   0.142
 4909TIP3    H114733   2.742   2.376   0.066
 4909TIP3    H214734   2.663   2.330   0.187
 4910TIP3   OH214735   2.376   2.852   3.521
 4910TIP3    H114736   2.374   2.758   3.538
 4910TIP3    H214737   2.378   2.892   3.608
 4911TIP3   OH214738   3.591   4.438   2.581
 4911TIP3    H114739   3.549   4.392   2.653
 4911TIP3    H214740   3.556   4.526   2.584
 4912TIP3   OH214741   2.884   3.603   4.205
 4912TIP3    H114742   2.902   3.664   4.277
 4912TIP3    H214743   2.970   3.571   4.179
 4913TIP3   OH214744   0.623   3.395   4.970
 4913TIP3    H114745   0.598   3.326   4.909
 4913TIP3    H214746   0.660   3.349   5.045
 4914TIP3   OH214747   3.732   0.567   3.375
 4914TIP3    H114748   3.720   0.476   3.349
 4914TIP3    H214749   3.652   0.611   3.347
 4915TIP3   OH214750   6.275   0.923   4.789
 4915TIP3    H114751   6.235   0.934   4.704
 4915TIP3    H214752   6.321   1.005   4.805
 4916TIP3   OH214753   3.368   0.496   3.866
 4916TIP3    H114754   3.402   0.578   3.903
 4916TIP3    H214755   3.446   0.442   3.854
 4917TIP3   OH214756   0.806   2.985   4.552
 4917TIP3    H114757   0.715   3.004   4.527
 4917TIP3    H214758   0.843   2.940   4.476
 4918TIP3   OH214759   2.472   4.437   3.425
 4918TIP3    H114760   2.463   4.363   3.485
 4918TIP3    H214761   2.407   4.421   3.357
 4919TIP3   OH214762   3.086   5.051   2.427
 4919TIP3    H114763   3.032   4.985   2.385
 4919TIP3    H214764   3.025   5.103   2.480
 4920TIP3   OH214765   4.702   5.657   1.313
 4920TIP3    H114766   4.777   5.619   1.268
 4920TIP3    H214767   4.727   5.749   1.327
 4921TIP3   OH214768   0.563   1.126   2.605
 4921TIP3    H114769   0.645   1.160   2.568
 4921TIP3    H214770   0.577   1.127   2.700
 4922TIP3   OH214771   1.891   0.677   1.297
 4922TIP3    H114772   1.906   0.761   1.253
 4922TIP3    H214773   1.969   0.625   1.278
 4923TIP3   OH214774   0.337   1.339   4.140
 4923TIP3    H114775   0.388   1.266   4.105
 4923TIP3    H214776   0.356   1.339   4.234
 4924TIP3   OH214777   5.703   4.164   3.215
 4924TIP3    H114778   5.781   4.181   3.267
 4924TIP3    H214779   5.698   4.239   3.156
 4925TIP3   OH214780   3.219   1.184   3.020
 4925TIP3    H114781   3.135   1.143   3.001
 4925TIP3    H214782   3.250   1.139   3.099
 4926TIP3   OH214783   1.365   2.985   3.372
 4926TIP3    H114784   1.301   2.947   3.312
 4926TIP3    H214785   1.427   2.914   3.390
 4927TIP3   OH214786   6.087   3.055   4.015
 4927TIP3    H114787   6.038   2.999   3.956
 4927TIP3    H214788   6.094   3.005   4.096
 4928TIP3   OH214789   2.125   3.838   4.499
 4928TIP3    H114790   2.130   3.751   4.459
 4928TIP3    H214791   2.057   3.829   4.566
 4929TIP3   OH214792   4.769   1.523   0.912
 4929TIP3    H114793   4.751   1.587   0.844
 4929TIP3    H214794   4.862   1.503   0.902
 4930TIP3   OH214795   4.616   1.680   2.979
 4930TIP3    H114796   4.619   1.683   3.074
 4930TIP3    H214797   4.686   1.620   2.954
 4931TIP3   OH214798   3.788   1.989   0.386
 4931TIP3    H114799   3.737   2.043   0.445
 4931TIP3    H214800   3.854   1.947   0.441
 4932TIP3   OH214801   3.047   5.891   1.153
 4932TIP3    H114802   3.117   5.893   1.218
 4932TIP3    H214803   3.027   5.983   1.136
 4933TIP3   OH214804   2.540   1.552   1.274
 4933TIP3    H114805   2.493   1.559   1.357
 4933TIP3    H214806   2.628   1.585   1.294
 4934TIP3   OH214807   4.178   5.149   0.301
 4934TIP3    H114808   4.173   5.196   0.384
 4934TIP3    H214809   4.225   5.068   0.321
 4935TIP3   OH214810   4.512   4.026   0.287
 4935TIP3    H114811   4.469   3.946   0.257
 4935TIP3    H214812   4.526   4.077   0.207
 4936TIP3   OH214813   4.450   5.861   2.661
 4936TIP3    H114814   4.371   5.895   2.620
 4936TIP3    H214815   4.445   5.891   2.751
 4937TIP3   OH214816   2.133   5.833   2.517
 4937TIP3    H114817   2.038   5.822   2.516
 4937TIP3    H214818   2.164   5.765   2.577
 4938TIP3   OH214819   1.421   5.741   0.857
 4938TIP3    H114820   1.460   5.704   0.778
 4938TIP3    H214821   1.332   5.765   0.831
 4939TIP3   OH214822   2.272   1.711   4.214
 4939TIP3    H114823   2.177   1.711   4.206
 4939TIP3    H214824   2.303   1.762   4.140
 4940TIP3   OH214825   3.644   2.936   1.488
 4940TIP3    H114826   3.674   2.846   1.506
 4940TIP3    H214827   3.620   2.935   1.396
 4941TIP3   OH214828   1.978   0.554   3.471
 4941TIP3    H114829   1.973   0.473   3.521
 4941TIP3    H214830   1.943   0.531   3.385
 4942TIP3   OH214831   1.330   1.962   1.058
 4942TIP3    H114832   1.356   1.905   1.131
 4942TIP3    H214833   1.377   1.927   0.982
 4943TIP3   OH214834   3.326   0.810   0.568
 4943TIP3    H114835   3.368   0.783   0.486
 4943TIP3    H214836   3.313   0.904   0.558
 4944TIP3   OH214837   3.346   2.819   0.479
 4944TIP3    H114838   3.283   2.764   0.431
 4944TIP3    H214839   3.295   2.856   0.551
 4945TIP3   OH214840   2.302   3.521   3.804
 4945TIP3    H114841   2.368   3.451   3.804
 4945TIP3    H214842   2.235   3.490   3.744
 4946TIP3   OH214843   4.725   2.727   3.304
 4946TIP3    H114844   4.776   2.704   3.382
 4946TIP3    H214845   4.780   2.788   3.256
 4947TIP3   OH214846   1.365   4.825   1.420
 4947TIP3    H114847   1.354   4.731   1.408
 4947TIP3    H214848   1.447   4.846   1.376
 4948TIP3   OH214849   2.551   2.679   2.186
 4948TIP3    H114850   2.582   2.712   2.102
 4948TIP3    H214851   2.580   2.745   2.250
 4949TIP3   OH214852   2.825   4.728   5.073
 4949TIP3    H114853   2.816   4.720   5.168
 4949TIP3    H214854   2.886   4.802   5.062
 4950TIP3   OH214855   3.414   1.965   0.153
 4950TIP3    H114856   3.380   1.876   0.152
 4950TIP3    H214857   3.372   2.005   0.230
 4951TIP3   OH214858   1.650   3.278   3.351
 4951TIP3    H114859   1.667   3.208   3.413
 4951TIP3    H214860   1.654   3.358   3.404
 4952TIP3   OH214861   6.014   3.854   3.643
 4952TIP3    H114862   5.939   3.882   3.590
 4952TIP3    H214863   6.001   3.895   3.728
 4953TIP3   OH214864   5.796   0.317   3.173
 4953TIP3    H114865   5.877   0.327   3.222
 4953TIP3    H214866   5.806   0.377   3.099
 4954TIP3   OH214867   0.396   0.252   3.524
 4954TIP3    H114868   0.368   0.173   3.570
 4954TIP3    H214869   0.396   0.227   3.431
 4955TIP3   OH214870   3.596   4.553   0.882
 4955TIP3    H114871   3.555   4.508   0.956
 4955TIP3    H214872   3.596   4.645   0.907
 4956TIP3   OH214873   1.380   0.424   2.531
 4956TIP3    H114874   1.321   0.499   2.539
 4956TIP3    H214875   1.382   0.405   2.437
 4957TIP3   OH214876   0.427   3.073   2.989
 4957TIP3    H114877   0.383   3.155   2.966
 4957TIP3    H214878   0.458   3.039   2.905
 4958TIP3   OH214879   3.524   2.835   3.378
 4958TIP3    H114880   3.444   2.882   3.357
 4958TIP3    H214881   3.578   2.843   3.300
 4959TIP3   OH214882   3.741   1.313   4.703
 4959TIP3    H114883   3.831   1.324   4.734
 4959TIP3    H214884   3.688   1.319   4.782
 4960TIP3   OH214885   1.943   0.346   3.645
 4960TIP3    H114886   1.925   0.298   3.726
 4960TIP3    H214887   1.861   0.339   3.595
 4961TIP3   OH214888   1.229   0.859   4.366
 4961TIP3    H114889   1.302   0.865   4.426
 4961TIP3    H214890   1.187   0.775   4.386
 4962TIP3   OH214891   0.691   3.384   0.262
 4962TIP3    H114892   0.610   3.336   0.275
 4962TIP3    H214893   0.737   3.336   0.193
 4963TIP3   OH214894   3.483   2.065   0.781
 4963TIP3    H114895   3.459   1.974   0.798
 4963TIP3    H214896   3.428   2.116   0.841
 4964TIP3   OH214897   2.767   5.252   3.273
 4964TIP3    H114898   2.759   5.213   3.186
 4964TIP3    H214899   2.815   5.188   3.325
 4965TIP3   OH214900   1.794   4.742   1.101
 4965TIP3    H114901   1.731   4.793   1.049
 4965TIP3    H214902   1.825   4.804   1.167
 4966TIP3   OH214903   0.260   1.337   2.229
 4966TIP3    H114904   0.198   1.407   2.209
 4966TIP3    H214905   0.229   1.261   2.180
 4967TIP3   OH214906   0.185   3.194   4.194
 4967TIP3    H114907   0.172   3.105   4.225
 4967TIP3    H214908   0.100   3.219   4.157
 4968TIP3   OH214909   6.275   5.228   3.093
 4968TIP3    H114910   6.215   5.266   3.029
 4968TIP3    H214911   6.232   5.147   3.121
 4969TIP3   OH214912   0.973   2.705   1.197
 4969TIP3    H114913   0.890   2.668   1.225
 4969TIP3    H214914   0.997   2.655   1.119
 4970TIP3   OH214915   0.907   4.471   4.806
 4970TIP3    H114916   0.816   4.498   4.793
 4970TIP3    H214917   0.916   4.391   4.753
 4971TIP3   OH214918   4.015   4.378   3.344
 4971TIP3    H114919   3.930   4.367   3.302
 4971TIP3    H214920   4.078   4.382   3.271
 4972TIP3   OH214921   4.109   2.892   2.953
 4972TIP3    H114922   4.179   2.828   2.968
 4972TIP3    H214923   4.149   2.959   2.898
 4973TIP3   OH214924   4.456   0.885   3.577
 4973TIP3    H114925   4.425   0.968   3.540
 4973TIP3    H214926   4.482   0.906   3.666
 4974TIP3   OH214927   3.478   3.099   1.670
 4974TIP3    H114928   3.549   3.157   1.699
 4974TIP3    H214929   3.507   3.064   1.587
 4975TIP3   OH214930   3.805   5.870   4.628
 4975TIP3    H114931   3.721   5.835   4.660
 4975TIP3    H214932   3.789   5.890   4.536
 4976TIP3   OH214933   4.179   2.536   4.589
 4976TIP3    H114934   4.161   2.450   4.627
 4976TIP3    H214935   4.127   2.538   4.509
 4977TIP3   OH214936   1.967   5.791   2.758
 4977TIP3    H114937   1.945   5.721   2.696
 4977TIP3    H214938   1.912   5.865   2.732
 4978TIP3   OH214939   1.461   3.608   0.996
 4978TIP3    H114940   1.489   3.526   1.037
 4978TIP3    H214941   1.370   3.593   0.971
 4979TIP3   OH214942   5.375   4.382   1.324
 4979TIP3    H114943   5.372   4.357   1.416
 4979TIP3    H214944   5.321   4.316   1.280
 4980TIP3   OH214945   0.869   4.481   3.863
 4980TIP3    H114946   0.868   4.547   3.794
 4980TIP3    H214947   0.950   4.498   3.911
 4981TIP3   OH214948   1.027   2.882   3.487
 4981TIP3    H114949   1.002   2.791   3.472
 4981TIP3    H214950   0.946   2.925   3.513
 4982TIP3   OH214951   4.855   4.596   0.276
 4982TIP3    H114952   4.808   4.655   0.218
 4982TIP3    H214953   4.866   4.646   0.357
 4983TIP3   OH214954   0.981   1.655   3.527
 4983TIP3    H114955   0.978   1.745   3.494
 4983TIP3    H214956   0.953   1.661   3.618
 4984TIP3   OH214957   3.619   2.919   3.135
 4984TIP3    H114958   3.558   2.978   3.092
 4984TIP3    H214959   3.705   2.955   3.116
 4985TIP3   OH214960   3.592   4.927   0.592
 4985TIP3    H114961   3.521   4.964   0.644
 4985TIP3    H214962   3.658   4.901   0.657
 4986TIP3   OH214963   4.515   4.666   1.207
 4986TIP3    H114964   4.463   4.631   1.135
 4986TIP3    H214965   4.606   4.653   1.181
 4987TIP3   OH214966   2.492   4.416   2.622
 4987TIP3    H114967   2.493   4.505   2.586
 4987TIP3    H214968   2.524   4.361   2.550
 4988TIP3   OH214969   6.357   2.281   2.072
 4988TIP3    H114970   6.375   2.350   2.136
 4988TIP3    H214971   6.304   2.324   2.004
 4989TIP3   OH214972   1.338   4.726   2.415
 4989TIP3    H114973   1.408   4.697   2.357
 4989TIP3    H214974   1.346   4.670   2.492
 4990TIP3   OH214975   5.638   0.586   3.344
 4990TIP3    H114976   5.573   0.553   3.283
 4990TIP3    H214977   5.609   0.675   3.365
 4991TIP3   OH214978   2.623   2.942   1.730
 4991TIP3    H114979   2.616   2.946   1.635
 4991TIP3    H214980   2.601   3.030   1.760
 4992TIP3   OH214981   0.909   4.285   1.851
 4992TIP3    H114982   0.870   4.197   1.849
 4992TIP3    H214983   0.859   4.332   1.917
 4993TIP3   OH214984   1.565   2.783   4.483
 4993TIP3    H114985   1.612   2.700   4.475
 4993TIP3    H214986   1.473   2.758   4.485
 4994TIP3   OH214987   3.355   2.179   1.713
 4994TIP3    H114988   3.417   2.209   1.780
 4994TIP3    H214989   3.402   2.191   1.631
 4995TIP3   OH214990   2.876   5.622   3.851
 4995TIP3    H114991   2.871   5.536   3.810
 4995TIP3    H214992   2.795   5.629   3.902
 4996TIP3   OH214993   5.390   0.788   3.057
 4996TIP3    H114994   5.306   0.784   3.011
 4996TIP3    H214995   5.424   0.875   3.036
 4997TIP3   OH214996   3.937   0.940   0.212
 4997TIP3    H114997   3.951   0.881   0.286
 4997TIP3    H214998   4.024   0.966   0.185
 4998TIP3   OH214999   4.897   2.891   2.034
 4998TIP3    H115000   4.965   2.849   2.087
 4998TIP3    H215001   4.936   2.975   2.008
 4999TIP3   OH215002   5.661   1.724   0.117
 4999TIP3    H115003   5.665   1.655   0.050
 4999TIP3    H215004   5.711   1.796   0.079
 5000TIP3   OH215005   1.833   2.134   2.322
 5000TIP3    H115006   1.750   2.157   2.363
 5000TIP3    H215007   1.880   2.084   2.389
 5001TIP3   OH215008   1.097   2.646   3.988
 5001TIP3    H115009   1.067   2.623   3.900
 5001TIP3    H215010   1.129   2.563   4.024
 5002TIP3   OH215011   5.615   0.640   0.538
 5002TIP3    H115012   5.692   0.675   0.493
 5002TIP3    H215013   5.541   0.667   0.483
 5003TIP3   OH215014   4.513   5.489   4.075
 5003TIP3    H115015   4.524   5.566   4.130
 5003TIP3    H215016   4.524   5.521   3.986
 5004TIP3   OH215017   5.867   4.694   0.118
 5004TIP3    H115018   5.816   4.763   0.160
 5004TIP3    H215019   5.921   4.658   0.187
 5005TIP3   OH215020   5.949   1.968   1.459
 5005TIP3    H115021   5.998   2.002   1.384
 5005TIP3    H215022   5.955   1.873   1.450
 5006TIP3   OH215023   0.095   3.205   0.150
 5006TIP3    H115024   0.182   3.200   0.109
 5006TIP3    H215025   0.109   3.173   0.239
 5007TIP3   OH215026   1.058   3.489   3.077
 5007TIP3    H115027   1.085   3.561   3.020
 5007TIP3    H215028   1.081   3.518   3.165
 5008TIP3   OH215029   3.162   5.157   2.186
 5008TIP3    H115030   3.142   5.153   2.280
 5008TIP3    H215031   3.169   5.250   2.167
 5009TIP3   OH215032   1.838   0.894   2.906
 5009TIP3    H115033   1.753   0.913   2.868
 5009TIP3    H215034   1.842   0.947   2.985
 5010TIP3   OH215035   0.317   3.546   1.348
 5010TIP3    H115036   0.370   3.625   1.357
 5010TIP3    H215037   0.366   3.478   1.394
 5011TIP3   OH215038   0.888   2.983   0.919
 5011TIP3    H115039   0.891   3.010   0.828
 5011TIP3    H215040   0.803   2.940   0.928
 5012TIP3   OH215041   5.206   1.655   4.704
 5012TIP3    H115042   5.186   1.669   4.796
 5012TIP3    H215043   5.153   1.579   4.679
 5013TIP3   OH215044   5.917   5.587   4.733
 5013TIP3    H115045   5.992   5.562   4.786
 5013TIP3    H215046   5.905   5.514   4.672
 5014TIP3   OH215047   1.474   5.736   1.136
 5014TIP3    H115048   1.440   5.761   1.051
 5014TIP3    H215049   1.401   5.748   1.196
 5015TIP3   OH215050   1.217   1.181   0.207
 5015TIP3    H115051   1.123   1.163   0.217
 5015TIP3    H215052   1.222   1.275   0.190
 5016TIP3   OH215053   3.812   3.302   4.736
 5016TIP3    H115054   3.810   3.212   4.767
 5016TIP3    H215055   3.865   3.299   4.656
 5017TIP3   OH215056   3.730   5.137   1.661
 5017TIP3    H115057   3.762   5.061   1.711
 5017TIP3    H215058   3.711   5.203   1.727
 5018TIP3   OH215059   0.681   4.895   4.454
 5018TIP3    H115060   0.707   4.986   4.470
 5018TIP3    H215061   0.742   4.863   4.388
 5019TIP3   OH215062   5.115   5.616   4.067
 5019TIP3    H115063   5.057   5.604   4.142
 5019TIP3    H215064   5.170   5.537   4.067
 5020TIP3   OH215065   1.138   1.573   1.837
 5020TIP3    H115066   1.158   1.480   1.823
 5020TIP3    H215067   1.092   1.600   1.758
 5021TIP3   OH215068   2.604   2.048   0.429
 5021TIP3    H115069   2.538   2.020   0.492
 5021TIP3    H215070   2.572   2.132   0.397
 5022TIP3   OH215071   3.995   5.083   4.481
 5022TIP3    H115072   3.952   5.001   4.455
 5022TIP3    H215073   4.035   5.062   4.566
 5023TIP3   OH215074   2.407   0.449   2.011
 5023TIP3    H115075   2.367   0.499   2.083
 5023TIP3    H215076   2.333   0.410   1.965
 5024TIP3   OH215077   5.353   4.017   3.567
 5024TIP3    H115078   5.385   3.928   3.554
 5024TIP3    H215079   5.268   4.018   3.524
 5025TIP3   OH215080   0.900   1.838   5.022
 5025TIP3    H115081   0.814   1.797   5.032
 5025TIP3    H215082   0.906   1.899   5.096
 5026TIP3   OH215083   6.227   0.800   3.858
 5026TIP3    H115084   6.259   0.760   3.778
 5026TIP3    H215085   6.304   0.845   3.894
 5027TIP3   OH215086   3.806   0.063   1.875
 5027TIP3    H115087   3.835  -0.004   1.814
 5027TIP3    H215088   3.854   0.044   1.956
 5028TIP3   OH215089   2.691   1.040   0.258
 5028TIP3    H115090   2.630   1.016   0.187
 5028TIP3    H215091   2.775   1.006   0.229
 5029TIP3   OH215092   2.325   1.364   1.716
 5029TIP3    H115093   2.348   1.395   1.804
 5029TIP3    H215094   2.232   1.344   1.721
 5030TIP3   OH215095   1.813   5.027   3.330
 5030TIP3    H115096   1.814   5.029   3.425
 5030TIP3    H215097   1.761   4.949   3.308
 5031TIP3   OH215098   4.608   1.640   2.071
 5031TIP3    H115099   4.559   1.585   2.011
 5031TIP3    H215100   4.621   1.586   2.149
 5032TIP3   OH215101   0.595   5.688   2.515
 5032TIP3    H115102   0.499   5.683   2.521
 5032TIP3    H215103   0.623   5.597   2.505
 5033TIP3   OH215104   0.404   5.755   1.895
 5033TIP3    H115105   0.413   5.764   1.800
 5033TIP3    H215106   0.371   5.666   1.908
 5034TIP3   OH215107   1.277   4.133   0.460
 5034TIP3    H115108   1.320   4.194   0.399
 5034TIP3    H215109   1.184   4.150   0.449
 5035TIP3   OH215110   1.380   0.893   0.859
 5035TIP3    H115111   1.378   0.960   0.928
 5035TIP3    H215112   1.466   0.851   0.869
 5036TIP3   OH215113   2.138   2.654   4.603
 5036TIP3    H115114   2.185   2.599   4.541
 5036TIP3    H215115   2.136   2.602   4.684
 5037TIP3   OH215116   1.732   1.709   1.322
 5037TIP3    H115117   1.787   1.773   1.278
 5037TIP3    H215118   1.752   1.719   1.415
 5038TIP3   OH215119   3.195   2.038   1.246
 5038TIP3    H115120   3.211   1.953   1.204
 5038TIP3    H215121   3.117   2.023   1.300
 5039TIP3   OH215122   5.930   1.383   2.288
 5039TIP3    H115123   6.017   1.374   2.328
 5039TIP3    H215124   5.946   1.433   2.208
 5040TIP3   OH215125   1.824   5.052   4.916
 5040TIP3    H115126   1.757   5.063   4.849
 5040TIP3    H215127   1.795   5.107   4.989
 5041TIP3   OH215128   2.607   0.074   4.596
 5041TIP3    H115129   2.591   0.162   4.563
 5041TIP3    H215130   2.702   0.064   4.595
 5042TIP3   OH215131   5.753   3.171   4.985
 5042TIP3    H115132   5.679   3.198   5.040
 5042TIP3    H215133   5.726   3.088   4.947
 5043TIP3   OH215134   5.961   3.260   5.150
 5043TIP3    H115135   5.908   3.215   5.084
 5043TIP3    H215136   5.982   3.193   5.215
 5044TIP3   OH215137   4.873   5.500   3.233
 5044TIP3    H115138   4.948   5.515   3.290
 5044TIP3    H215139   4.875   5.406   3.215
 5045TIP3   OH215140   0.834   3.840   1.203
 5045TIP3    H115141   0.904   3.892   1.162
 5045TIP3    H215142   0.794   3.793   1.130
 5046TIP3   OH215143   6.036   0.049   0.674
 5046TIP3    H115144   5.973   0.120   0.670
 5046TIP3    H215145   6.114   0.088   0.712
 5047TIP3   OH215146   4.594   5.189   1.379
 5047TIP3    H115147   4.568   5.121   1.316
 5047TIP3    H215148   4.582   5.271   1.331
 5048TIP3   OH215149   0.316   0.190   2.322
 5048TIP3    H115150   0.410   0.171   2.321
 5048TIP3    H215151   0.275   0.116   2.278
 5049TIP3   OH215152   4.459   1.896   2.106
 5049TIP3    H115153   4.446   1.803   2.124
 5049TIP3    H215154   4.464   1.902   2.011
 5050TIP3   OH215155   0.160   0.320   1.932
 5050TIP3    H115156   0.238   0.322   1.877
 5050TIP3    H215157   0.108   0.395   1.905
 5051TIP3   OH215158   3.624   5.300   4.099
 5051TIP3    H115159   3.680   5.252   4.038
 5051TIP3    H215160   3.666   5.386   4.107
 5052TIP3   OH215161   2.698   3.234   4.383
 5052TIP3    H115162   2.646   3.309   4.353
 5052TIP3    H215163   2.789   3.263   4.373
 5053TIP3   OH215164   5.060   5.022   0.229
 5053TIP3    H115165   5.132   5.053   0.284
 5053TIP3    H215166   5.098   4.949   0.179
 5054TIP3   OH215167   2.102   2.745   0.890
 5054TIP3    H115168   2.129   2.779   0.805
 5054TIP3    H215169   2.137   2.656   0.892
 5055TIP3   OH215170   6.108   0.173   1.570
 5055TIP3    H115171   6.018   0.145   1.585
 5055TIP3    H215172   6.161   0.111   1.620
 5056TIP3   OH215173   4.467   3.551   4.876
 5056TIP3    H115174   4.529   3.573   4.806
 5056TIP3    H215175   4.484   3.616   4.944
 5057TIP3   OH215176   3.298   2.237   0.890
 5057TIP3    H115177   3.240   2.306   0.923
 5057TIP3    H215178   3.238   2.166   0.865
 5058TIP3   OH215179   0.679   5.684   3.862
 5058TIP3    H115180   0.677   5.744   3.937
 5058TIP3    H215181   0.698   5.598   3.900
 5059TIP3   OH215182   1.789   1.912   3.317
 5059TIP3    H115183   1.769   1.979   3.252
 5059TIP3    H215184   1.881   1.890   3.301
 5060TIP3   OH215185   1.591   5.448   4.527
 5060TIP3    H115186   1.646   5.392   4.583
 5060TIP3    H215187   1.515   5.467   4.582
 5061TIP3   OH215188   0.623   5.440   0.461
 5061TIP3    H115189   0.551   5.382   0.438
 5061TIP3    H215190   0.597   5.526   0.428
 5062TIP3   OH215191   5.225   5.326   4.112
 5062TIP3    H115192   5.289   5.362   4.051
 5062TIP3    H215193   5.247   5.233   4.118
 5063TIP3   OH215194   4.710   4.893   3.575
 5063TIP3    H115195   4.741   4.981   3.554
 5063TIP3    H215196   4.627   4.886   3.529
 5064TIP3   OH215197   0.097   2.444   4.146
 5064TIP3    H115198   0.025   2.404   4.098
 5064TIP3    H215199   0.158   2.373   4.163
 5065TIP3   OH215200   2.208   1.501   4.928
 5065TIP3    H115201   2.118   1.477   4.907
 5065TIP3    H215202   2.236   1.557   4.856
 5066TIP3   OH215203   1.280   0.843   2.566
 5066TIP3    H115204   1.229   0.841   2.647
 5066TIP3    H215205   1.353   0.784   2.582
 5067TIP3   OH215206   5.891   2.669   4.570
 5067TIP3    H115207   5.965   2.641   4.624
 5067TIP3    H215208   5.926   2.667   4.480
 5068TIP3   OH215209   1.985   4.998   2.133
 5068TIP3    H115210   2.013   4.938   2.063
 5068TIP3    H215211   1.978   5.083   2.089
 5069TIP3   OH215212   1.232   0.557   1.918
 5069TIP3    H115213   1.268   0.500   1.987
 5069TIP3    H215214   1.282   0.638   1.926
 5070TIP3   OH215215   2.527   0.192   2.768
 5070TIP3    H115216   2.489   0.104   2.769
 5070TIP3    H215217   2.620   0.178   2.749
 5071TIP3   OH215218   5.444   0.333   5.044
 5071TIP3    H115219   5.441   0.422   5.009
 5071TIP3    H215220   5.361   0.322   5.090
 5072TIP3   OH215221   2.865   2.785   1.759
 5072TIP3    H115222   2.820   2.866   1.735
 5072TIP3    H215223   2.842   2.724   1.689
 5073TIP3   OH215224   1.462   1.914   4.873
 5073TIP3    H115225   1.493   1.840   4.819
 5073TIP3    H215226   1.397   1.875   4.932
 5074TIP3   OH215227   0.788   0.595   0.061
 5074TIP3    H115228   0.850   0.526   0.037
 5074TIP3    H215229   0.843   0.672   0.074
 5075TIP3   OH215230   2.126   2.235   2.290
 5075TIP3    H115231   2.034   2.238   2.316
 5075TIP3    H215232   2.142   2.144   2.267
 5076TIP3   OH215233   5.472   1.144   3.451
 5076TIP3    H115234   5.536   1.158   3.521
 5076TIP3    H215235   5.393   1.114   3.496
 5077TIP3   OH215236   1.231   3.165   3.018
 5077TIP3    H115237   1.311   3.207   3.049
 5077TIP3    H215238   1.203   3.220   2.945
 5078TIP3   OH215239   4.067   5.657   1.628
 5078TIP3    H115240   3.980   5.641   1.593
 5078TIP3    H215241   4.054   5.722   1.697
 5079TIP3   OH215242   3.073   0.561   3.787
 5079TIP3    H115243   3.157   0.526   3.816
 5079TIP3    H215244   3.051   0.628   3.852
 5080TIP3   OH215245   4.149   4.170   1.596
 5080TIP3    H115246   4.237   4.133   1.599
 5080TIP3    H215247   4.147   4.221   1.515
 5081TIP3   OH215248   0.209   1.663   0.903
 5081TIP3    H115249   0.192   1.577   0.864
 5081TIP3    H215250   0.265   1.707   0.840
 5082TIP3   OH215251   2.441   1.389   3.758
 5082TIP3    H115252   2.470   1.480   3.767
 5082TIP3    H215253   2.422   1.378   3.665
 5083TIP3   OH215254   2.323   5.341   0.640
 5083TIP3    H115255   2.270   5.338   0.561
 5083TIP3    H215256   2.380   5.416   0.627
 5084TIP3   OH215257   1.753   2.936   3.072
 5084TIP3    H115258   1.777   2.972   3.158
 5084TIP3    H215259   1.833   2.942   3.020
 5085TIP3   OH215260   3.467   1.793   0.817
 5085TIP3    H115261   3.481   1.725   0.751
 5085TIP3    H215262   3.395   1.760   0.872
 5086TIP3   OH215263   4.895   1.182   2.677
 5086TIP3    H115264   4.861   1.100   2.712
 5086TIP3    H215265   4.977   1.197   2.724
 5087TIP3   OH215266   2.401   0.896   2.007
 5087TIP3    H115267   2.435   0.979   2.041
 5087TIP3    H215268   2.390   0.912   1.913
 5088TIP3   OH215269   3.107   0.601   4.438
 5088TIP3    H115270   3.167   0.551   4.383
 5088TIP3    H215271   3.162   0.641   4.504
 5089TIP3   OH215272   2.630   3.014   2.470
 5089TIP3    H115273   2.665   3.103   2.474
 5089TIP3    H215274   2.538   3.026   2.446
 5090TIP3   OH215275   5.872   1.042   3.627
 5090TIP3    H115276   5.940   1.077   3.568
 5090TIP3    H215277   5.841   0.963   3.583
 5091TIP3   OH215278   4.884   3.421   2.391
 5091TIP3    H115279   4.953   3.485   2.377
 5091TIP3    H215280   4.912   3.371   2.468
 5092TIP3   OH215281   5.899   3.879   3.284
 5092TIP3    H115282   5.886   3.874   3.190
 5092TIP3    H215283   5.941   3.797   3.307
 5093TIP3   OH215284   1.419   0.505   1.189
 5093TIP3    H115285   1.425   0.416   1.153
 5093TIP3    H215286   1.502   0.546   1.166
 5094TIP3   OH215287   5.913   0.102   3.036
 5094TIP3    H115288   5.889   0.032   3.097
 5094TIP3    H215289   5.861   0.177   3.063
 5095TIP3   OH215290   5.371   3.339   1.445
 5095TIP3    H115291   5.353   3.383   1.528
 5095TIP3    H215292   5.325   3.256   1.451
 5096TIP3   OH215293   5.111   4.179   1.811
 5096TIP3    H115294   5.060   4.175   1.892
 5096TIP3    H215295   5.090   4.098   1.765
 5097TIP3   OH215296   0.353   5.545   2.296
 5097TIP3    H115297   0.275   5.554   2.241
 5097TIP3    H215298   0.333   5.470   2.353
 5098TIP3   OH215299   4.285   4.962   0.911
 5098TIP3    H115300   4.349   5.027   0.940
 5098TIP3    H215301   4.204   4.986   0.957
 5099TIP3   OH215302   3.749   4.890   0.045
 5099TIP3    H115303   3.825   4.942   0.073
 5099TIP3    H215304   3.784   4.802   0.031
 5100TIP3   OH215305   4.464   5.082   0.141
 5100TIP3    H115306   4.405   5.021   0.185
 5100TIP3    H215307   4.509   5.028   0.076
 5101TIP3   OH215308   3.960   3.224   3.483
 5101TIP3    H115309   3.961   3.239   3.389
 5101TIP3    H215310   3.875   3.185   3.500
 5102TIP3   OH215311   0.570   0.629   3.759
 5102TIP3    H115312   0.587   0.614   3.666
 5102TIP3    H215313   0.625   0.704   3.782
 5103TIP3   OH215314   2.810   4.397   1.360
 5103TIP3    H115315   2.792   4.491   1.356
 5103TIP3    H215316   2.775   4.370   1.445
 5104TIP3   OH215317   3.878   1.188   0.734
 5104TIP3    H115318   3.833   1.241   0.800
 5104TIP3    H215319   3.808   1.162   0.673
 5105TIP3   OH215320   3.507   2.935   2.611
 5105TIP3    H115321   3.508   3.024   2.576
 5105TIP3    H215322   3.458   2.884   2.546
 5106TIP3   OH215323   5.346   2.266   1.834
 5106TIP3    H115324   5.335   2.312   1.917
 5106TIP3    H215325   5.266   2.285   1.785
 5107TIP3   OH215326   1.607   4.705   3.811
 5107TIP3    H115327   1.628   4.612   3.817
 5107TIP3    H215328   1.611   4.736   3.902
 5108TIP3   OH215329   3.392   3.078   5.028
 5108TIP3    H115330   3.404   3.172   5.019
 5108TIP3    H215331   3.440   3.040   4.955
 5109TIP3   OH215332   5.806   4.248   3.602
 5109TIP3    H115333   5.725   4.255   3.653
 5109TIP3    H215334   5.813   4.155   3.580
 5110TIP3   OH215335   2.719   0.094   2.570
 5110TIP3    H115336   2.683   0.175   2.535
 5110TIP3    H215337   2.753   0.048   2.493
 5111TIP3   OH215338   2.499   2.288   4.195
 5111TIP3    H115339   2.560   2.257   4.262
 5111TIP3    H215340   2.525   2.379   4.180
 5112TIP3   OH215341   4.211   2.287   0.730
 5112TIP3    H115342   4.145   2.232   0.688
 5112TIP3    H215343   4.253   2.229   0.794
 5113TIP3   OH215344   3.212   2.543   0.350
 5113TIP3    H115345   3.143   2.502   0.402
 5113TIP3    H215346   3.293   2.506   0.384
 5114TIP3   OH215347   5.080   3.896   3.954
 5114TIP3    H115348   5.138   3.828   3.921
 5114TIP3    H215349   4.994   3.853   3.961
 5115TIP3   OH215350   3.312   0.810   1.588
 5115TIP3    H115351   3.257   0.748   1.635
 5115TIP3    H215352   3.354   0.862   1.657
 5116TIP3   OH215353   3.310   5.104   4.403
 5116TIP3    H115354   3.401   5.127   4.386
 5116TIP3    H215355   3.287   5.157   4.480
 5117TIP3   OH215356   6.071   5.322   0.024
 5117TIP3    H115357   6.014   5.293  -0.047
 5117TIP3    H215358   6.012   5.362   0.087
 5118TIP3   OH215359   5.737   4.829   4.950
 5118TIP3    H115360   5.807   4.834   5.016
 5118TIP3    H215361   5.662   4.872   4.991
 5119TIP3   OH215362   6.259   0.545   0.299
 5119TIP3    H115363   6.191   0.605   0.271
 5119TIP3    H215364   6.214   0.483   0.357
 5120TIP3   OH215365   5.466   5.714   5.074
 5120TIP3    H115366   5.388   5.664   5.050
 5120TIP3    H215367   5.523   5.649   5.116
 5121TIP3   OH215368   5.321   3.407   5.182
 5121TIP3    H115369   5.333   3.319   5.146
 5121TIP3    H215370   5.352   3.465   5.113
 5122TIP3   OH215371   4.896   4.164   0.167
 5122TIP3    H115372   4.844   4.234   0.208
 5122TIP3    H215373   4.839   4.088   0.169
 5123TIP3   OH215374   5.828   4.954   3.998
 5123TIP3    H115375   5.826   5.030   4.055
 5123TIP3    H215376   5.903   4.903   4.028
 5124TIP3   OH215377   2.653   3.493   3.507
 5124TIP3    H115378   2.600   3.429   3.555
 5124TIP3    H215379   2.668   3.564   3.570
 5125TIP3   OH215380   2.227   1.424   0.269
 5125TIP3    H115381   2.159   1.426   0.200
 5125TIP3    H215382   2.305   1.458   0.226
 5126TIP3   OH215383   5.503   1.389   5.050
 5126TIP3    H115384   5.575   1.452   5.060
 5126TIP3    H215385   5.436   1.420   5.110
 5127TIP3   OH215386   6.135   3.988   0.277
 5127TIP3    H115387   6.183   3.999   0.360
 5127TIP3    H215388   6.043   3.996   0.302
 5128TIP3   OH215389   1.942   4.242   3.388
 5128TIP3    H115390   2.012   4.193   3.346
 5128TIP3    H215391   1.886   4.176   3.428
 5129TIP3   OH215392   0.240   5.888   1.463
 5129TIP3    H115393   0.201   5.847   1.540
 5129TIP3    H215394   0.327   5.917   1.493
 5130TIP3   OH215395   0.617   3.757   0.741
 5130TIP3    H115396   0.549   3.731   0.803
 5130TIP3    H215397   0.620   3.685   0.678
 5131TIP3   OH215398   3.239   0.592   3.333
 5131TIP3    H115399   3.152   0.556   3.317
 5131TIP3    H215400   3.267   0.552   3.415
 5132TIP3   OH215401   2.402   4.667   4.778
 5132TIP3    H115402   2.484   4.702   4.743
 5132TIP3    H215403   2.359   4.742   4.819
 5133TIP3   OH215404   0.520   2.468   3.647
 5133TIP3    H115405   0.559   2.432   3.726
 5133TIP3    H215406   0.476   2.548   3.676
 5134TIP3   OH215407   0.739   4.946   2.925
 5134TIP3    H115408   0.785   4.863   2.921
 5134TIP3    H215409   0.808   5.011   2.936
 5135TIP3   OH215410   3.513   3.721   0.154
 5135TIP3    H115411   3.602   3.720   0.118
 5135TIP3    H215412   3.526   3.714   0.248
 5136TIP3   OH215413   6.054   1.156  -0.001
 5136TIP3    H115414   6.081   1.124   0.085
 5136TIP3    H215415   5.999   1.232   0.018
 5137TIP3   OH215416   2.796   4.424   0.828
 5137TIP3    H115417   2.801   4.501   0.771
 5137TIP3    H215418   2.760   4.458   0.910
 5138TIP3   OH215419   3.007   4.418   4.276
 5138TIP3    H115420   3.090   4.371   4.282
 5138TIP3    H215421   2.965   4.402   4.360
 5139TIP3   OH215422   1.261   1.484   4.601
 5139TIP3    H115423   1.168   1.473   4.581
 5139TIP3    H215424   1.306   1.443   4.527
 5140TIP3   OH215425   1.698   0.942   1.234
 5140TIP3    H115426   1.789   0.942   1.205
 5140TIP3    H215427   1.688   1.021   1.286
 5141TIP3   OH215428   3.775   5.857   2.866
 5141TIP3    H115429   3.838   5.926   2.891
 5141TIP3    H215430   3.729   5.837   2.948
 5142TIP3   OH215431   4.278   0.792   1.386
 5142TIP3    H115432   4.309   0.818   1.299
 5142TIP3    H215433   4.212   0.857   1.409
 5143TIP3   OH215434   1.147   3.947   4.257
 5143TIP3    H115435   1.104   4.009   4.316
 5143TIP3    H215436   1.240   3.968   4.263
 5144TIP3   OH215437   1.006   1.022   1.503
 5144TIP3    H115438   0.949   1.082   1.455
 5144TIP3    H215439   0.948   0.979   1.566
 5145TIP3   OH215440   6.099   0.698   0.591
 5145TIP3    H115441   6.190   0.687   0.621
 5145TIP3    H215442   6.050   0.713   0.672
 5146TIP3   OH215443   3.935   2.191   2.310
 5146TIP3    H115444   3.954   2.272   2.263
 5146TIP3    H215445   3.884   2.219   2.386
 5147TIP3   OH215446   1.562   5.662   4.979
 5147TIP3    H115447   1.555   5.666   4.883
 5147TIP3    H215448   1.485   5.710   5.009
 5148TIP3   OH215449   5.667   1.671   2.002
 5148TIP3    H115450   5.752   1.697   1.968
 5148TIP3    H215451   5.661   1.577   1.983
 5149TIP3   OH215452   0.058   4.001   4.157
 5149TIP3    H115453   0.004   4.039   4.226
 5149TIP3    H215454  -0.004   3.981   4.087
 5150TIP3   OH215455   4.466   0.641   2.828
 5150TIP3    H115456   4.417   0.717   2.797
 5150TIP3    H215457   4.401   0.588   2.874
 5151TIP3   OH215458   5.861   4.447   2.510
 5151TIP3    H115459   5.779   4.405   2.484
 5151TIP3    H215460   5.834   4.520   2.565
 5152TIP3   OH215461   1.798   4.366   3.596
 5152TIP3    H115462   1.810   4.370   3.501
 5152TIP3    H215463   1.782   4.274   3.615
 5153TIP3   OH215464   2.155   1.662   2.872
 5153TIP3    H115465   2.119   1.575   2.887
 5153TIP3    H215466   2.249   1.647   2.858
 5154TIP3   OH215467   0.302   4.377   4.225
 5154TIP3    H115468   0.326   4.451   4.280
 5154TIP3    H215469   0.314   4.300   4.280
 5155TIP3   OH215470   5.189   0.648   1.030
 5155TIP3    H115471   5.118   0.586   1.045
 5155TIP3    H215472   5.252   0.600   0.976
 5156TIP3   OH215473   0.574   1.095   4.379
 5156TIP3    H115474   0.622   1.013   4.374
 5156TIP3    H215475   0.641   1.163   4.374
 5157TIP3   OH215476   4.987   5.121   3.103
 5157TIP3    H115477   4.924   5.173   3.053
 5157TIP3    H215478   5.038   5.185   3.152
 5158TIP3   OH215479   5.398   4.155   4.536
 5158TIP3    H115480   5.377   4.239   4.496
 5158TIP3    H215481   5.339   4.093   4.494
 5159TIP3   OH215482   1.740   1.875   0.869
 5159TIP3    H115483   1.766   1.877   0.961
 5159TIP3    H215484   1.796   1.940   0.826
 5160TIP3   OH215485   4.685   1.202   3.472
 5160TIP3    H115486   4.665   1.263   3.542
 5160TIP3    H215487   4.705   1.120   3.516
 5161TIP3   OH215488   5.979   5.191   0.854
 5161TIP3    H115489   6.002   5.253   0.923
 5161TIP3    H215490   5.898   5.151   0.883
 5162TIP3   OH215491   5.067   0.450   1.195
 5162TIP3    H115492   5.009   0.514   1.236
 5162TIP3    H215493   5.154   0.472   1.227
 5163TIP3   OH215494   5.495   2.292   0.440
 5163TIP3    H115495   5.402   2.279   0.460
 5163TIP3    H215496   5.532   2.328   0.521
 5164TIP3   OH215497   3.655   5.437   2.573
 5164TIP3    H115498   3.563   5.464   2.570
 5164TIP3    H215499   3.704   5.516   2.551
 5165TIP3   OH215500   3.659   3.326   1.744
 5165TIP3    H115501   3.630   3.416   1.761
 5165TIP3    H215502   3.753   3.328   1.761
 5166TIP3   OH215503   4.764   1.855   3.516
 5166TIP3    H115504   4.690   1.893   3.563
 5166TIP3    H215505   4.821   1.820   3.585
 5167TIP3   OH215506   3.468   4.539   2.859
 5167TIP3    H115507   3.455   4.594   2.936
 5167TIP3    H215508   3.382   4.535   2.818
 5168TIP3   OH215509   5.088   1.507   2.254
 5168TIP3    H115510   5.129   1.439   2.201
 5168TIP3    H215511   5.049   1.459   2.328
 5169TIP3   OH215512   1.501   3.466   0.017
 5169TIP3    H115513   1.487   3.373   0.034
 5169TIP3    H215514   1.596   3.477   0.020
 5170TIP3   OH215515   4.761   1.379   2.963
 5170TIP3    H115516   4.717   1.295   2.977
 5170TIP3    H215517   4.737   1.404   2.874
 5171TIP3   OH215518   3.908   2.729   3.714
 5171TIP3    H115519   3.818   2.758   3.700
 5171TIP3    H215520   3.962   2.802   3.686
 5172TIP3   OH215521   5.249   5.405   2.722
 5172TIP3    H115522   5.165   5.446   2.699
 5172TIP3    H215523   5.299   5.475   2.762
 5173TIP3   OH215524   2.938   3.782   4.411
 5173TIP3    H115525   2.976   3.806   4.495
 5173TIP3    H215526   2.880   3.854   4.390
 5174TIP3   OH215527   3.412   1.559   5.069
 5174TIP3    H115528   3.420   1.650   5.097
 5174TIP3    H215529   3.385   1.564   4.977
 5175TIP3   OH215530   2.008   0.592   0.860
 5175TIP3    H115531   2.053   0.593   0.776
 5175TIP3    H215532   1.918   0.616   0.838
 5176TIP3   OH215533   6.022   4.200   2.059
 5176TIP3    H115534   6.035   4.282   2.011
 5176TIP3    H215535   5.927   4.193   2.068
 5177TIP3   OH215536   3.741   1.553   4.521
 5177TIP3    H115537   3.813   1.503   4.559
 5177TIP3    H215538   3.781   1.635   4.491
 5178TIP3   OH215539   5.509   0.939   0.622
 5178TIP3    H115540   5.581   0.960   0.562
 5178TIP3    H215541   5.474   1.025   0.647
 5179TIP3   OH215542   0.676   4.265   4.174
 5179TIP3    H115543   0.711   4.186   4.133
 5179TIP3    H215544   0.672   4.243   4.267
 5180TIP3   OH215545   0.691   4.900   2.650
 5180TIP3    H115546   0.642   4.819   2.653
 5180TIP3    H215547   0.665   4.947   2.729
 5181TIP3   OH215548   6.050   0.373   0.467
 5181TIP3    H115549   5.993   0.297   0.479
 5181TIP3    H215550   6.032   0.429   0.543
 5182TIP3   OH215551   3.257   4.946   3.037
 5182TIP3    H115552   3.207   4.994   3.103
 5182TIP3    H215553   3.207   4.956   2.956
 5183TIP3   OH215554   5.481   5.392   4.056
 5183TIP3    H115555   5.557   5.402   4.112
 5183TIP3    H215556   5.476   5.474   4.007
 5184TIP3   OH215557   4.849   3.071   1.165
 5184TIP3    H115558   4.838   2.987   1.122
 5184TIP3    H215559   4.828   3.136   1.097
 5185TIP3   OH215560   4.988   3.722   0.550
 5185TIP3    H115561   5.020   3.750   0.636
 5185TIP3    H215562   5.025   3.785   0.489
 5186TIP3   OH215563   4.939   5.929   4.024
 5186TIP3    H115564   4.986   5.956   4.104
 5186TIP3    H215565   4.956   5.835   4.017
 5187TIP3   OH215566   3.903   4.940   2.290
 5187TIP3    H115567   3.863   5.003   2.230
 5187TIP3    H215568   3.977   4.904   2.240
 5188TIP3   OH215569   1.423   2.472   2.579
 5188TIP3    H115570   1.484   2.489   2.651
 5188TIP3    H215571   1.397   2.380   2.592
 5189TIP3   OH215572   4.706   4.792   3.228
 5189TIP3    H115573   4.726   4.875   3.185
 5189TIP3    H215574   4.782   4.737   3.211
 5190TIP3   OH215575   0.001   5.369   3.562
 5190TIP3    H115576  -0.055   5.377   3.486
 5190TIP3    H215577   0.083   5.332   3.528
 5191TIP3   OH215578   3.194   4.621   2.860
 5191TIP3    H115579   3.140   4.609   2.939
 5191TIP3    H215580   3.135   4.663   2.797
 5192TIP3   OH215581   2.681   5.665   4.049
 5192TIP3    H115582   2.615   5.719   4.006
 5192TIP3    H215583   2.718   5.722   4.117
 5193TIP3   OH215584   5.941   4.448   2.911
 5193TIP3    H115585   5.907   4.377   2.856
 5193TIP3    H215586   5.923   4.420   3.000
 5194TIP3   OH215587   0.153   2.106   4.408
 5194TIP3    H115588   0.079   2.162   4.433
 5194TIP3    H215589   0.117   2.047   4.342
 5195TIP3   OH215590   2.381   5.389   1.492
 5195TIP3    H115591   2.415   5.448   1.425
 5195TIP3    H215592   2.370   5.443   1.570
 5196TIP3   OH215593   6.291   4.306   1.506
 5196TIP3    H115594   6.270   4.373   1.441
 5196TIP3    H215595   6.248   4.336   1.586
 5197TIP3   OH215596   2.001   0.035   1.272
 5197TIP3    H115597   1.946  -0.020   1.329
 5197TIP3    H215598   1.951   0.116   1.262
 5198TIP3   OH215599   1.522   1.754   0.336
 5198TIP3    H115600   1.443   1.808   0.344
 5198TIP3    H215601   1.496   1.668   0.367
 5199TIP3   OH215602   0.465   1.608   1.178
 5199TIP3    H115603   0.548   1.560   1.182
 5199TIP3    H215604   0.483   1.682   1.119
 5200TIP3   OH215605   6.110   2.207   1.601
 5200TIP3    H115606   6.019   2.215   1.630
 5200TIP3    H215607   6.103   2.197   1.506
 5201TIP3   OH215608   2.896   2.087   0.995
 5201TIP3    H115609   2.819   2.034   0.974
 5201TIP3    H215610   2.951   2.030   1.048
 5202TIP3   OH215611   5.571   0.223   3.316
 5202TIP3    H115612   5.644   0.269   3.275
 5202TIP3    H215613   5.563   0.264   3.403
 5203TIP3   OH215614   4.902   5.989   1.369
 5203TIP3    H115615   4.839   6.054   1.337
 5203TIP3    H215616   4.959   5.972   1.294
 5204TIP3   OH215617   2.786   0.819   0.992
 5204TIP3    H115618   2.879   0.806   1.011
 5204TIP3    H215619   2.783   0.829   0.897
 5205TIP3   OH215620   5.407   0.030   5.126
 5205TIP3    H115621   5.460  -0.009   5.195
 5205TIP3    H215622   5.320   0.038   5.165
 5206TIP3   OH215623   5.886   2.296   2.189
 5206TIP3    H115624   5.944   2.372   2.183
 5206TIP3    H215625   5.945   2.223   2.208
 5207TIP3   OH215626   0.903   0.559   2.273
 5207TIP3    H115627   0.866   0.471   2.278
 5207TIP3    H215628   0.952   0.560   2.191
 5208TIP3   OH215629   4.663   4.889   0.640
 5208TIP3    H115630   4.672   4.965   0.698
 5208TIP3    H215631   4.726   4.825   0.674
 5209TIP3   OH215632   2.981   0.308   0.465
 5209TIP3    H115633   2.921   0.289   0.537
 5209TIP3    H215634   3.055   0.353   0.506
 5210TIP3   OH215635   4.688   0.015   4.336
 5210TIP3    H115636   4.723   0.104   4.333
 5210TIP3    H215637   4.593   0.026   4.330
 5211TIP3   OH215638   1.326   5.007   1.806
 5211TIP3    H115639   1.272   5.042   1.877
 5211TIP3    H215640   1.295   4.917   1.795
 5212TIP3   OH215641   2.743   5.019   1.480
 5212TIP3    H115642   2.831   4.983   1.471
 5212TIP3    H215643   2.756   5.114   1.487
 5213TIP3   OH215644   4.354   0.317   2.532
 5213TIP3    H115645   4.440   0.291   2.497
 5213TIP3    H215646   4.316   0.371   2.463
 5214TIP3   OH215647   1.436   0.912   3.704
 5214TIP3    H115648   1.449   0.899   3.798
 5214TIP3    H215649   1.519   0.886   3.665
 5215TIP3   OH215650   2.653  -0.027   5.134
 5215TIP3    H115651   2.678   0.041   5.196
 5215TIP3    H215652   2.670   0.011   5.048
 5216TIP3   OH215653   1.784   0.365   0.941
 5216TIP3    H115654   1.851   0.359   0.872
 5216TIP3    H215655   1.702   0.379   0.893
 5217TIP3   OH215656   0.579   5.680   3.600
 5217TIP3    H115657   0.559   5.676   3.693
 5217TIP3    H215658   0.537   5.761   3.570
 5218TIP3   OH215659   4.026   0.249   1.721
 5218TIP3    H115660   4.071   0.187   1.778
 5218TIP3    H215661   3.941   0.209   1.704
 5219TIP3   OH215662   3.637   0.407   3.822
 5219TIP3    H115663   3.660   0.321   3.786
 5219TIP3    H215664   3.681   0.470   3.765
 5220TIP3   OH215665   0.862   5.781   5.012
 5220TIP3    H115666   0.870   5.850   5.078
 5220TIP3    H215667   0.779   5.799   4.968
 5221TIP3   OH215668   3.261   3.373   1.449
 5221TIP3    H115669   3.167   3.387   1.433
 5221TIP3    H215670   3.263   3.308   1.519
 5222TIP3   OH215671   1.517   4.092   0.624
 5222TIP3    H115672   1.425   4.112   0.610
 5222TIP3    H215673   1.521   3.996   0.632
 5223TIP3   OH215674   4.921   3.380   4.363
 5223TIP3    H115675   4.890   3.308   4.308
 5223TIP3    H215676   5.001   3.347   4.403
 5224TIP3   OH215677   4.282   3.790   2.831
 5224TIP3    H115678   4.253   3.827   2.748
 5224TIP3    H215679   4.216   3.819   2.894
 5225TIP3   OH215680   4.225   3.185   3.251
 5225TIP3    H115681   4.290   3.248   3.280
 5225TIP3    H215682   4.275   3.113   3.213
 5226TIP3   OH215683   4.048   0.702   1.804
 5226TIP3    H115684   3.989   0.708   1.729
 5226TIP3    H215685   4.048   0.609   1.827
 5227TIP3   OH215686   4.816   3.279   0.755
 5227TIP3    H115687   4.872   3.343   0.710
 5227TIP3    H215688   4.732   3.285   0.710
 5228TIP3   OH215689   0.290   0.560   2.412
 5228TIP3    H115690   0.274   0.507   2.334
 5228TIP3    H215691   0.364   0.616   2.389
 5229TIP3   OH215692   5.278   1.835   0.021
 5229TIP3    H115693   5.253   1.926   0.034
 5229TIP3    H215694   5.303   1.830  -0.071
 5230TIP3   OH215695   0.088   1.871   4.500
 5230TIP3    H115696   0.077   1.820   4.420
 5230TIP3    H215697   0.148   1.941   4.476
 5231TIP3   OH215698   4.795   3.238   1.389
 5231TIP3    H115699   4.815   3.170   1.324
 5231TIP3    H215700   4.805   3.320   1.342
 5232TIP3   OH215701   4.222   1.638   4.487
 5232TIP3    H115702   4.274   1.691   4.547
 5232TIP3    H215703   4.286   1.594   4.431
 5233TIP3   OH215704   3.868   4.438   2.552
 5233TIP3    H115705   3.779   4.459   2.579
 5233TIP3    H215706   3.880   4.347   2.576
 5234TIP3   OH215707   5.871   5.128   4.241
 5234TIP3    H115708   5.953   5.148   4.286
 5234TIP3    H215709   5.804   5.147   4.307
 5235TIP3   OH215710   0.146   3.788   0.359
 5235TIP3    H115711   0.226   3.839   0.350
 5235TIP3    H215712   0.168   3.720   0.422
 5236TIP3   OH215713   1.545   3.265   1.706
 5236TIP3    H115714   1.473   3.322   1.732
 5236TIP3    H215715   1.511   3.176   1.719
 5237TIP3   OH215716   1.111   3.774   0.165
 5237TIP3    H115717   1.180   3.839   0.178
 5237TIP3    H215718   1.088   3.781   0.073
 5238TIP3   OH215719   3.376   1.319   4.804
 5238TIP3    H115720   3.325   1.385   4.758
 5238TIP3    H215721   3.445   1.368   4.849
 5239TIP3   OH215722   3.652   3.332   2.086
 5239TIP3    H115723   3.733   3.280   2.084
 5239TIP3    H215724   3.587   3.277   2.043
 5240TIP3   OH215725   5.416   3.508   3.349
 5240TIP3    H115726   5.467   3.445   3.401
 5240TIP3    H215727   5.375   3.455   3.281
 5241TIP3   OH215728   3.031   4.799   4.047
 5241TIP3    H115729   3.077   4.859   4.106
 5241TIP3    H215730   3.009   4.852   3.971
 5242TIP3   OH215731   0.878   1.898   0.436
 5242TIP3    H115732   0.886   1.925   0.344
 5242TIP3    H215733   0.965   1.907   0.472
 5243TIP3   OH215734   3.043   4.242   1.305
 5243TIP3    H115735   3.099   4.316   1.328
 5243TIP3    H215736   2.954   4.275   1.316
 5244TIP3   OH215737   5.639   0.767   0.817
 5244TIP3    H115738   5.594   0.811   0.745
 5244TIP3    H215739   5.622   0.674   0.804
 5245TIP3   OH215740   4.259   1.896   0.947
 5245TIP3    H115741   4.312   1.817   0.935
 5245TIP3    H215742   4.261   1.911   1.041
 5246TIP3   OH215743   1.832   5.010   4.517
 5246TIP3    H115744   1.861   4.962   4.594
 5246TIP3    H215745   1.831   5.101   4.544
 5247TIP3   OH215746   6.055  -0.012   4.943
 5247TIP3    H115747   6.064   0.026   4.855
 5247TIP3    H215748   5.994   0.046   4.988
 5248TIP3   OH215749   2.184   1.057   1.282
 5248TIP3    H115750   2.136   1.071   1.364
 5248TIP3    H215751   2.249   0.990   1.304
 5249TIP3   OH215752   5.621   5.751   4.192
 5249TIP3    H115753   5.642   5.661   4.216
 5249TIP3    H215754   5.544   5.772   4.244
 5250TIP3   OH215755   2.071   4.623   2.328
 5250TIP3    H115756   2.090   4.714   2.351
 5250TIP3    H215757   2.091   4.573   2.407
 5251TIP3   OH215758   5.562   2.342   3.909
 5251TIP3    H115759   5.584   2.249   3.909
 5251TIP3    H215760   5.519   2.356   3.824
 5252TIP3   OH215761   5.552   1.611   3.996
 5252TIP3    H115762   5.597   1.696   4.001
 5252TIP3    H215763   5.466   1.631   3.958
 5253TIP3   OH215764   1.457   1.783   1.215
 5253TIP3    H115765   1.471   1.852   1.281
 5253TIP3    H215766   1.526   1.720   1.232
 5254TIP3   OH215767   5.542   4.067   0.337
 5254TIP3    H115768   5.611   4.062   0.403
 5254TIP3    H215769   5.524   3.976   0.313
 5255TIP3   OH215770   4.106   4.651   4.130
 5255TIP3    H115771   4.025   4.701   4.131
 5255TIP3    H215772   4.125   4.633   4.222
 5256TIP3   OH215773   1.626   4.138   2.537
 5256TIP3    H115774   1.682   4.142   2.615
 5256TIP3    H215775   1.579   4.055   2.546
 5257TIP3   OH215776   0.958   0.070   0.294
 5257TIP3    H115777   0.904  -0.006   0.269
 5257TIP3    H215778   0.937   0.137   0.229
 5258TIP3   OH215779   5.747   3.256   1.755
 5258TIP3    H115780   5.750   3.296   1.842
 5258TIP3    H215781   5.826   3.202   1.751
 5259TIP3   OH215782   4.554   2.110   0.650
 5259TIP3    H115783   4.474   2.059   0.659
 5259TIP3    H215784   4.620   2.057   0.695
 5260TIP3   OH215785   6.090   2.994   3.685
 5260TIP3    H115786   6.071   2.933   3.614
 5260TIP3    H215787   6.024   2.975   3.751
 5261TIP3   OH215788   3.228   0.621   0.944
 5261TIP3    H115789   3.167   0.695   0.938
 5261TIP3    H215790   3.210   0.582   1.029
 5262TIP3   OH215791   2.418   0.775   0.686
 5262TIP3    H115792   2.457   0.779   0.598
 5262TIP3    H215793   2.337   0.725   0.674
 5263TIP3   OH215794   3.782   5.768   0.696
 5263TIP3    H115795   3.731   5.738   0.771
 5263TIP3    H215796   3.823   5.849   0.725
 5264TIP3   OH215797   2.327   3.270   1.417
 5264TIP3    H115798   2.240   3.275   1.457
 5264TIP3    H215799   2.311   3.236   1.329
 5265TIP3   OH215800   2.392   3.880   4.405
 5265TIP3    H115801   2.457   3.930   4.455
 5265TIP3    H215802   2.316   3.873   4.463
 5266TIP3   OH215803   5.836   0.538   4.930
 5266TIP3    H115804   5.741   0.555   4.927
 5266TIP3    H215805   5.866   0.584   5.008
 5267TIP3   OH215806   5.485   4.103   1.580
 5267TIP3    H115807   5.453   4.106   1.490
 5267TIP3    H215808   5.451   4.183   1.620
 5268TIP3   OH215809   4.752   5.898   1.023
 5268TIP3    H115810   4.843   5.896   1.052
 5268TIP3    H215811   4.757   5.896   0.928
 5269TIP3   OH215812   0.749   2.018   3.498
 5269TIP3    H115813   0.700   2.009   3.579
 5269TIP3    H215814   0.711   2.094   3.454
 5270TIP3   OH215815   5.939   3.618   1.443
 5270TIP3    H115816   5.989   3.625   1.524
 5270TIP3    H215817   5.913   3.708   1.423
 5271TIP3   OH215818   0.029   5.679   4.471
 5271TIP3    H115819   0.060   5.589   4.468
 5271TIP3    H215820   0.005   5.693   4.563
 5272TIP3   OH215821   4.548   5.585   0.589
 5272TIP3    H115822   4.549   5.579   0.494
 5272TIP3    H215823   4.569   5.677   0.608
 5273TIP3   OH215824   3.334   1.699   0.169
 5273TIP3    H115825   3.261   1.674   0.225
 5273TIP3    H215826   3.329   1.641   0.094
 5274TIP3   OH215827   0.626   2.382   2.217
 5274TIP3    H115828   0.676   2.318   2.266
 5274TIP3    H215829   0.657   2.467   2.248
 5275TIP3   OH215830   0.763   2.079   4.500
 5275TIP3    H115831   0.714   2.146   4.549
 5275TIP3    H215832   0.769   2.005   4.561
 5276TIP3   OH215833   3.193   1.921   3.626
 5276TIP3    H115834   3.187   1.886   3.537
 5276TIP3    H215835   3.223   2.011   3.614
 5277TIP3   OH215836   5.259   3.135   3.184
 5277TIP3    H115837   5.333   3.194   3.170
 5277TIP3    H215838   5.182   3.191   3.180
 5278TIP3   OH215839   2.817   3.142   3.963
 5278TIP3    H115840   2.788   3.113   3.877
 5278TIP3    H215841   2.807   3.237   3.961
 5279TIP3   OH215842   0.094   1.594   2.095
 5279TIP3    H115843   0.047   1.643   2.028
 5279TIP3    H215844   0.036   1.594   2.171
 5280TIP3   OH215845   4.169   4.689   0.977
 5280TIP3    H115846   4.159   4.618   0.913
 5280TIP3    H215847   4.262   4.686   1.000
 5281TIP3   OH215848   4.128   0.323   3.425
 5281TIP3    H115849   4.145   0.409   3.463
 5281TIP3    H215850   4.182   0.320   3.346
 5282TIP3   OH215851   4.470   0.111   1.353
 5282TIP3    H115852   4.524   0.092   1.276
 5282TIP3    H215853   4.489   0.203   1.372
 5283TIP3   OH215854   0.914   0.819   0.149
 5283TIP3    H115855   1.009   0.828   0.142
 5283TIP3    H215856   0.891   0.865   0.229
 5284TIP3   OH215857   0.407   1.555   2.079
 5284TIP3    H115858   0.369   1.530   1.995
 5284TIP3    H215859   0.338   1.537   2.143
 5285TIP3   OH215860   3.551   1.617   2.788
 5285TIP3    H115861   3.550   1.633   2.694
 5285TIP3    H215862   3.609   1.542   2.800
 5286TIP3   OH215863   1.701   5.257   4.338
 5286TIP3    H115864   1.795   5.275   4.346
 5286TIP3    H215865   1.661   5.306   4.410
 5287TIP3   OH215866   4.776   3.504   5.017
 5287TIP3    H115867   4.712   3.443   5.054
 5287TIP3    H215868   4.743   3.591   5.041
 5288TIP3   OH215869   5.349   2.608   1.930
 5288TIP3    H115870   5.432   2.635   1.889
 5288TIP3    H215871   5.373   2.531   1.982
 5289TIP3   OH215872   0.810   5.862   2.434
 5289TIP3    H115873   0.797   5.873   2.340
 5289TIP3    H215874   0.741   5.801   2.461
 5290TIP3   OH215875   3.294   4.587   0.878
 5290TIP3    H115876   3.330   4.544   0.956
 5290TIP3    H215877   3.370   4.608   0.825
 5291TIP3   OH215878   0.497   1.329   2.843
 5291TIP3    H115879   0.538   1.243   2.857
 5291TIP3    H215880   0.534   1.385   2.911
 5292TIP3   OH215881   0.044   4.725   3.826
 5292TIP3    H115882   0.102   4.684   3.890
 5292TIP3    H215883   0.031   4.658   3.758
 5293TIP3   OH215884   3.782   3.626   0.505
 5293TIP3    H115885   3.810   3.657   0.591
 5293TIP3    H215886   3.863   3.601   0.461
 5294TIP3   OH215887   5.404   1.811   4.530
 5294TIP3    H115888   5.487   1.859   4.535
 5294TIP3    H215889   5.375   1.805   4.621
 5295TIP3   OH215890   2.100   4.987   0.662
 5295TIP3    H115891   2.019   4.941   0.639
 5295TIP3    H215892   2.071   5.070   0.700
 5296TIP3   OH215893   2.122   1.405   4.448
 5296TIP3    H115894   2.165   1.448   4.373
 5296TIP3    H215895   2.180   1.331   4.469
 5297TIP3   OH215896   2.049   5.313   4.126
 5297TIP3    H115897   1.956   5.289   4.125
 5297TIP3    H215898   2.065   5.347   4.038
 5298TIP3   OH215899   1.978   2.405   0.332
 5298TIP3    H115900   1.924   2.471   0.377
 5298TIP3    H215901   2.029   2.365   0.403
 5299TIP3   OH215902   2.229   2.797   4.020
 5299TIP3    H115903   2.294   2.752   3.965
 5299TIP3    H215904   2.152   2.740   4.017
 5300TIP3   OH215905   1.590   4.668   1.279
 5300TIP3    H115906   1.642   4.713   1.212
 5300TIP3    H215907   1.584   4.578   1.247
 5301TIP3   OH215908   2.310   4.645   0.652
 5301TIP3    H115909   2.271   4.640   0.739
 5301TIP3    H215910   2.334   4.555   0.631
 5302TIP3   OH215911   2.624   0.258   0.876
 5302TIP3    H115912   2.619   0.348   0.845
 5302TIP3    H215913   2.534   0.226   0.870
 5303TIP3   OH215914   0.681   3.192   2.808
 5303TIP3    H115915   0.676   3.205   2.903
 5303TIP3    H215916   0.677   3.280   2.772
 5304TIP3   OH215917   1.054   4.229   4.107
 5304TIP3    H115918   1.138   4.276   4.098
 5304TIP3    H215919   1.003   4.255   4.031
 5305TIP3   OH215920   2.224   2.444   2.471
 5305TIP3    H115921   2.298   2.398   2.510
 5305TIP3    H215922   2.197   2.388   2.398
 5306TIP3   OH215923   5.373   2.158   0.033
 5306TIP3    H115924   5.310   2.180   0.102
 5306TIP3    H215925   5.434   2.097   0.074
 5307TIP3   OH215926   1.285   4.384   4.151
 5307TIP3    H115927   1.353   4.420   4.095
 5307TIP3    H215928   1.318   4.396   4.240
 5308TIP3   OH215929   3.466   1.941   4.689
 5308TIP3    H115930   3.497   1.889   4.615
 5308TIP3    H215931   3.456   2.029   4.655
 5309TIP3   OH215932   5.475   3.603   1.479
 5309TIP3    H115933   5.495   3.688   1.518
 5309TIP3    H215934   5.403   3.620   1.418
 5310TIP3   OH215935   0.093   0.717   2.533
 5310TIP3    H115936   0.173   0.679   2.496
 5310TIP3    H215937   0.041   0.641   2.560
 5311TIP3   OH215938   5.412   4.028   1.889
 5311TIP3    H115939   5.436   4.043   1.797
 5311TIP3    H215940   5.399   4.115   1.925
 5312TIP3   OH215941   1.158   5.676   3.391
 5312TIP3    H115942   1.191   5.766   3.398
 5312TIP3    H215943   1.064   5.686   3.373
 5313TIP3   OH215944   0.446   0.449   3.907
 5313TIP3    H115945   0.486   0.379   3.855
 5313TIP3    H215946   0.488   0.529   3.874
 5314TIP3   OH215947   0.117   5.989   1.820
 5314TIP3    H115948   0.107   5.928   1.747
 5314TIP3    H215949   0.028   6.010   1.847
 5315TIP3   OH215950   2.747   3.821   0.736
 5315TIP3    H115951   2.734   3.740   0.686
 5315TIP3    H215952   2.811   3.870   0.685
 5316TIP3   OH215953   2.485   1.602   2.964
 5316TIP3    H115954   2.565   1.652   2.974
 5316TIP3    H215955   2.471   1.597   2.869
 5317TIP3   OH215956   2.078   0.046   0.091
 5317TIP3    H115957   1.998   0.099   0.099
 5317TIP3    H215958   2.047  -0.039   0.061
 5318TIP3   OH215959   2.232   5.169   2.439
 5318TIP3    H115960   2.295   5.149   2.508
 5318TIP3    H215961   2.274   5.235   2.385
 5319TIP3   OH215962   2.836   1.549   2.738
 5319TIP3    H115963   2.751   1.589   2.720
 5319TIP3    H215964   2.836   1.534   2.833
 5320TIP3   OH215965   5.851   2.663   2.095
 5320TIP3    H115966   5.787   2.643   2.026
 5320TIP3    H215967   5.845   2.758   2.107
 5321TIP3   OH215968   2.431   1.283   2.263
 5321TIP3    H115969   2.424   1.289   2.358
 5321TIP3    H215970   2.341   1.289   2.232
 5322TIP3   OH215971   4.466   4.792   0.787
 5322TIP3    H115972   4.419   4.856   0.840
 5322TIP3    H215973   4.514   4.845   0.723
 5323TIP3   OH215974   1.948   3.929   0.498
 5323TIP3    H115975   2.017   3.864   0.510
 5323TIP3    H215976   1.956   3.956   0.407
 5324TIP3   OH215977   5.664   3.589   3.607
 5324TIP3    H115978   5.662   3.597   3.703
 5324TIP3    H215979   5.618   3.507   3.589
 5325TIP3   OH215980   3.628   1.362   4.962
 5325TIP3    H115981   3.577   1.436   4.995
 5325TIP3    H215982   3.679   1.333   5.037
 5326TIP3   OH215983   5.062   3.724   4.416
 5326TIP3    H115984   5.060   3.807   4.369
 5326TIP3    H215985   5.143   3.683   4.388
 5327TIP3   OH215986   1.884   0.656   4.548
 5327TIP3    H115987   1.949   0.586   4.540
 5327TIP3    H215988   1.846   0.664   4.461
 5328TIP3   OH215989   2.013   5.048  -0.014
 5328TIP3    H115990   1.967   5.002   0.056
 5328TIP3    H215991   1.956   5.121  -0.036
 5329TIP3   OH215992   2.338   4.801   2.652
 5329TIP3    H115993   2.417   4.751   2.674
 5329TIP3    H215994   2.315   4.771   2.564
 5330TIP3   OH215995   3.888   2.096   1.518
 5330TIP3    H115996   3.978   2.064   1.508
 5330TIP3    H215997   3.851   2.041   1.587
 5331TIP3   OH215998   2.066   3.322   1.976
 5331TIP3    H115999   2.114   3.240   1.982
 5331TIP3    H216000   2.020   3.317   1.892
 5332TIP3   OH216001   0.537   2.115   0.194
 5332TIP3    H116002   0.494   2.200   0.204
 5332TIP3    H216003   0.630   2.134   0.208
 5333TIP3   OH216004   5.797   1.131   1.634
 5333TIP3    H116005   5.704   1.138   1.657
 5333TIP3    H216006   5.843   1.179   1.703
 5334TIP3   OH216007   2.645   3.280   0.541
 5334TIP3    H116008   2.576   3.346   0.535
 5334TIP3    H216009   2.727   3.330   0.532
 5335TIP3   OH216010   1.207   0.204   1.800
 5335TIP3    H116011   1.289   0.178   1.842
 5335TIP3    H216012   1.153   0.237   1.872
 5336TIP3   OH216013   5.660   3.193   4.300
 5336TIP3    H116014   5.738   3.141   4.280
 5336TIP3    H216015   5.681   3.240   4.380
 5337TIP3   OH216016   5.621   2.219   3.288
 5337TIP3    H116017   5.677   2.253   3.218
 5337TIP3    H216018   5.673   2.149   3.328
 5338TIP3   OH216019   0.414   1.413   3.201
 5338TIP3    H116020   0.507   1.427   3.214
 5338TIP3    H216021   0.390   1.469   3.127
 5339TIP3   OH216022   0.903   4.117   4.979
 5339TIP3    H116023   0.967   4.138   5.047
 5339TIP3    H216024   0.954   4.113   4.898
 5340TIP3   OH216025   3.361   4.214   3.545
 5340TIP3    H116026   3.435   4.158   3.520
 5340TIP3    H216027   3.288   4.181   3.494
 5341TIP3   OH216028   5.600   4.715   3.488
 5341TIP3    H116029   5.571   4.792   3.440
 5341TIP3    H216030   5.563   4.641   3.439
 5342TIP3   OH216031   5.555   1.912   0.843
 5342TIP3    H116032   5.576   1.995   0.801
 5342TIP3    H216033   5.461   1.917   0.861
 5343TIP3   OH216034   0.833   0.860   2.050
 5343TIP3    H116035   0.899   0.796   2.024
 5343TIP3    H216036   0.856   0.939   2.001
 5344TIP3   OH216037   3.195   2.492   4.773
 5344TIP3    H116038   3.265   2.470   4.712
 5344TIP3    H216039   3.232   2.472   4.859
 5345TIP3   OH216040   1.598   3.434   5.062
 5345TIP3    H116041   1.628   3.524   5.077
 5345TIP3    H216042   1.503   3.440   5.063
 5346TIP3   OH216043   5.446   1.630   3.092
 5346TIP3    H116044   5.422   1.546   3.053
 5346TIP3    H216045   5.457   1.611   3.185
 5347TIP3   OH216046   4.171   5.215   2.667
 5347TIP3    H116047   4.116   5.155   2.616
 5347TIP3    H216048   4.255   5.215   2.621
 5348TIP3   OH216049   5.372   0.762   3.976
 5348TIP3    H116050   5.311   0.798   3.912
 5348TIP3    H216051   5.456   0.801   3.954
 5349TIP3   OH216052   1.399   2.167   0.757
 5349TIP3    H116053   1.460   2.238   0.777
 5349TIP3    H216054   1.450   2.105   0.704
 5350TIP3   OH216055   3.092   0.821   1.075
 5350TIP3    H116056   3.052   0.890   1.128
 5350TIP3    H216057   3.080   0.741   1.128
 5351TIP3   OH216058   1.076   4.912   4.119
 5351TIP3    H116059   1.150   4.859   4.088
 5351TIP3    H216060   1.039   4.950   4.039
 5352TIP3   OH216061   2.723   1.362   2.986
 5352TIP3    H116062   2.695   1.283   2.941
 5352TIP3    H216063   2.650   1.423   2.975
 5353TIP3   OH216064   0.735   2.893   2.571
 5353TIP3    H116065   0.652   2.875   2.614
 5353TIP3    H216066   0.788   2.936   2.638
 5354TIP3   OH216067   2.213   2.322   4.530
 5354TIP3    H116068   2.253   2.243   4.495
 5354TIP3    H216069   2.286   2.370   4.571
 5355TIP3   OH216070   2.776   2.877   4.397
 5355TIP3    H116071   2.710   2.889   4.465
 5355TIP3    H216072   2.729   2.838   4.324
 5356TIP3   OH216073   4.217   1.482   5.069
 5356TIP3    H116074   4.217   1.411   5.005
 5356TIP3    H216075   4.125   1.499   5.086
 5357TIP3   OH216076   0.061   3.048   1.284
 5357TIP3    H116077   0.144   3.054   1.236
 5357TIP3    H216078   0.055   3.131   1.331
 5358TIP3   OH216079   3.939   3.489   0.733
 5358TIP3    H116080   4.031   3.495   0.756
 5358TIP3    H216081   3.900   3.570   0.766
 5359TIP3   OH216082   4.742   1.679   3.232
 5359TIP3    H116083   4.789   1.687   3.315
 5359TIP3    H216084   4.801   1.718   3.167
 5360TIP3   OH216085   0.137   2.646   3.658
 5360TIP3    H116086   0.119   2.736   3.684
 5360TIP3    H216087   0.188   2.609   3.731
 5361TIP3   OH216088   3.169   1.476   1.188
 5361TIP3    H116089   3.153   1.426   1.108
 5361TIP3    H216090   3.172   1.410   1.257
 5362TIP3   OH216091   5.486   5.041   1.015
 5362TIP3    H116092   5.573   5.081   1.011
 5362TIP3    H216093   5.427   5.113   1.037
 5363TIP3   OH216094   1.939   4.798   3.038
 5363TIP3    H116095   1.889   4.867   2.995
 5363TIP3    H216096   2.018   4.789   2.984
 5364TIP3   OH216097   3.734   0.494   0.072
 5364TIP3    H116098   3.783   0.421   0.034
 5364TIP3    H216099   3.780   0.572   0.041
 5365TIP3   OH216100   4.226   0.744   3.687
 5365TIP3    H116101   4.247   0.756   3.780
 5365TIP3    H216102   4.301   0.782   3.641
 5366TIP3   OH216103   2.420   4.185   3.506
 5366TIP3    H116104   2.496   4.126   3.507
 5366TIP3    H216105   2.363   4.153   3.575
 5367TIP3   OH216106   6.181   4.226   2.859
 5367TIP3    H116107   6.151   4.215   2.769
 5367TIP3    H216108   6.176   4.320   2.875
 5368TIP3   OH216109   5.477   4.539   5.075
 5368TIP3    H116110   5.454   4.620   5.031
 5368TIP3    H216111   5.510   4.482   5.006
 5369TIP3   OH216112   4.130   0.976   2.644
 5369TIP3    H116113   4.079   0.899   2.619
 5369TIP3    H216114   4.070   1.050   2.629
 5370TIP3   OH216115   1.415   5.096   0.883
 5370TIP3    H116116   1.498   5.091   0.836
 5370TIP3    H216117   1.413   5.184   0.919
 5371TIP3   OH216118   0.532   0.459   0.099
 5371TIP3    H116119   0.478   0.480   0.022
 5371TIP3    H216120   0.619   0.492   0.077
 5372TIP3   OH216121   0.536   5.021   2.139
 5372TIP3    H116122   0.557   4.954   2.205
 5372TIP3    H216123   0.619   5.064   2.120
 5373TIP3   OH216124   4.633   2.687   0.264
 5373TIP3    H116125   4.602   2.759   0.210
 5373TIP3    H216126   4.557   2.660   0.315
 5374TIP3   OH216127   3.634   1.382   2.311
 5374TIP3    H116128   3.695   1.317   2.344
 5374TIP3    H216129   3.657   1.392   2.218
 5375TIP3   OH216130   5.411   4.949   3.629
 5375TIP3    H116131   5.364   4.880   3.582
 5375TIP3    H216132   5.426   4.912   3.717
 5376TIP3   OH216133   1.927   4.474   1.193
 5376TIP3    H116134   1.883   4.419   1.128
 5376TIP3    H216135   1.901   4.563   1.171
 5377TIP3   OH216136   3.162   0.803   3.701
 5377TIP3    H116137   3.093   0.839   3.756
 5377TIP3    H216138   3.129   0.716   3.676
 5378TIP3   OH216139   5.476   4.812   3.857
 5378TIP3    H116140   5.462   4.842   3.947
 5378TIP3    H216141   5.569   4.791   3.852
 5379TIP3   OH216142   3.085   2.269   4.858
 5379TIP3    H116143   3.098   2.339   4.794
 5379TIP3    H216144   3.018   2.304   4.917
 5380TIP3   OH216145   3.234   3.687   4.102
 5380TIP3    H116146   3.189   3.618   4.053
 5380TIP3    H216147   3.221   3.766   4.050
 5381TIP3   OH216148   5.759   4.253   4.410
 5381TIP3    H116149   5.737   4.237   4.502
 5381TIP3    H216150   5.842   4.206   4.397
 5382TIP3   OH216151   3.476   0.799   2.018
 5382TIP3    H116152   3.449   0.862   2.084
 5382TIP3    H216153   3.553   0.756   2.056
 5383TIP3   OH216154   0.560   3.091   4.432
 5383TIP3    H116155   0.502   3.167   4.443
 5383TIP3    H216156   0.575   3.086   4.338
 5384TIP3   OH216157   5.330   5.766   3.128
 5384TIP3    H116158   5.374   5.681   3.132
 5384TIP3    H216159   5.251   5.749   3.076
 5385TIP3   OH216160   5.738   3.302   2.713
 5385TIP3    H116161   5.664   3.252   2.679
 5385TIP3    H216162   5.792   3.238   2.759
 5386TIP3   OH216163   1.453   4.186   0.128
 5386TIP3    H116164   1.389   4.257   0.139
 5386TIP3    H216165   1.468   4.182   0.034
 5387TIP3   OH216166   3.812   2.697   1.239
 5387TIP3    H116167   3.857   2.633   1.184
 5387TIP3    H216168   3.864   2.777   1.232
 5388TIP3   OH216169   4.420   2.829   2.168
 5388TIP3    H116170   4.369   2.805   2.245
 5388TIP3    H216171   4.500   2.777   2.175
 5389TIP3   OH216172   4.610   2.545   4.145
 5389TIP3    H116173   4.529   2.499   4.169
 5389TIP3    H216174   4.623   2.609   4.214
 5390TIP3   OH216175   5.255   5.842   0.849
 5390TIP3    H116176   5.297   5.824   0.933
 5390TIP3    H216177   5.323   5.823   0.784
 5391TIP3   OH216178   1.333   4.911   4.854
 5391TIP3    H116179   1.314   4.980   4.918
 5391TIP3    H216180   1.256   4.855   4.856
 5392TIP3   OH216181   2.202   1.823  -0.004
 5392TIP3    H116182   2.226   1.861   0.080
 5392TIP3    H216183   2.110   1.800   0.005
 5393TIP3   OH216184   3.139   5.416   2.682
 5393TIP3    H116185   3.173   5.493   2.728
 5393TIP3    H216186   3.191   5.344   2.716
 5394TIP3   OH216187   0.696   1.737   0.197
 5394TIP3    H116188   0.749   1.743   0.276
 5394TIP3    H216189   0.647   1.819   0.194
 5395TIP3   OH216190   6.125   2.889   4.237
 5395TIP3    H116191   6.185   2.816   4.222
 5395TIP3    H216192   6.178   2.954   4.284
 5396TIP3   OH216193   3.417   5.581   0.485
 5396TIP3    H116194   3.371   5.618   0.560
 5396TIP3    H216195   3.508   5.609   0.495
 5397TIP3   OH216196   2.159   4.647  -0.017
 5397TIP3    H116197   2.126   4.716   0.041
 5397TIP3    H216198   2.080   4.613  -0.060
 5398TIP3   OH216199   0.167   2.898   3.020
 5398TIP3    H116200   0.258   2.921   3.039
 5398TIP3    H216201   0.138   2.849   3.096
 5399TIP3   OH216202   2.358   5.250   4.179
 5399TIP3    H116203   2.363   5.337   4.218
 5399TIP3    H216204   2.444   5.236   4.140
 5400TIP3   OH216205   3.723   3.523   1.411
 5400TIP3    H116206   3.758   3.434   1.407
 5400TIP3    H216207   3.772   3.565   1.481
 5401TIP3   OH216208   0.647   1.100   3.782
 5401TIP3    H116209   0.654   1.183   3.735
 5401TIP3    H216210   0.662   1.034   3.714
 5402TIP3   OH216211   4.406   1.692   0.874
 5402TIP3    H116212   4.430   1.665   0.962
 5402TIP3    H216213   4.431   1.618   0.818
 5403TIP3   OH216214   2.545   5.938   1.157
 5403TIP3    H116215   2.602   6.010   1.132
 5403TIP3    H216216   2.604   5.871   1.192
 5404TIP3   OH216217   4.941   2.461   3.861
 5404TIP3    H116218   4.921   2.455   3.767
 5404TIP3    H216219   5.028   2.424   3.869
 5405TIP3   OH216220   3.179   0.858   3.423
 5405TIP3    H116221   3.199   0.768   3.398
 5405TIP3    H216222   3.210   0.865   3.513
 5406TIP3   OH216223   3.135   5.004   2.785
 5406TIP3    H116224   3.121   4.925   2.733
 5406TIP3    H216225   3.070   5.066   2.753
 5407TIP3   OH216226   6.351   1.469   4.831
 5407TIP3    H116227   6.293   1.515   4.892
 5407TIP3    H216228   6.436   1.468   4.876
 5408TIP3   OH216229   4.661   1.353   4.223
 5408TIP3    H116230   4.663   1.267   4.182
 5408TIP3    H216231   4.743   1.394   4.197
 5409TIP3   OH216232   5.731   1.862   1.050
 5409TIP3    H116233   5.792   1.795   1.019
 5409TIP3    H216234   5.679   1.884   0.972
 5410TIP3   OH216235   0.076   5.420   4.461
 5410TIP3    H116236   0.003   5.361   4.479
 5410TIP3    H216237   0.096   5.405   4.369
 5411TIP3   OH216238   2.319   3.517   4.426
 5411TIP3    H116239   2.305   3.514   4.520
 5411TIP3    H216240   2.240   3.559   4.392
 5412TIP3   OH216241   6.080   2.510   4.351
 5412TIP3    H116242   6.033   2.507   4.268
 5412TIP3    H216243   6.105   2.420   4.369
 5413TIP3   OH216244   5.470   2.918   1.190
 5413TIP3    H116245   5.443   2.970   1.114
 5413TIP3    H216246   5.533   2.972   1.236
 5414TIP3   OH216247   2.534   1.369   2.672
 5414TIP3    H116248   2.584   1.324   2.741
 5414TIP3    H216249   2.478   1.301   2.635
 5415TIP3   OH216250   1.524   1.977   0.574
 5415TIP3    H116251   1.453   1.965   0.510
 5415TIP3    H216252   1.598   1.930   0.536
 5416TIP3   OH216253   0.092   0.078   4.192
 5416TIP3    H116254   0.005   0.098   4.227
 5416TIP3    H216255   0.153   0.111   4.258
 5417TIP3   OH216256   0.254   2.974   2.039
 5417TIP3    H116257   0.181   2.967   2.101
 5417TIP3    H216258   0.219   2.940   1.957
 5418TIP3   OH216259   3.255   3.461   3.565
 5418TIP3    H116260   3.267   3.516   3.488
 5418TIP3    H216261   3.229   3.376   3.530
 5419TIP3   OH216262  -0.004   3.428   4.170
 5419TIP3    H116263   0.046   3.438   4.251
 5419TIP3    H216264   0.051   3.469   4.103
 5420TIP3   OH216265   5.186   4.966   1.495
 5420TIP3    H116266   5.247   4.897   1.521
 5420TIP3    H216267   5.233   5.014   1.426
 5421TIP3   OH216268   2.451   5.628   0.819
 5421TIP3    H116269   2.487   5.567   0.884
 5421TIP3    H216270   2.382   5.674   0.865
 5422TIP3   OH216271   1.397   2.557   3.713
 5422TIP3    H116272   1.342   2.481   3.697
 5422TIP3    H216273   1.343   2.616   3.766
 5423TIP3   OH216274   0.688   1.149   1.199
 5423TIP3    H116275   0.753   1.096   1.151
 5423TIP3    H216276   0.730   1.166   1.283
 5424TIP3   OH216277   0.730   5.598   4.239
 5424TIP3    H116278   0.664   5.579   4.173
 5424TIP3    H216279   0.682   5.644   4.308
 5425TIP3   OH216280   1.140   4.351   2.052
 5425TIP3    H116281   1.173   4.351   2.141
 5425TIP3    H216282   1.044   4.353   2.061
 5426TIP3   OH216283   1.919   2.990   4.972
 5426TIP3    H116284   1.848   2.988   5.036
 5426TIP3    H216285   1.997   2.969   5.022
 5427TIP3   OH216286   4.243   0.339   5.009
 5427TIP3    H116287   4.294   0.388   4.945
 5427TIP3    H216288   4.283   0.362   5.093
 5428TIP3   OH216289   0.535   1.610   0.409
 5428TIP3    H116290   0.616   1.585   0.365
 5428TIP3    H216291   0.515   1.698   0.376
 5429TIP3   OH216292   3.318   3.694   1.402
 5429TIP3    H116293   3.315   3.610   1.448
 5429TIP3    H216294   3.408   3.724   1.413
 5430TIP3   OH216295   3.790   2.321   4.672
 5430TIP3    H116296   3.772   2.237   4.632
 5430TIP3    H216297   3.706   2.368   4.670
 5431TIP3   OH216298   5.855   3.504   2.590
 5431TIP3    H116299   5.829   3.417   2.623
 5431TIP3    H216300   5.931   3.528   2.643
 5432TIP3   OH216301   4.574   5.921   1.247
 5432TIP3    H116302   4.524   6.000   1.227
 5432TIP3    H216303   4.635   5.912   1.174
 5433TIP3   OH216304   0.925   0.129   1.687
 5433TIP3    H116305   1.000   0.073   1.706
 5433TIP3    H216306   0.849   0.073   1.700
 5434TIP3   OH216307   0.864   5.524   4.991
 5434TIP3    H116308   0.817   5.477   4.922
 5434TIP3    H216309   0.859   5.616   4.966
 5435TIP3   OH216310   3.442   4.369   0.753
 5435TIP3    H116311   3.431   4.382   0.659
 5435TIP3    H216312   3.514   4.426   0.778
 5436TIP3   OH216313   1.827   4.704   3.463
 5436TIP3    H116314   1.780   4.772   3.513
 5436TIP3    H216315   1.910   4.694   3.510
 5437TIP3   OH216316   0.122   3.782   3.667
 5437TIP3    H116317   0.202   3.757   3.712
 5437TIP3    H216318   0.052   3.740   3.716
 5438TIP3   OH216319   4.144   3.228   1.344
 5438TIP3    H116320   4.225   3.276   1.324
 5438TIP3    H216321   4.085   3.251   1.273
 5439TIP3   OH216322   4.817   2.052   3.979
 5439TIP3    H116323   4.864   2.095   4.051
 5439TIP3    H216324   4.725   2.067   3.998
 5440TIP3   OH216325   4.195   2.818   3.714
 5440TIP3    H116326   4.186   2.772   3.797
 5440TIP3    H216327   4.237   2.901   3.737
 5441TIP3   OH216328   4.716   2.307   2.749
 5441TIP3    H116329   4.647   2.271   2.694
 5441TIP3    H216330   4.671   2.366   2.809
 5442TIP3   OH216331   0.971   4.494   1.044
 5442TIP3    H116332   0.925   4.461   0.967
 5442TIP3    H216333   1.031   4.424   1.069
 5443TIP3   OH216334   3.774   3.635   2.963
 5443TIP3    H116335   3.799   3.630   2.871
 5443TIP3    H216336   3.857   3.625   3.011
 5444TIP3   OH216337   5.439   4.619   4.725
 5444TIP3    H116338   5.507   4.557   4.749
 5444TIP3    H216339   5.421   4.667   4.806
 5445TIP3   OH216340   4.555   4.628   2.920
 5445TIP3    H116341   4.570   4.568   2.847
 5445TIP3    H216342   4.624   4.606   2.983
 5446TIP3   OH216343   3.704   5.296   1.897
 5446TIP3    H116344   3.684   5.327   1.985
 5446TIP3    H216345   3.795   5.320   1.883
 5447TIP3   OH216346   2.526   1.038   3.519
 5447TIP3    H116347   2.582   1.106   3.557
 5447TIP3    H216348   2.449   1.036   3.576
 5448TIP3   OH216349   2.994   0.754   3.221
 5448TIP3    H116350   3.047   0.788   3.293
 5448TIP3    H216351   3.059   0.724   3.156
 5449TIP3   OH216352   4.216   4.317   1.354
 5449TIP3    H116353   4.198   4.379   1.283
 5449TIP3    H216354   4.303   4.341   1.385
 5450TIP3   OH216355   0.519   3.790   3.489
 5450TIP3    H116356   0.572   3.809   3.566
 5450TIP3    H216357   0.447   3.853   3.492
 5451TIP3   OH216358   4.761   3.972   4.391
 5451TIP3    H116359   4.679   3.992   4.346
 5451TIP3    H216360   4.806   4.056   4.398
 5452TIP3   OH216361   4.198   1.664   2.085
 5452TIP3    H116362   4.199   1.620   2.170
 5452TIP3    H216363   4.106   1.673   2.063
 5453TIP3   OH216364   3.810   3.013   0.338
 5453TIP3    H116365   3.849   2.968   0.263
 5453TIP3    H216366   3.727   2.968   0.353
 5454TIP3   OH216367   3.339   1.681   4.789
 5454TIP3    H116368   3.350   1.776   4.789
 5454TIP3    H216369   3.410   1.649   4.733
 5455TIP3   OH216370   1.635   5.498   1.428
 5455TIP3    H116371   1.688   5.425   1.462
 5455TIP3    H216372   1.699   5.568   1.412
 5456TIP3   OH216373   4.634   3.660   0.446
 5456TIP3    H116374   4.614   3.746   0.484
 5456TIP3    H216375   4.555   3.636   0.398
 5457TIP3   OH216376   1.429   0.745   1.998
 5457TIP3    H116377   1.467   0.778   2.080
 5457TIP3    H216378   1.504   0.735   1.939
 5458TIP3   OH216379   3.730   5.428   3.721
 5458TIP3    H116380   3.791   5.460   3.788
 5458TIP3    H216381   3.695   5.346   3.756
 5459TIP3   OH216382   0.885   4.709   2.906
 5459TIP3    H116383   0.900   4.645   2.837
 5459TIP3    H216384   0.952   4.776   2.891
 5460TIP3   OH216385   3.561   1.297   2.727
 5460TIP3    H116386   3.575   1.215   2.773
 5460TIP3    H216387   3.470   1.321   2.747
 5461TIP3   OH216388   3.588   5.088   0.378
 5461TIP3    H116389   3.606   5.054   0.291
 5461TIP3    H216390   3.567   5.010   0.430
 5462TIP3   OH216391   1.985   4.888   4.034
 5462TIP3    H116392   1.898   4.916   4.004
 5462TIP3    H216393   2.001   4.806   3.988
 5463TIP3   OH216394   3.943   2.489   3.572
 5463TIP3    H116395   3.947   2.570   3.623
 5463TIP3    H216396   3.977   2.422   3.630
 5464TIP3   OH216397   2.302   5.867   0.232
 5464TIP3    H116398   2.390   5.850   0.266
 5464TIP3    H216399   2.250   5.888   0.309
 5465TIP3   OH216400   3.171   1.926   4.796
 5465TIP3    H116401   3.155   1.924   4.702
 5465TIP3    H216402   3.216   2.009   4.812
 5466TIP3   OH216403   5.668   2.673   0.112
 5466TIP3    H116404   5.615   2.599   0.087
 5466TIP3    H216405   5.668   2.730   0.035
 5467TIP3   OH216406   2.196   0.254   2.167
 5467TIP3    H116407   2.132   0.235   2.098
 5467TIP3    H216408   2.261   0.185   2.158
 5468TIP3   OH216409   4.570   1.792   4.445
 5468TIP3    H116410   4.622   1.854   4.495
 5468TIP3    H216411   4.584   1.708   4.490
 5469TIP3   OH216412   4.597   0.574   3.253
 5469TIP3    H116413   4.663   0.644   3.248
 5469TIP3    H216414   4.589   0.557   3.346
 5470TIP3   OH216415   0.881   4.941   0.304
 5470TIP3    H116416   0.794   4.920   0.271
 5470TIP3    H216417   0.875   4.927   0.398
 5471TIP3   OH216418   0.291   4.873   3.652
 5471TIP3    H116419   0.233   4.802   3.678
 5471TIP3    H216420   0.242   4.921   3.585
 5472TIP3   OH216421   4.019   3.650   3.050
 5472TIP3    H116422   4.054   3.739   3.043
 5472TIP3    H216423   4.036   3.624   3.140
 5473TIP3   OH216424   4.023   4.565   2.734
 5473TIP3    H116425   3.980   4.531   2.655
 5473TIP3    H216426   3.959   4.624   2.772
 5474TIP3   OH216427   5.816   4.482   3.412
 5474TIP3    H116428   5.752   4.415   3.435
 5474TIP3    H216429   5.859   4.503   3.495
 5475TIP3   OH216430   3.219   0.933   0.853
 5475TIP3    H116431   3.177   0.898   0.932
 5475TIP3    H216432   3.174   1.015   0.836
 5476TIP3   OH216433   0.224   2.622   0.012
 5476TIP3    H116434   0.306   2.659   0.045
 5476TIP3    H216435   0.172   2.698  -0.014
 5477TIP3   OH216436   0.832   2.892   3.715
 5477TIP3    H116437   0.777   2.871   3.791
 5477TIP3    H216438   0.870   2.809   3.688
 5478TIP3   OH216439   3.126   4.359   0.677
 5478TIP3    H116440   3.165   4.424   0.618
 5478TIP3    H216441   3.164   4.276   0.650
 5479TIP3   OH216442   1.910   5.689   0.381
 5479TIP3    H116443   1.945   5.678   0.293
 5479TIP3    H216444   1.819   5.661   0.375
 5480TIP3   OH216445   2.325   3.255   2.673
 5480TIP3    H116446   2.316   3.160   2.685
 5480TIP3    H216447   2.349   3.288   2.760
 5481TIP3   OH216448   3.030   4.410   3.054
 5481TIP3    H116449   3.032   4.503   3.076
 5481TIP3    H216450   2.964   4.372   3.113
 5482TIP3   OH216451   0.376   2.422   1.353
 5482TIP3    H116452   0.400   2.393   1.441
 5482TIP3    H216453   0.310   2.490   1.368
 5483TIP3   OH216454   4.877   3.195   0.027
 5483TIP3    H116455   4.895   3.279   0.070
 5483TIP3    H216456   4.904   3.208  -0.064
 5484TIP3   OH216457   1.145   5.231   1.552
 5484TIP3    H116458   1.095   5.241   1.472
 5484TIP3    H216459   1.225   5.186   1.525
 5485TIP3   OH216460   1.668   0.525   5.114
 5485TIP3    H116461   1.650   0.500   5.024
 5485TIP3    H216462   1.666   0.443   5.163
 5486TIP3   OH216463   5.278   3.051   4.288
 5486TIP3    H116464   5.240   3.074   4.373
 5486TIP3    H216465   5.259   3.126   4.232
 5487TIP3   OH216466   3.444   4.367   3.321
 5487TIP3    H116467   3.453   4.461   3.337
 5487TIP3    H216468   3.421   4.331   3.407
 5488TIP3   OH216469   6.160   3.324   3.966
 5488TIP3    H116470   6.233   3.341   4.026
 5488TIP3    H216471   6.148   3.229   3.970
 5489TIP3   OH216472   4.812   3.117   2.810
 5489TIP3    H116473   4.897   3.115   2.854
 5489TIP3    H216474   4.754   3.066   2.867
 5490TIP3   OH216475   1.876   1.744   1.792
 5490TIP3    H116476   1.791   1.785   1.805
 5490TIP3    H216477   1.902   1.716   1.880
 5491TIP3   OH216478   2.817   5.769   0.490
 5491TIP3    H116479   2.893   5.805   0.536
 5491TIP3    H216480   2.766   5.726   0.558
 5492TIP3   OH216481   5.016   5.229   2.603
 5492TIP3    H116482   5.093   5.250   2.655
 5492TIP3    H216483   5.035   5.143   2.565
 5493TIP3   OH216484   1.294   5.937   3.041
 5493TIP3    H116485   1.231   5.933   2.968
 5493TIP3    H216486   1.315   5.845   3.058
 5494TIP3   OH216487   0.729   5.202   4.175
 5494TIP3    H116488   0.691   5.134   4.120
 5494TIP3    H216489   0.726   5.165   4.264
 5495TIP3   OH216490   1.726   0.959   0.588
 5495TIP3    H116491   1.726   0.867   0.613
 5495TIP3    H216492   1.795   0.999   0.641
 5496TIP3   OH216493   0.183   3.342   1.677
 5496TIP3    H116494   0.126   3.419   1.666
 5496TIP3    H216495   0.127   3.268   1.655
 5497TIP3   OH216496   1.049   5.437   0.836
 5497TIP3    H116497   1.084   5.471   0.918
 5497TIP3    H216498   1.002   5.510   0.797
 5498TIP3   OH216499   1.511   2.622   4.825
 5498TIP3    H116500   1.500   2.604   4.918
 5498TIP3    H216501   1.570   2.697   4.821
 5499TIP3   OH216502   4.480   2.629   3.252
 5499TIP3    H116503   4.441   2.681   3.323
 5499TIP3    H216504   4.571   2.657   3.250
 5500TIP3   OH216505   4.844   2.599   1.498
 5500TIP3    H116506   4.851   2.505   1.517
 5500TIP3    H216507   4.921   2.638   1.539
 5501TIP3   OH216508   5.348   4.284   1.715
 5501TIP3    H116509   5.268   4.255   1.759
 5501TIP3    H216510   5.370   4.367   1.758
 5502TIP3   OH216511   5.962   2.540   5.010
 5502TIP3    H116512   5.866   2.537   5.015
 5502TIP3    H216513   5.986   2.614   5.064
 5503TIP3   OH216514   2.107   1.879   4.546
 5503TIP3    H116515   2.098   1.939   4.473
 5503TIP3    H216516   2.178   1.916   4.599
 5504TIP3   OH216517   0.753   3.419   2.693
 5504TIP3    H116518   0.813   3.480   2.737
 5504TIP3    H216519   0.747   3.452   2.603
 5505TIP3   OH216520   4.419   5.842   3.802
 5505TIP3    H116521   4.389   5.846   3.892
 5505TIP3    H216522   4.349   5.798   3.754
 5506TIP3   OH216523   4.640   3.930   0.498
 5506TIP3    H116524   4.583   3.980   0.440
 5506TIP3    H216525   4.700   3.995   0.534
 5507TIP3   OH216526   4.912   5.296   4.101
 5507TIP3    H116527   5.003   5.265   4.092
 5507TIP3    H216528   4.906   5.326   4.191
 5508TIP3   OH216529   1.905   4.015   2.047
 5508TIP3    H116530   1.900   4.088   1.986
 5508TIP3    H216531   1.973   4.040   2.109
 5509TIP3   OH216532   3.785   0.408   4.235
 5509TIP3    H116533   3.818   0.447   4.154
 5509TIP3    H216534   3.788   0.314   4.218
 5510TIP3   OH216535   5.979   3.555   3.199
 5510TIP3    H116536   5.962   3.551   3.293
 5510TIP3    H216537   6.064   3.599   3.191
 5511TIP3   OH216538   0.871   1.245   1.373
 5511TIP3    H116539   0.820   1.276   1.448
 5511TIP3    H216540   0.909   1.325   1.336
 5512TIP3   OH216541   5.758   4.078   1.832
 5512TIP3    H116542   5.723   4.045   1.915
 5512TIP3    H216543   5.798   4.002   1.790
 5513TIP3   OH216544   0.312   1.779   5.143
 5513TIP3    H116545   0.234   1.724   5.150
 5513TIP3    H216546   0.381   1.728   5.184
 5514TIP3   OH216547   5.573   0.595   2.226
 5514TIP3    H116548   5.654   0.628   2.264
 5514TIP3    H216549   5.517   0.576   2.302
 5515TIP3   OH216550   6.020   0.645   4.723
 5515TIP3    H116551   5.939   0.619   4.766
 5515TIP3    H216552   6.082   0.661   4.794
 5516TIP3   OH216553   3.654   2.883   3.621
 5516TIP3    H116554   3.631   2.847   3.535
 5516TIP3    H216555   3.570   2.895   3.666
 5517TIP3   OH216556   5.513   5.879   2.670
 5517TIP3    H116557   5.582   5.882   2.604
 5517TIP3    H216558   5.436   5.916   2.627
 5518TIP3   OH216559   5.005   4.334   0.602
 5518TIP3    H116560   4.991   4.386   0.682
 5518TIP3    H216561   4.919   4.330   0.561
 5519TIP3   OH216562   5.156   4.963   2.950
 5519TIP3    H116563   5.130   5.042   2.997
 5519TIP3    H216564   5.074   4.919   2.929
 5520TIP3   OH216565   2.000   1.902   2.409
 5520TIP3    H116566   2.084   1.912   2.364
 5520TIP3    H216567   2.024   1.874   2.497
 5521TIP3   OH216568   5.517   4.158   3.749
 5521TIP3    H116569   5.445   4.133   3.691
 5521TIP3    H216570   5.487   4.238   3.792
 5522TIP3   OH216571   2.638   2.185   3.423
 5522TIP3    H116572   2.646   2.095   3.392
 5522TIP3    H216573   2.577   2.180   3.496
 5523TIP3   OH216574   4.374   4.836   1.848
 5523TIP3    H116575   4.294   4.826   1.798
 5523TIP3    H216576   4.362   4.917   1.897
 5524TIP3   OH216577   4.758   1.842   2.338
 5524TIP3    H116578   4.681   1.879   2.295
 5524TIP3    H216579   4.794   1.781   2.273
 5525TIP3   OH216580   5.691   5.462   4.252
 5525TIP3    H116581   5.783   5.464   4.227
 5525TIP3    H216582   5.693   5.466   4.348
 5526TIP3   OH216583   0.508   1.684   4.075
 5526TIP3    H116584   0.494   1.778   4.085
 5526TIP3    H216585   0.446   1.658   4.007
 5527TIP3   OH216586   5.205   2.931   0.847
 5527TIP3    H116587   5.129   2.986   0.863
 5527TIP3    H216588   5.198   2.861   0.913
 5528TIP3   OH216589   0.077   1.663   4.267
 5528TIP3    H116590   0.157   1.687   4.314
 5528TIP3    H216591   0.108   1.640   4.179
 5529TIP3   OH216592   3.761   3.261   5.079
 5529TIP3    H116593   3.672   3.224   5.080
 5529TIP3    H216594   3.809   3.205   5.019
 5530TIP3   OH216595   5.309   0.855   1.818
 5530TIP3    H116596   5.264   0.889   1.740
 5530TIP3    H216597   5.241   0.852   1.885
 5531TIP3   OH216598   2.723   4.379   3.483
 5531TIP3    H116599   2.637   4.419   3.470
 5531TIP3    H216600   2.761   4.426   3.557
 5532TIP3   OH216601   0.520   5.697   0.392
 5532TIP3    H116602   0.561   5.763   0.334
 5532TIP3    H216603   0.440   5.672   0.346
 5533TIP3   OH216604   1.185   2.094   1.370
 5533TIP3    H116605   1.218   2.177   1.336
 5533TIP3    H216606   1.171   2.040   1.292
 5534TIP3   OH216607   5.803   3.989   3.529
 5534TIP3    H116608   5.806   3.961   3.438
 5534TIP3    H216609   5.723   3.949   3.564
 5535TIP3   OH216610   2.264   0.426   4.811
 5535TIP3    H116611   2.290   0.408   4.901
 5535TIP3    H216612   2.333   0.387   4.757
 5536TIP3   OH216613   3.281   2.721   3.521
 5536TIP3    H116614   3.363   2.742   3.479
 5536TIP3    H216615   3.213   2.746   3.458
 5537TIP3   OH216616   2.073   3.635   4.315
 5537TIP3    H116617   2.107   3.585   4.241
 5537TIP3    H216618   1.982   3.654   4.292
 5538TIP3   OH216619   1.708   4.559   2.825
 5538TIP3    H116620   1.616   4.576   2.847
 5538TIP3    H216621   1.755   4.575   2.907
 5539TIP3   OH216622   3.655   2.242   2.108
 5539TIP3    H116623   3.723   2.181   2.081
 5539TIP3    H216624   3.605   2.259   2.028
 5540TIP3   OH216625   1.933   5.661   4.008
 5540TIP3    H116626   1.985   5.588   3.975
 5540TIP3    H216627   1.853   5.660   3.956
 5541TIP3   OH216628   3.044   4.899   5.025
 5541TIP3    H116629   3.065   4.845   5.101
 5541TIP3    H216630   3.129   4.921   4.987
 5542TIP3   OH216631   3.521   5.261   4.381
 5542TIP3    H116632   3.556   5.292   4.297
 5542TIP3    H216633   3.552   5.326   4.445
 5543TIP3   OH216634   5.921   1.263   1.826
 5543TIP3    H116635   5.944   1.183   1.873
 5543TIP3    H216636   6.004   1.296   1.792
 5544TIP3   OH216637   0.645   3.286   3.508
 5544TIP3    H116638   0.675   3.366   3.466
 5544TIP3    H216639   0.725   3.241   3.535
 5545TIP3   OH216640   0.990   3.334   3.953
 5545TIP3    H116641   1.037   3.259   3.991
 5545TIP3    H216642   0.907   3.337   4.001
 5546TIP3   OH216643   1.758   1.668   4.716
 5546TIP3    H116644   1.832   1.644   4.659
 5546TIP3    H216645   1.680   1.651   4.662
 5547TIP3   OH216646   2.900   4.301   3.284
 5547TIP3    H116647   2.974   4.309   3.343
 5547TIP3    H216648   2.824   4.325   3.338
 5548TIP3   OH216649   3.597   1.962   1.028
 5548TIP3    H116650   3.667   1.916   1.075
 5548TIP3    H216651   3.555   1.894   0.976
 5549TIP3   OH216652   4.980   2.752   3.673
 5549TIP3    H116653   4.981   2.666   3.630
 5549TIP3    H216654   5.068   2.786   3.661
 5550TIP3   OH216655   6.051   1.712   3.242
 5550TIP3    H116656   6.001   1.780   3.286
 5550TIP3    H216657   6.043   1.732   3.149
 5551TIP3   OH216658   0.214   1.950   0.580
 5551TIP3    H116659   0.278   1.900   0.632
 5551TIP3    H216660   0.232   2.041   0.602
 5552TIP3   OH216661   4.973   3.745   4.697
 5552TIP3    H116662   4.975   3.650   4.686
 5552TIP3    H216663   5.025   3.779   4.624
 5553TIP3   OH216664   3.217   3.167   1.170
 5553TIP3    H116665   3.182   3.079   1.187
 5553TIP3    H216666   3.146   3.226   1.192
 5554TIP3   OH216667   5.381   3.086   1.006
 5554TIP3    H116668   5.332   3.046   0.935
 5554TIP3    H216669   5.382   3.180   0.985
 5555TIP3   OH216670   5.469   2.832   3.882
 5555TIP3    H116671   5.504   2.744   3.875
 5555TIP3    H216672   5.389   2.831   3.829
 5556TIP3   OH216673   1.300   1.925   0.395
 5556TIP3    H116674   1.237   1.904   0.464
 5556TIP3    H216675   1.283   2.017   0.375
 5557TIP3   OH216676   3.294   2.134   4.959
 5557TIP3    H116677   3.294   2.114   5.052
 5557TIP3    H216678   3.210   2.178   4.944
 5558TIP3   OH216679   5.538   4.392   2.780
 5558TIP3    H116680   5.565   4.304   2.754
 5558TIP3    H216681   5.503   4.430   2.699
 5559TIP3   OH216682   5.686   3.613   1.296
 5559TIP3    H116683   5.772   3.606   1.337
 5559TIP3    H216684   5.625   3.613   1.369
 5560TIP3   OH216685   5.663   0.022   0.467
 5560TIP3    H116686   5.578  -0.003   0.505
 5560TIP3    H216687   5.685  -0.051   0.410
 5561TIP3   OH216688   0.037   0.514   2.803
 5561TIP3    H116689   0.104   0.475   2.747
 5561TIP3    H216690  -0.032   0.542   2.742
 5562TIP3   OH216691   5.946   1.344   1.473
 5562TIP3    H116692   5.967   1.376   1.386
 5562TIP3    H216693   5.887   1.270   1.458
 5563TIP3   OH216694   6.082   2.689   1.354
 5563TIP3    H116695   6.161   2.701   1.301
 5563TIP3    H216696   6.059   2.777   1.383
 5564TIP3   OH216697   0.832   5.669   2.216
 5564TIP3    H116698   0.800   5.759   2.222
 5564TIP3    H216699   0.848   5.656   2.123
 5565TIP3   OH216700   1.751   5.160   0.306
 5565TIP3    H116701   1.728   5.095   0.372
 5565TIP3    H216702   1.669   5.177   0.260
 5566TIP3   OH216703   3.336   0.076   1.323
 5566TIP3    H116704   3.337   0.089   1.418
 5566TIP3    H216705   3.244   0.066   1.301
 5567TIP3   OH216706   5.126   0.982   2.614
 5567TIP3    H116707   5.050   1.027   2.577
 5567TIP3    H216708   5.202   1.028   2.577
 5568TIP3   OH216709   5.505   3.488   4.985
 5568TIP3    H116710   5.595   3.512   4.962
 5568TIP3    H216711   5.451   3.554   4.942
 5569TIP3   OH216712   4.776   5.354   0.228
 5569TIP3    H116713   4.793   5.279   0.172
 5569TIP3    H216714   4.856   5.406   0.224
 5570TIP3   OH216715   3.676   4.754   2.738
 5570TIP3    H116716   3.604   4.700   2.769
 5570TIP3    H216717   3.747   4.739   2.801
 5571TIP3   OH216718   0.167   5.638   0.676
 5571TIP3    H116719   0.149   5.566   0.615
 5571TIP3    H216720   0.152   5.600   0.763
 5572TIP3   OH216721   2.871   5.887   3.523
 5572TIP3    H116722   2.896   5.951   3.589
 5572TIP3    H216723   2.900   5.924   3.441
 5573TIP3   OH216724   4.409   3.326   0.969
 5573TIP3    H116725   4.472   3.331   0.897
 5573TIP3    H216726   4.328   3.363   0.932
 5574TIP3   OH216727   1.883   2.347   3.023
 5574TIP3    H116728   1.928   2.343   3.107
 5574TIP3    H216729   1.824   2.272   3.023
 5575TIP3   OH216730   3.020   0.901   2.815
 5575TIP3    H116731   3.016   0.994   2.792
 5575TIP3    H216732   3.092   0.867   2.762
 5576TIP3   OH216733   6.315   0.973   1.406
 5576TIP3    H116734   6.240   0.983   1.347
 5576TIP3    H216735   6.332   1.062   1.437
 5577TIP3   OH216736   5.877   4.274   0.624
 5577TIP3    H116737   5.914   4.347   0.674
 5577TIP3    H216738   5.909   4.289   0.535
 5578TIP3   OH216739   5.860   2.002   2.216
 5578TIP3    H116740   5.831   2.068   2.153
 5578TIP3    H216741   5.908   1.938   2.164
 5579TIP3   OH216742   2.598   5.087   0.980
 5579TIP3    H116743   2.584   5.165   1.034
 5579TIP3    H216744   2.512   5.046   0.974
 5580TIP3   OH216745   0.271   4.942   5.019
 5580TIP3    H116746   0.191   4.987   4.993
 5580TIP3    H216747   0.321   5.008   5.067
 5581TIP3   OH216748   0.315   2.446   4.518
 5581TIP3    H116749   0.322   2.511   4.588
 5581TIP3    H216750   0.237   2.395   4.541
 5582TIP3   OH216751   4.680   2.067   5.108
 5582TIP3    H116752   4.738   2.054   5.183
 5582TIP3    H216753   4.702   2.155   5.076
 5583TIP3   OH216754   2.531   2.069   2.518
 5583TIP3    H116755   2.464   2.040   2.580
 5583TIP3    H216756   2.508   2.160   2.499
 5584TIP3   OH216757   5.253   1.330   0.166
 5584TIP3    H116758   5.184   1.263   0.160
 5584TIP3    H216759   5.216   1.406   0.121
 5585TIP3   OH216760   5.565   5.239   4.974
 5585TIP3    H116761   5.639   5.226   5.034
 5585TIP3    H216762   5.602   5.288   4.901
 5586TIP3   OH216763   1.803   2.115   2.050
 5586TIP3    H116764   1.714   2.080   2.047
 5586TIP3    H216765   1.818   2.136   2.142
 5587TIP3   OH216766   4.915   1.043   1.924
 5587TIP3    H116767   4.965   0.963   1.939
 5587TIP3    H216768   4.830   1.013   1.891
 5588TIP3   OH216769   3.637   5.824   0.283
 5588TIP3    H116770   3.637   5.736   0.322
 5588TIP3    H216771   3.643   5.808   0.189
 5589TIP3   OH216772   3.638   3.162   1.229
 5589TIP3    H116773   3.609   3.071   1.228
 5589TIP3    H216774   3.559   3.213   1.215
 5590TIP3   OH216775   2.537   5.676   2.562
 5590TIP3    H116776   2.503   5.586   2.561
 5590TIP3    H216777   2.475   5.725   2.508
 5591TIP3   OH216778   3.266   0.783   4.611
 5591TIP3    H116779   3.347   0.760   4.565
 5591TIP3    H216780   3.294   0.795   4.702
 5592TIP3   OH216781   4.312   1.729   4.185
 5592TIP3    H116782   4.365   1.661   4.226
 5592TIP3    H216783   4.270   1.685   4.111
 5593TIP3   OH216784   2.667   5.752   4.748
 5593TIP3    H116785   2.674   5.845   4.727
 5593TIP3    H216786   2.574   5.739   4.767
 5594TIP3   OH216787   0.882   4.924   1.877
 5594TIP3    H116788   0.787   4.931   1.867
 5594TIP3    H216789   0.897   4.933   1.971
 5595TIP3   OH216790   1.556   1.261   5.118
 5595TIP3    H116791   1.515   1.269   5.032
 5595TIP3    H216792   1.578   1.168   5.126
 5596TIP3   OH216793   5.358   4.627   3.682
 5596TIP3    H116794   5.388   4.643   3.593
 5596TIP3    H216795   5.428   4.661   3.738
 5597TIP3   OH216796   6.309   2.744   1.585
 5597TIP3    H116797   6.323   2.734   1.491
 5597TIP3    H216798   6.243   2.814   1.591
 5598TIP3   OH216799   6.202   5.297   2.276
 5598TIP3    H116800   6.138   5.352   2.229
 5598TIP3    H216801   6.171   5.208   2.261
 5599TIP3   OH216802   2.633   5.663   1.687
 5599TIP3    H116803   2.567   5.676   1.619
 5599TIP3    H216804   2.583   5.640   1.765
 5600TIP3   OH216805   1.244   3.460   0.879
 5600TIP3    H116806   1.320   3.412   0.846
 5600TIP3    H216807   1.169   3.412   0.844
 5601TIP3   OH216808   1.619   0.720   1.788
 5601TIP3    H116809   1.623   0.751   1.697
 5601TIP3    H216810   1.652   0.630   1.783
 5602TIP3   OH216811   2.194   1.437   5.193
 5602TIP3    H116812   2.194   1.469   5.103
 5602TIP3    H216813   2.197   1.516   5.247
 5603TIP3   OH216814   3.507   4.800   0.963
 5603TIP3    H116815   3.554   4.881   0.985
 5603TIP3    H216816   3.453   4.824   0.887
 5604TIP3   OH216817   6.143   0.716   4.473
 5604TIP3    H116818   6.105   0.690   4.556
 5604TIP3    H216819   6.086   0.676   4.407
 5605TIP3   OH216820   3.545   3.733   0.915
 5605TIP3    H116821   3.491   3.681   0.854
 5605TIP3    H216822   3.579   3.669   0.977
 5606TIP3   OH216823   4.436   3.174   0.044
 5606TIP3    H116824   4.501   3.144  -0.019
 5606TIP3    H216825   4.395   3.250   0.002
 5607TIP3   OH216826   0.667   4.033   1.302
 5607TIP3    H116827   0.651   4.062   1.212
 5607TIP3    H216828   0.730   3.961   1.293
 5608TIP3   OH216829   2.355   0.806   1.133
 5608TIP3    H116830   2.291   0.820   1.063
 5608TIP3    H216831   2.311   0.749   1.195
 5609TIP3   OH216832   5.482   0.852   2.176
 5609TIP3    H116833   5.467   0.758   2.178
 5609TIP3    H216834   5.482   0.879   2.268
 5610TIP3   OH216835   4.972   4.767   3.520
 5610TIP3    H116836   4.881   4.789   3.540
 5610TIP3    H216837   4.996   4.824   3.447
 5611TIP3   OH216838   3.268   3.783   2.275
 5611TIP3    H116839   3.224   3.826   2.201
 5611TIP3    H216840   3.233   3.828   2.352
 5612TIP3   OH216841   4.204   5.431   1.724
 5612TIP3    H116842   4.158   5.480   1.657
 5612TIP3    H216843   4.296   5.458   1.715
 5613TIP3   OH216844   2.031   1.117   3.699
 5613TIP3    H116845   1.940   1.100   3.674
 5613TIP3    H216846   2.044   1.210   3.683
 5614TIP3   OH216847   0.711   0.642   4.792
 5614TIP3    H116848   0.791   0.612   4.836
 5614TIP3    H216849   0.656   0.564   4.785
 5615TIP3   OH216850   4.255   5.190   0.578
 5615TIP3    H116851   4.342   5.223   0.556
 5615TIP3    H216852   4.210   5.264   0.618
 5616TIP3   OH216853   4.132   1.974   1.644
 5616TIP3    H116854   4.130   1.962   1.739
 5616TIP3    H216855   4.112   1.887   1.609
 5617TIP3   OH216856   4.420   4.473   1.443
 5617TIP3    H116857   4.381   4.473   1.530
 5617TIP3    H216858   4.514   4.480   1.459
 5618TIP3   OH216859   5.543   5.426   0.411
 5618TIP3    H116860   5.554   5.521   0.418
 5618TIP3    H216861   5.496   5.401   0.490
 5619TIP3   OH216862   6.078   0.987   1.224
 5619TIP3    H116863   6.110   0.926   1.158
 5619TIP3    H216864   6.008   0.940   1.269
 5620TIP3   OH216865   4.332   1.524   3.753
 5620TIP3    H116866   4.400   1.522   3.821
 5620TIP3    H216867   4.250   1.537   3.801
 5621TIP3   OH216868   1.561   2.319   3.858
 5621TIP3    H116869   1.515   2.387   3.907
 5621TIP3    H216870   1.652   2.348   3.854
 5622TIP3   OH216871   3.621   1.655   1.710
 5622TIP3    H116872   3.714   1.642   1.692
 5622TIP3    H216873   3.597   1.580   1.766
 5623TIP3   OH216874   5.992   5.538   2.795
 5623TIP3    H116875   6.041   5.610   2.755
 5623TIP3    H216876   5.905   5.574   2.812
 5624TIP3   OH216877   6.217   5.005   4.829
 5624TIP3    H116878   6.248   4.916   4.842
 5624TIP3    H216879   6.271   5.059   4.886
 5625TIP3   OH216880   2.262   3.436   2.156
 5625TIP3    H116881   2.285   3.343   2.156
 5625TIP3    H216882   2.172   3.439   2.125
 5626TIP3   OH216883   4.159   4.424   3.972
 5626TIP3    H116884   4.142   4.506   4.016
 5626TIP3    H216885   4.219   4.447   3.901
 5627TIP3   OH216886   3.494   1.185   3.847
 5627TIP3    H116887   3.573   1.197   3.901
 5627TIP3    H216888   3.431   1.144   3.906
 5628TIP3   OH216889   2.730   1.754   0.684
 5628TIP3    H116890   2.659   1.733   0.624
 5628TIP3    H216891   2.808   1.713   0.646
 5629TIP3   OH216892   4.151   2.004   0.350
 5629TIP3    H116893   4.208   1.939   0.309
 5629TIP3    H216894   4.105   1.955   0.418
 5630TIP3   OH216895   5.021   1.135   3.276
 5630TIP3    H116896   4.976   1.082   3.211
 5630TIP3    H216897   4.982   1.222   3.268
 5631TIP3   OH216898   4.676   5.023   3.028
 5631TIP3    H116899   4.585   5.049   3.012
 5631TIP3    H216900   4.725   5.106   3.027
 5632TIP3   OH216901   1.676   2.789   1.226
 5632TIP3    H116902   1.755   2.832   1.194
 5632TIP3    H216903   1.605   2.849   1.203
 5633TIP3   OH216904   0.051   6.014   4.707
 5633TIP3    H116905   0.105   5.997   4.630
 5633TIP3    H216906  -0.005   5.936   4.714
 5634TIP3   OH216907   4.153   5.665   4.241
 5634TIP3    H116908   4.137   5.571   4.233
 5634TIP3    H216909   4.110   5.689   4.323
 5635TIP3   OH216910   1.256   2.360   3.590
 5635TIP3    H116911   1.241   2.405   3.507
 5635TIP3    H216912   1.179   2.304   3.600
 5636TIP3   OH216913   5.274   5.712   1.403
 5636TIP3    H116914   5.235   5.685   1.320
 5636TIP3    H216915   5.216   5.676   1.470
 5637TIP3   OH216916   6.345   2.756   4.589
 5637TIP3    H116917   6.291   2.821   4.634
 5637TIP3    H216918   6.308   2.751   4.501
 5638TIP3   OH216919   1.858   1.890   1.517
 5638TIP3    H116920   1.769   1.869   1.547
 5638TIP3    H216921   1.915   1.839   1.574
 5639TIP3   OH216922   2.682   1.518   0.506
 5639TIP3    H116923   2.613   1.578   0.533
 5639TIP3    H216924   2.684   1.451   0.574
 5640TIP3   OH216925   5.477   2.426   3.664
 5640TIP3    H116926   5.506   2.432   3.573
 5640TIP3    H216927   5.438   2.512   3.682
 5641TIP3   OH216928   3.710   1.314   1.389
 5641TIP3    H116929   3.655   1.311   1.310
 5641TIP3    H216930   3.725   1.408   1.402
 5642TIP3   OH216931   1.665   3.052   5.083
 5642TIP3    H116932   1.600   3.094   5.139
 5642TIP3    H216933   1.665   3.104   5.003
 5643TIP3   OH216934   3.827   4.546   4.360
 5643TIP3    H116935   3.834   4.581   4.449
 5643TIP3    H216936   3.749   4.588   4.324
 5644TIP3   OH216937   4.502   1.313   2.410
 5644TIP3    H116938   4.430   1.251   2.418
 5644TIP3    H216939   4.544   1.314   2.496
 5645TIP3   OH216940   4.643   0.422   2.997
 5645TIP3    H116941   4.631   0.332   3.029
 5645TIP3    H216942   4.618   0.477   3.070
 5646TIP3   OH216943   5.808   5.297   4.027
 5646TIP3    H116944   5.847   5.240   4.093
 5646TIP3    H216945   5.821   5.385   4.062
 5647TIP3   OH216946   5.374   1.053   4.719
 5647TIP3    H116947   5.442   0.995   4.685
 5647TIP3    H216948   5.418   1.104   4.787
 5648TIP3   OH216949   1.370   3.106   4.681
 5648TIP3    H116950   1.316   3.043   4.633
 5648TIP3    H216951   1.402   3.058   4.757
 5649TIP3   OH216952   4.338   0.864   2.787
 5649TIP3    H116953   4.376   0.894   2.870
 5649TIP3    H216954   4.260   0.917   2.776
 5650TIP3   OH216955   5.579   5.746   3.620
 5650TIP3    H116956   5.547   5.824   3.574
 5650TIP3    H216957   5.631   5.780   3.692
 5651TIP3   OH216958   4.697   4.073   1.870
 5651TIP3    H116959   4.750   4.144   1.909
 5651TIP3    H216960   4.607   4.094   1.895
 5652TIP3   OH216961   2.347   2.902   1.137
 5652TIP3    H116962   2.264   2.938   1.107
 5652TIP3    H216963   2.324   2.844   1.210
 5653TIP3   OH216964   1.943   0.609   4.124
 5653TIP3    H116965   1.937   0.608   4.028
 5653TIP3    H216966   2.018   0.553   4.144
 5654TIP3   OH216967   1.680   1.282   4.427
 5654TIP3    H116968   1.730   1.205   4.400
 5654TIP3    H216969   1.588   1.256   4.418
 5655TIP3   OH216970   1.292   0.968   1.642
 5655TIP3    H116971   1.288   0.873   1.636
 5655TIP3    H216972   1.259   0.999   1.557
 5656TIP3   OH216973   1.853   1.165   5.128
 5656TIP3    H116974   1.879   1.203   5.044
 5656TIP3    H216975   1.932   1.121   5.159
 5657TIP3   OH216976   3.426   5.857   1.589
 5657TIP3    H116977   3.389   5.770   1.600
 5657TIP3    H216978   3.414   5.878   1.497
 5658TIP3   OH216979   3.389   5.269   5.132
 5658TIP3    H116980   3.382   5.321   5.212
 5658TIP3    H216981   3.335   5.316   5.068
 5659TIP3   OH216982   4.556   5.829   0.129
 5659TIP3    H116983   4.503   5.903   0.098
 5659TIP3    H216984   4.492   5.766   0.163
 5660TIP3   OH216985   2.062   2.766   3.749
 5660TIP3    H116986   2.101   2.702   3.689
 5660TIP3    H216987   1.968   2.751   3.741
 5661TIP3   OH216988   5.827   5.626   3.899
 5661TIP3    H116989   5.887   5.564   3.859
 5661TIP3    H216990   5.749   5.624   3.843
 5662TIP3   OH216991   4.020   2.782   1.510
 5662TIP3    H116992   4.041   2.869   1.543
 5662TIP3    H216993   4.079   2.770   1.435
 5663TIP3   OH216994   4.142   0.369   1.307
 5663TIP3    H116995   4.142   0.348   1.400
 5663TIP3    H216996   4.156   0.284   1.264
 5664TIP3   OH216997   3.050   3.207   2.244
 5664TIP3    H116998   3.081   3.149   2.175
 5664TIP3    H216999   2.962   3.232   2.217
 5665TIP3   OH217000   6.207   3.274   3.401
 5665TIP3    H117001   6.189   3.188   3.363
 5665TIP3    H217002   6.155   3.277   3.481
 5666TIP3   OH217003   4.957   3.241   4.784
 5666TIP3    H117004   5.013   3.166   4.801
 5666TIP3    H217005   4.997   3.312   4.835
 5667TIP3   OH217006   0.299   0.790   0.566
 5667TIP3    H117007   0.265   0.879   0.570
 5667TIP3    H217008   0.268   0.756   0.482
 5668TIP3   OH217009   4.808   5.099   0.127
 5668TIP3    H117010   4.776   5.015   0.095
 5668TIP3    H217011   4.901   5.085   0.145
 5669TIP3   OH217012   3.132   5.215   4.147
 5669TIP3    H117013   3.083   5.138   4.175
 5669TIP3    H217014   3.110   5.282   4.212
 5670TIP3   OH217015   4.066   2.613   3.919
 5670TIP3    H117016   4.083   2.666   3.997
 5670TIP3    H217017   3.995   2.658   3.874
 5671TIP3   OH217018   2.121   3.175   3.307
 5671TIP3    H117019   2.099   3.087   3.277
 5671TIP3    H217020   2.165   3.215   3.232
 5672TIP3   OH217021   0.467   0.511   3.483
 5672TIP3    H117022   0.507   0.491   3.399
 5672TIP3    H217023   0.440   0.426   3.518
 5673TIP3   OH217024   0.047   1.488   4.569
 5673TIP3    H117025   0.121   1.544   4.543
 5673TIP3    H217026   0.044   1.496   4.664
 5674TIP3   OH217027   5.392   1.760   4.249
 5674TIP3    H117028   5.350   1.675   4.236
 5674TIP3    H217029   5.384   1.778   4.342
 5675TIP3   OH217030   0.411   4.906   4.497
 5675TIP3    H117031   0.422   4.997   4.468
 5675TIP3    H217032   0.499   4.868   4.490
 5676TIP3   OH217033   1.219   2.980   1.901
 5676TIP3    H117034   1.262   2.900   1.932
 5676TIP3    H217035   1.166   3.009   1.975
 5677TIP3   OH217036   3.008   5.366   3.259
 5677TIP3    H117037   2.926   5.393   3.301
 5677TIP3    H217038   3.026   5.279   3.295
 5678TIP3   OH217039   1.664   3.119   4.796
 5678TIP3    H117040   1.719   3.197   4.807
 5678TIP3    H217041   1.662   3.104   4.701
 5679TIP3   OH217042   5.951   4.179   1.205
 5679TIP3    H117043   5.883   4.113   1.217
 5679TIP3    H217044   5.903   4.260   1.185
 5680TIP3   OH217045   3.134   5.568   4.540
 5680TIP3    H117046   3.177   5.642   4.583
 5680TIP3    H217047   3.042   5.594   4.534
 5681TIP3   OH217048   1.441   3.698   4.904
 5681TIP3    H117049   1.428   3.637   4.831
 5681TIP3    H217050   1.533   3.723   4.898
 5682TIP3   OH217051   2.679   1.049   1.612
 5682TIP3    H117052   2.681   1.143   1.633
 5682TIP3    H217053   2.677   1.047   1.516
 5683TIP3   OH217054   1.535   0.257   1.617
 5683TIP3    H117055   1.481   0.324   1.659
 5683TIP3    H217056   1.531   0.277   1.524
 5684TIP3   OH217057   2.399   3.743   0.430
 5684TIP3    H117058   2.407   3.724   0.337
 5684TIP3    H217059   2.478   3.792   0.452
 5685TIP3   OH217060   2.856   0.164   3.215
 5685TIP3    H117061   2.805   0.241   3.240
 5685TIP3    H217062   2.793   0.092   3.219
 5686TIP3   OH217063   5.922   0.968   3.284
 5686TIP3    H117064   5.924   0.909   3.358
 5686TIP3    H217065   6.012   1.002   3.277
 5687TIP3   OH217066   0.921   2.404   4.876
 5687TIP3    H117067   0.994   2.463   4.890
 5687TIP3    H217068   0.960   2.327   4.834
 5688TIP3   OH217069   1.837   3.168   2.127
 5688TIP3    H117070   1.865   3.239   2.070
 5688TIP3    H217071   1.855   3.199   2.216
 5689TIP3   OH217072   4.154   2.678   3.262
 5689TIP3    H117073   4.062   2.697   3.280
 5689TIP3    H217074   4.156   2.653   3.169
 5690TIP3   OH217075   2.439   1.410   3.471
 5690TIP3    H117076   2.369   1.350   3.446
 5690TIP3    H217077   2.504   1.402   3.402
 5691TIP3   OH217078   1.439   0.196   0.115
 5691TIP3    H117079   1.356   0.206   0.162
 5691TIP3    H217080   1.460   0.103   0.123
 5692TIP3   OH217081   0.072   4.598   4.683
 5692TIP3    H117082   0.156   4.629   4.717
 5692TIP3    H217083   0.093   4.517   4.637
 5693TIP3   OH217084   1.089   3.084   4.206
 5693TIP3    H117085   1.074   3.018   4.139
 5693TIP3    H217086   1.175   3.121   4.186
 5694TIP3   OH217087   5.130   3.595   3.245
 5694TIP3    H117088   5.072   3.662   3.207
 5694TIP3    H217089   5.210   3.642   3.266
 5695TIP3   OH217090   4.326   2.295   2.247
 5695TIP3    H117091   4.283   2.362   2.300
 5695TIP3    H217092   4.260   2.270   2.182
 5696TIP3   OH217093   4.162   4.122   2.681
 5696TIP3    H117094   4.068   4.121   2.697
 5696TIP3    H217095   4.200   4.135   2.768
 5697TIP3   OH217096   1.305   5.944   2.298
 5697TIP3    H117097   1.255   5.864   2.287
 5697TIP3    H217098   1.336   5.941   2.389
 5698TIP3   OH217099   4.340   3.805   0.537
 5698TIP3    H117100   4.365   3.734   0.478
 5698TIP3    H217101   4.413   3.812   0.599
 5699TIP3   OH217102   2.220   3.281   0.565
 5699TIP3    H117103   2.295   3.340   0.571
 5699TIP3    H217104   2.240   3.225   0.489
 5700TIP3   OH217105   1.858   5.838   3.003
 5700TIP3    H117106   1.897   5.769   3.058
 5700TIP3    H217107   1.900   5.827   2.918
 5701TIP3   OH217108   3.649   3.059   0.927
 5701TIP3    H117109   3.609   3.002   0.993
 5701TIP3    H217110   3.637   3.012   0.844
 5702TIP3   OH217111   6.219   2.989   2.686
 5702TIP3    H117112   6.199   3.029   2.601
 5702TIP3    H217113   6.313   2.971   2.682
 5703TIP3   OH217114   1.769   5.458   2.394
 5703TIP3    H117115   1.737   5.374   2.428
 5703TIP3    H217116   1.714   5.475   2.317
 5704TIP3   OH217117   0.791   4.040   1.862
 5704TIP3    H117118   0.797   3.995   1.777
 5704TIP3    H217119   0.798   3.970   1.927
 5705TIP3   OH217120   6.069   1.222   5.123
 5705TIP3    H117121   6.161   1.196   5.126
 5705TIP3    H217122   6.052   1.262   5.208
 5706TIP3   OH217123   1.337   0.346   3.417
 5706TIP3    H117124   1.304   0.376   3.332
 5706TIP3    H217125   1.266   0.365   3.478
 5707TIP3   OH217126   5.902   4.180   2.358
 5707TIP3    H117127   5.911   4.239   2.433
 5707TIP3    H217128   5.979   4.199   2.304
 5708TIP3   OH217129   6.341   2.226   0.079
 5708TIP3    H117130   6.363   2.213  -0.013
 5708TIP3    H217131   6.274   2.160   0.097
 5709TIP3   OH217132   2.451   1.808   1.098
 5709TIP3    H117133   2.442   1.720   1.134
 5709TIP3    H217134   2.397   1.863   1.154
 5710TIP3   OH217135   2.779   1.187   4.303
 5710TIP3    H117136   2.805   1.203   4.212
 5710TIP3    H217137   2.694   1.143   4.296
 5711TIP3   OH217138   3.890   3.567   4.839
 5711TIP3    H117139   3.985   3.561   4.828
 5711TIP3    H217140   3.855   3.492   4.792
 5712TIP3   OH217141   5.916   2.274   0.986
 5712TIP3    H117142   5.947   2.348   1.039
 5712TIP3    H217143   5.847   2.234   1.038
 5713TIP3   OH217144   2.684   1.756   3.696
 5713TIP3    H117145   2.772   1.728   3.720
 5713TIP3    H217146   2.670   1.720   3.609
 5714TIP3   OH217147   0.665   4.728   3.891
 5714TIP3    H117148   0.621   4.652   3.928
 5714TIP3    H217149   0.729   4.691   3.830
 5715TIP3   OH217150   4.973   1.950   1.163
 5715TIP3    H117151   5.065   1.925   1.149
 5715TIP3    H217152   4.978   2.038   1.202
 5716TIP3   OH217153   5.651   5.205   1.983
 5716TIP3    H117154   5.706   5.183   2.058
 5716TIP3    H217155   5.614   5.290   2.005
 5717TIP3   OH217156   1.116   2.206   4.301
 5717TIP3    H117157   1.072   2.280   4.344
 5717TIP3    H217158   1.188   2.184   4.360
 5718TIP3   OH217159   1.323   2.084   2.347
 5718TIP3    H117160   1.345   2.166   2.303
 5718TIP3    H217161   1.231   2.095   2.373
 5719TIP3   OH217162   5.533   0.263   2.195
 5719TIP3    H117163   5.493   0.307   2.120
 5719TIP3    H217164   5.465   0.265   2.263
 5720TIP3   OH217165   2.204   1.950   3.705
 5720TIP3    H117166   2.277   1.932   3.647
 5720TIP3    H217167   2.126   1.940   3.650
 5721TIP3   OH217168   4.303   3.909   4.953
 5721TIP3    H117169   4.270   3.863   5.030
 5721TIP3    H217170   4.397   3.892   4.952
 5722TIP3   OH217171   1.820   1.748   3.041
 5722TIP3    H117172   1.753   1.733   3.107
 5722TIP3    H217173   1.811   1.673   2.981
 5723TIP3   OH217174   4.218   0.016   0.112
 5723TIP3    H117175   4.239   0.100   0.152
 5723TIP3    H217176   4.278  -0.046   0.153
 5724TIP3   OH217177   0.819   2.909   5.084
 5724TIP3    H117178   0.882   2.845   5.116
 5724TIP3    H217179   0.855   2.938   5.000
 5725TIP3   OH217180   1.372   5.603   0.260
 5725TIP3    H117181   1.302   5.668   0.252
 5725TIP3    H217182   1.385   5.592   0.354
 5726TIP3   OH217183   0.466   5.450   0.048
 5726TIP3    H117184   0.394   5.457  -0.015
 5726TIP3    H217185   0.519   5.377   0.016
 5727TIP3   OH217186   5.041   2.825   2.574
 5727TIP3    H117187   5.038   2.747   2.629
 5727TIP3    H217188   5.097   2.800   2.500
 5728TIP3   OH217189   5.296   0.544   3.790
 5728TIP3    H117190   5.229   0.563   3.856
 5728TIP3    H217191   5.379   0.552   3.838
 5729TIP3   OH217192   0.294   1.199  -0.012
 5729TIP3    H117193   0.377   1.229  -0.048
 5729TIP3    H217194   0.315   1.114   0.028
 5730TIP3   OH217195   0.664   0.958   0.060
 5730TIP3    H117196   0.740   0.916   0.100
 5730TIP3    H217197   0.589   0.909   0.093
 5731TIP3   OH217198   0.520   1.511   0.101
 5731TIP3    H117199   0.582   1.583   0.105
 5731TIP3    H217200   0.441   1.544   0.142
 5732TIP3   OH217201   0.131   3.583   1.533
 5732TIP3    H117202   0.063   3.649   1.523
 5732TIP3    H217203   0.171   3.576   1.446
 5733TIP3   OH217204   5.991   0.874   4.244
 5733TIP3    H117205   5.952   0.950   4.287
 5733TIP3    H217206   6.071   0.907   4.203
 5734TIP3   OH217207   4.802   1.059   0.060
 5734TIP3    H117208   4.729   1.121   0.060
 5734TIP3    H217209   4.819   1.043  -0.033
 5735TIP3   OH217210   5.135   4.611   1.201
 5735TIP3    H117211   5.179   4.616   1.286
 5735TIP3    H217212   5.090   4.527   1.203
 5736TIP3   OH217213   5.137   3.664   5.128
 5736TIP3    H117214   5.185   3.737   5.168
 5736TIP3    H217215   5.069   3.706   5.076
 5737TIP3   OH217216   2.281   3.434   3.404
 5737TIP3    H117217   2.204   3.489   3.392
 5737TIP3    H217218   2.262   3.382   3.483
 5738TIP3   OH217219   5.843   5.014   3.731
 5738TIP3    H117220   5.798   5.095   3.753
 5738TIP3    H217221   5.843   4.963   3.812
 5739TIP3   OH217222   2.243   3.237   4.138
 5739TIP3    H117223   2.172   3.224   4.075
 5739TIP3    H217224   2.224   3.174   4.208
 5740TIP3   OH217225   6.275   5.760   0.389
 5740TIP3    H117226   6.360   5.804   0.388
 5740TIP3    H217227   6.254   5.750   0.482
 5741TIP3   OH217228   3.591   1.513   0.120
 5741TIP3    H117229   3.586   1.474   0.207
 5741TIP3    H217230   3.521   1.578   0.118
 5742TIP3   OH217231   4.021   0.896   2.992
 5742TIP3    H117232   4.071   0.869   3.069
 5742TIP3    H217233   4.042   0.830   2.926
 5743TIP3   OH217234   1.514   3.933   3.425
 5743TIP3    H117235   1.487   4.013   3.469
 5743TIP3    H217236   1.609   3.929   3.438
 5744TIP3   OH217237   0.363   4.710   4.063
 5744TIP3    H117238   0.330   4.628   4.026
 5744TIP3    H217239   0.298   4.735   4.128
 5745TIP3   OH217240   1.079   1.932   2.302
 5745TIP3    H117241   1.165   1.902   2.330
 5745TIP3    H217242   1.033   1.953   2.383
 5746TIP3   OH217243   4.045   4.797   4.665
 5746TIP3    H117244   3.969   4.851   4.688
 5746TIP3    H217245   4.076   4.762   4.749
 5747TIP3   OH217246   2.078   0.211   0.458
 5747TIP3    H117247   2.031   0.293   0.444
 5747TIP3    H217248   2.015   0.154   0.503
 5748TIP3   OH217249   2.558   1.225   0.971
 5748TIP3    H117250   2.474   1.258   1.003
 5748TIP3    H217251   2.557   1.131   0.992
 5749TIP3   OH217252   0.949   1.608   1.611
 5749TIP3    H117253   0.943   1.570   1.523
 5749TIP3    H217254   0.875   1.569   1.659
 5750TIP3   OH217255   2.481   5.591   3.533
 5750TIP3    H117256   2.522   5.654   3.474
 5750TIP3    H217257   2.403   5.561   3.486
 5751TIP3   OH217258   5.353   1.572   0.946
 5751TIP3    H117259   5.366   1.477   0.936
 5751TIP3    H217260   5.415   1.597   1.015
 5752TIP3   OH217261   1.768   0.721   4.296
 5752TIP3    H117262   1.809   0.808   4.303
 5752TIP3    H217263   1.834   0.668   4.251
 5753TIP3   OH217264   0.284   1.607   4.462
 5753TIP3    H117265   0.371   1.570   4.447
 5753TIP3    H217266   0.281   1.685   4.407
 5754TIP3   OH217267   2.945   5.651   0.258
 5754TIP3    H117268   2.984   5.583   0.312
 5754TIP3    H217269   2.897   5.706   0.320
 5755TIP3   OH217270   5.286   0.789   1.356
 5755TIP3    H117271   5.240   0.747   1.283
 5755TIP3    H217272   5.378   0.764   1.344
 5756TIP3   OH217273   3.610   2.522   1.727
 5756TIP3    H117274   3.646   2.512   1.639
 5756TIP3    H217275   3.640   2.608   1.756
 5757TIP3   OH217276   1.141   2.489   2.286
 5757TIP3    H117277   1.122   2.419   2.348
 5757TIP3    H217278   1.073   2.482   2.220
 5758TIP3   OH217279   0.437   0.257   0.248
 5758TIP3    H117280   0.484   0.301   0.177
 5758TIP3    H217281   0.363   0.216   0.204
 5759TIP3   OH217282   4.142   0.412   2.680
 5759TIP3    H117283   4.224   0.385   2.639
 5759TIP3    H217284   4.080   0.421   2.607
 5760TIP3   OH217285   5.801   5.361   3.542
 5760TIP3    H117286   5.759   5.315   3.614
 5760TIP3    H217287   5.735   5.424   3.512
 5761TIP3   OH217288   5.325   0.752   3.325
 5761TIP3    H117289   5.346   0.758   3.232
 5761TIP3    H217290   5.396   0.798   3.369
 5762TIP3   OH217291   4.543   4.684   5.062
 5762TIP3    H117292   4.459   4.730   5.054
 5762TIP3    H217293   4.533   4.628   5.139
 5763TIP3   OH217294   2.721   2.999   4.940
 5763TIP3    H117295   2.805   3.020   4.899
 5763TIP3    H217296   2.670   3.080   4.934
 5764TIP3   OH217297   4.292   3.372   1.650
 5764TIP3    H117298   4.336   3.326   1.578
 5764TIP3    H217299   4.305   3.315   1.726
 5765TIP3   OH217300   2.022   1.282   1.749
 5765TIP3    H117301   2.033   1.192   1.781
 5765TIP3    H217302   1.976   1.327   1.820
 5766TIP3   OH217303   5.245   3.841   2.990
 5766TIP3    H117304   5.306   3.887   3.046
 5766TIP3    H217305   5.159   3.863   3.024
 5767TIP3   OH217306   1.781   4.292   1.618
 5767TIP3    H117307   1.764   4.270   1.526
 5767TIP3    H217308   1.723   4.366   1.636
 5768TIP3   OH217309   2.289   2.749   1.336
 5768TIP3    H117310   2.340   2.724   1.413
 5768TIP3    H217311   2.244   2.668   1.311
 5769TIP3   OH217312   5.534   1.000   1.859
 5769TIP3    H117313   5.468   0.936   1.885
 5769TIP3    H217314   5.618   0.960   1.883
 5770TIP3   OH217315   4.034   3.052   0.988
 5770TIP3    H117316   4.010   2.976   0.936
 5770TIP3    H217317   3.970   3.119   0.964
 5771TIP3   OH217318   1.452   5.733   2.011
 5771TIP3    H117319   1.390   5.672   2.052
 5771TIP3    H217320   1.497   5.774   2.085
 5772TIP3   OH217321   3.906   2.940   3.108
 5772TIP3    H117322   3.991   2.921   3.069
 5772TIP3    H217323   3.894   2.870   3.172
 5773TIP3   OH217324   1.220   2.020   2.813
 5773TIP3    H117325   1.255   2.052   2.897
 5773TIP3    H217326   1.126   2.013   2.828
 5774TIP3   OH217327   1.524   0.141   3.312
 5774TIP3    H117328   1.447   0.192   3.338
 5774TIP3    H217329   1.503   0.051   3.336
 5775TIP3   OH217330   3.272   3.635   0.233
 5775TIP3    H117331   3.290   3.680   0.316
 5775TIP3    H217332   3.356   3.635   0.188
 5776TIP3   OH217333   6.137   5.030   3.225
 5776TIP3    H117334   6.075   5.095   3.260
 5776TIP3    H217335   6.168   4.983   3.302
 5777TIP3   OH217336   2.904   3.626   2.841
 5777TIP3    H117337   2.830   3.688   2.838
 5777TIP3    H217338   2.982   3.681   2.830
 5778TIP3   OH217339   5.203   4.746   3.138
 5778TIP3    H117340   5.194   4.807   3.065
 5778TIP3    H217341   5.283   4.697   3.118
 5779TIP3   OH217342   4.933   0.484   1.984
 5779TIP3    H117343   4.948   0.457   1.893
 5779TIP3    H217344   4.922   0.402   2.031
 5780TIP3   OH217345   5.761   5.870   5.068
 5780TIP3    H117346   5.729   5.787   5.033
 5780TIP3    H217347   5.767   5.927   4.991
 5781TIP3   OH217348   5.779   5.095   4.756
 5781TIP3    H117349   5.824   5.063   4.835
 5781TIP3    H217350   5.764   5.188   4.774
 5782TIP3   OH217351   5.615   3.724   2.551
 5782TIP3    H117352   5.693   3.780   2.550
 5782TIP3    H217353   5.565   3.751   2.473
 5783TIP3   OH217354   3.159   0.915   2.438
 5783TIP3    H117355   3.169   0.840   2.380
 5783TIP3    H217356   3.133   0.987   2.381
 5784TIP3   OH217357   2.908   2.407   1.787
 5784TIP3    H117358   2.926   2.352   1.710
 5784TIP3    H217359   2.990   2.406   1.837
 5785TIP3   OH217360   0.667   2.357   0.426
 5785TIP3    H117361   0.750   2.387   0.463
 5785TIP3    H217362   0.676   2.262   0.422
 5786TIP3   OH217363   1.319   5.436   0.761
 5786TIP3    H117364   1.362   5.412   0.843
 5786TIP3    H217365   1.228   5.412   0.774
 5787TIP3   OH217366   2.052   1.752   0.368
 5787TIP3    H117367   2.013   1.789   0.447
 5787TIP3    H217368   1.977   1.738   0.309
 5788TIP3   OH217369   4.749   0.504   2.217
 5788TIP3    H117370   4.744   0.565   2.144
 5788TIP3    H217371   4.694   0.544   2.285
 5789TIP3   OH217372   0.182   4.515   2.547
 5789TIP3    H117373   0.097   4.495   2.509
 5789TIP3    H217374   0.171   4.495   2.640
 5790TIP3   OH217375   5.061   1.984   4.877
 5790TIP3    H117376   5.038   1.951   4.964
 5790TIP3    H217377   5.044   1.911   4.818
 5791TIP3   OH217378   0.753   4.223   3.852
 5791TIP3    H117379   0.809   4.300   3.842
 5791TIP3    H217380   0.733   4.196   3.762
 5792TIP3   OH217381   6.038   3.047   0.342
 5792TIP3    H117382   6.119   3.000   0.362
 5792TIP3    H217383   6.048   3.132   0.385
 5793TIP3   OH217384   1.729   3.948   4.963
 5793TIP3    H117385   1.799   3.949   4.898
 5793TIP3    H217386   1.757   4.011   5.030
 5794TIP3   OH217387   3.554   1.471   3.478
 5794TIP3    H117388   3.520   1.448   3.564
 5794TIP3    H217389   3.486   1.527   3.440
 5795TIP3   OH217390   3.807   1.428   2.765
 5795TIP3    H117391   3.884   1.382   2.732
 5795TIP3    H217392   3.733   1.375   2.738
 5796TIP3   OH217393   0.870   3.929   3.107
 5796TIP3    H117394   0.833   3.906   3.192
 5796TIP3    H217395   0.864   4.024   3.103
 5797TIP3   OH217396   2.915   3.952   0.546
 5797TIP3    H117397   2.909   4.019   0.615
 5797TIP3    H217398   2.975   3.989   0.482
 5798TIP3   OH217399   5.919   5.808   4.094
 5798TIP3    H117400   5.888   5.730   4.047
 5798TIP3    H217401   6.013   5.811   4.075
 5799TIP3   OH217402   0.719   3.681   1.010
 5799TIP3    H117403   0.685   3.615   1.070
 5799TIP3    H217404   0.642   3.713   0.963
 5800TIP3   OH217405   1.509   1.584   0.652
 5800TIP3    H117406   1.522   1.510   0.711
 5800TIP3    H217407   1.588   1.637   0.661
 5801TIP3   OH217408   4.793   5.299   3.023
 5801TIP3    H117409   4.704   5.325   3.000
 5801TIP3    H217410   4.848   5.367   2.985
 5802TIP3   OH217411   3.515   0.323   0.035
 5802TIP3    H117412   3.597   0.370   0.046
 5802TIP3    H217413   3.457   0.385  -0.008
 5803TIP3   OH217414   1.189   0.528   0.676
 5803TIP3    H117415   1.186   0.620   0.650
 5803TIP3    H217416   1.098   0.503   0.687
 5804TIP3   OH217417   5.173   4.813   0.473
 5804TIP3    H117418   5.084   4.784   0.494
 5804TIP3    H217419   5.193   4.772   0.389
 5805TIP3   OH217420   4.212   4.166   0.087
 5805TIP3    H117421   4.216   4.259   0.064
 5805TIP3    H217422   4.173   4.165   0.175
 5806TIP3   OH217423   3.234   3.876   4.306
 5806TIP3    H117424   3.173   3.948   4.289
 5806TIP3    H217425   3.230   3.823   4.226
 5807TIP3   OH217426   4.919   2.626   1.885
 5807TIP3    H117427   4.990   2.687   1.865
 5807TIP3    H217428   4.839   2.676   1.869
 5808TIP3   OH217429   3.429   3.365   0.875
 5808TIP3    H117430   3.465   3.411   0.951
 5808TIP3    H217431   3.473   3.280   0.875
 5809TIP3   OH217432   6.129   2.514   1.585
 5809TIP3    H117433   6.166   2.437   1.541
 5809TIP3    H217434   6.162   2.588   1.534
 5810TIP3   OH217435   5.286   2.233   0.872
 5810TIP3    H117436   5.362   2.216   0.927
 5810TIP3    H217437   5.305   2.318   0.831
 5811TIP3   OH217438   5.557   4.599   1.348
 5811TIP3    H117439   5.509   4.518   1.333
 5811TIP3    H217440   5.521   4.633   1.430
 5812TIP3   OH217441   2.071   1.649   1.359
 5812TIP3    H117442   2.011   1.615   1.425
 5812TIP3    H217443   2.042   1.608   1.277
 5813TIP3   OH217444   3.391   3.470   1.946
 5813TIP3    H117445   3.442   3.531   1.893
 5813TIP3    H217446   3.452   3.399   1.966
 5814TIP3   OH217447   6.342   1.189   4.746
 5814TIP3    H117448   6.289   1.192   4.666
 5814TIP3    H217449   6.340   1.279   4.780
 5815TIP3   OH217450   4.141   1.602   2.635
 5815TIP3    H117451   4.067   1.626   2.578
 5815TIP3    H217452   4.177   1.686   2.662
 5816TIP3   OH217453   0.260   5.656   3.642
 5816TIP3    H117454   0.193   5.628   3.580
 5816TIP3    H217455   0.269   5.750   3.627
 5817TIP3   OH217456   1.144   0.226   2.408
 5817TIP3    H117457   1.128   0.154   2.469
 5817TIP3    H217458   1.127   0.187   2.322
 5818TIP3   OH217459   2.947   5.185   5.020
 5818TIP3    H117460   3.024   5.237   5.043
 5818TIP3    H217461   2.975   5.094   5.035
 5819TIP3   OH217462   4.362   3.336   0.286
 5819TIP3    H117463   4.268   3.322   0.276
 5819TIP3    H217464   4.401   3.283   0.216
 5820TIP3   OH217465   3.760   1.048   2.177
 5820TIP3    H117466   3.735   1.020   2.089
 5820TIP3    H217467   3.832   1.109   2.163
 5821TIP3   OH217468   5.927   1.670   0.963
 5821TIP3    H117469   6.019   1.698   0.962
 5821TIP3    H217470   5.924   1.595   0.904
 5822TIP3   OH217471   3.921   0.283   3.616
 5822TIP3    H117472   3.922   0.368   3.661
 5822TIP3    H217473   3.986   0.292   3.547
 5823TIP3   OH217474   6.158   0.400   2.983
 5823TIP3    H117475   6.219   0.332   2.956
 5823TIP3    H217476   6.198   0.482   2.954
 5824TIP3   OH217477   4.954   1.643   3.617
 5824TIP3    H117478   4.980   1.610   3.530
 5824TIP3    H217479   4.946   1.564   3.671
 5825TIP3   OH217480   0.885   4.194   3.328
 5825TIP3    H117481   0.799   4.191   3.285
 5825TIP3    H217482   0.904   4.287   3.336
 5826TIP3   OH217483   0.563   3.572   0.527
 5826TIP3    H117484   0.513   3.491   0.521
 5826TIP3    H217485   0.635   3.562   0.465
 5827TIP3   OH217486   0.043   2.017   3.787
 5827TIP3    H117487  -0.010   2.037   3.710
 5827TIP3    H217488   0.106   2.088   3.793
 5828TIP3   OH217489   1.213   4.973   2.481
 5828TIP3    H117490   1.241   5.044   2.424
 5828TIP3    H217491   1.262   4.897   2.451
 5829TIP3   OH217492   5.268   4.083   4.144
 5829TIP3    H117493   5.176   4.075   4.120
 5829TIP3    H217494   5.290   4.175   4.125
 5830TIP3   OH217495   4.289   4.421   3.720
 5830TIP3    H117496   4.355   4.489   3.732
 5830TIP3    H217497   4.337   4.339   3.734
 5831TIP3   OH217498   5.611   2.603   3.862
 5831TIP3    H117499   5.664   2.591   3.783
 5831TIP3    H217500   5.581   2.515   3.885
 5832TIP3   OH217501   2.224   3.771   3.910
 5832TIP3    H117502   2.257   3.689   3.873
 5832TIP3    H217503   2.274   3.784   3.990
 5833TIP3   OH217504   2.606   4.157   0.309
 5833TIP3    H117505   2.629   4.175   0.400
 5833TIP3    H217506   2.599   4.061   0.305
 5834TIP3   OH217507   3.527   1.046   4.200
 5834TIP3    H117508   3.441   1.056   4.159
 5834TIP3    H217509   3.510   1.057   4.294
 5835TIP3   OH217510   6.219   5.387   3.307
 5835TIP3    H117511   6.125   5.402   3.311
 5835TIP3    H217512   6.230   5.325   3.234
 5836TIP3   OH217513   4.679   0.110   3.805
 5836TIP3    H117514   4.705   0.053   3.878
 5836TIP3    H217515   4.733   0.188   3.816
 5837TIP3   OH217516   1.240   0.872   0.414
 5837TIP3    H117517   1.197   0.884   0.330
 5837TIP3    H217518   1.329   0.843   0.392
 5838TIP3   OH217519   0.303   0.421   3.005
 5838TIP3    H117520   0.276   0.457   3.090
 5838TIP3    H217521   0.225   0.427   2.951
 5839TIP3   OH217522   3.020   4.919   2.059
 5839TIP3    H117523   2.928   4.946   2.065
 5839TIP3    H217524   3.069   5.000   2.067
 5840TIP3   OH217525   0.388   1.107   2.389
 5840TIP3    H117526   0.345   1.190   2.409
 5840TIP3    H217527   0.455   1.097   2.457
 5841TIP3   OH217528   2.240   1.077   4.266
 5841TIP3    H117529   2.240   0.981   4.270
 5841TIP3    H217530   2.197   1.103   4.348
 5842TIP3   OH217531   3.421   3.029   4.513
 5842TIP3    H117532   3.355   2.960   4.523
 5842TIP3    H217533   3.399   3.093   4.580
 5843TIP3   OH217534   3.337   3.207   4.680
 5843TIP3    H117535   3.385   3.266   4.737
 5843TIP3    H217536   3.298   3.264   4.613
 5844TIP3   OH217537   2.859   0.140   0.954
 5844TIP3    H117538   2.775   0.169   0.918
 5844TIP3    H217539   2.835   0.086   1.029
 5845TIP3   OH217540   2.019   3.146   1.617
 5845TIP3    H117541   2.076   3.219   1.595
 5845TIP3    H217542   1.945   3.185   1.662
 5846TIP3   OH217543   0.959   5.244   1.359
 5846TIP3    H117544   0.928   5.318   1.308
 5846TIP3    H217545   0.884   5.217   1.412
 5847TIP3   OH217546   2.914   4.305   2.312
 5847TIP3    H117547   2.926   4.307   2.217
 5847TIP3    H217548   2.839   4.248   2.326
 5848TIP3   OH217549   0.346   3.284   4.424
 5848TIP3    H117550   0.299   3.271   4.342
 5848TIP3    H217551   0.403   3.359   4.408
 5849TIP3   OH217552   4.185   5.962   1.648
 5849TIP3    H117553   4.238   5.883   1.644
 5849TIP3    H217554   4.194   5.992   1.739
 5850TIP3   OH217555   0.131   3.708   4.857
 5850TIP3    H117556   0.183   3.745   4.929
 5850TIP3    H217557   0.192   3.650   4.811
 5851TIP3   OH217558   2.096   5.398   3.189
 5851TIP3    H117559   2.184   5.407   3.152
 5851TIP3    H217560   2.103   5.322   3.247
 5852TIP3   OH217561   3.945   1.926   2.932
 5852TIP3    H117562   3.985   1.997   2.882
 5852TIP3    H217563   3.926   1.859   2.867
 5853TIP3   OH217564   3.027   5.162   1.728
 5853TIP3    H117565   3.090   5.195   1.792
 5853TIP3    H217566   3.070   5.176   1.643
 5854TIP3   OH217567   1.877   5.490   3.348
 5854TIP3    H117568   1.952   5.488   3.287
 5854TIP3    H217569   1.824   5.414   3.323
 5855TIP3   OH217570   5.189   2.068   2.579
 5855TIP3    H117571   5.216   1.988   2.535
 5855TIP3    H217572   5.103   2.088   2.542
 5856TIP3   OH217573   6.280   3.645   3.856
 5856TIP3    H117574   6.364   3.611   3.888
 5856TIP3    H217575   6.244   3.693   3.930
 5857TIP3   OH217576   3.032   2.662   1.566
 5857TIP3    H117577   3.033   2.644   1.472
 5857TIP3    H217578   3.077   2.587   1.605
 5858TIP3   OH217579   4.977   3.294   0.349
 5858TIP3    H117580   4.885   3.321   0.357
 5858TIP3    H217581   5.027   3.375   0.363
 5859TIP3   OH217582   3.688   4.208   1.926
 5859TIP3    H117583   3.709   4.245   2.011
 5859TIP3    H217584   3.592   4.215   1.919
 5860TIP3   OH217585   3.902   5.929   2.119
 5860TIP3    H117586   3.894   6.007   2.064
 5860TIP3    H217587   3.914   5.857   2.057
 5861TIP3   OH217588   4.455   3.628   1.950
 5861TIP3    H117589   4.360   3.633   1.940
 5861TIP3    H217590   4.472   3.661   2.038
 5862TIP3   OH217591   1.229   5.017   0.709
 5862TIP3    H117592   1.164   5.086   0.710
 5862TIP3    H217593   1.290   5.040   0.779
 5863TIP3   OH217594   4.498   1.330   1.733
 5863TIP3    H117595   4.458   1.381   1.804
 5863TIP3    H217596   4.432   1.265   1.710
 5864TIP3   OH217597   3.276   3.736   2.960
 5864TIP3    H117598   3.240   3.678   2.892
 5864TIP3    H217599   3.259   3.690   3.042
 5865TIP3   OH217600   5.526   4.825   3.225
 5865TIP3    H117601   5.610   4.778   3.225
 5865TIP3    H217602   5.526   4.872   3.142
 5866TIP3   OH217603   2.063   3.467   3.672
 5866TIP3    H117604   1.982   3.481   3.720
 5866TIP3    H217605   2.037   3.421   3.592
 5867TIP3   OH217606   3.337   4.174   2.198
 5867TIP3    H117607   3.423   4.186   2.238
 5867TIP3    H217608   3.275   4.190   2.269
 5868TIP3   OH217609   3.195   2.823   4.625
 5868TIP3    H117610   3.117   2.795   4.672
 5868TIP3    H217611   3.225   2.745   4.579
 5869TIP3   OH217612   4.233   0.277   0.245
 5869TIP3    H117613   4.143   0.273   0.277
 5869TIP3    H217614   4.238   0.361   0.198
 5870TIP3   OH217615   2.114   5.886   4.003
 5870TIP3    H117616   2.086   5.925   4.085
 5870TIP3    H217617   2.070   5.801   4.000
 5871TIP3   OH217618   2.817   4.691   3.378
 5871TIP3    H117619   2.729   4.657   3.394
 5871TIP3    H217620   2.859   4.625   3.323
 5872TIP3   OH217621   0.044   0.684   0.663
 5872TIP3    H117622   0.127   0.682   0.615
 5872TIP3    H217623   0.070   0.698   0.754
 5873TIP3   OH217624   0.351   3.735   3.799
 5873TIP3    H117625   0.406   3.811   3.820
 5873TIP3    H217626   0.411   3.661   3.797
 5874TIP3   OH217627   2.155   0.825   4.343
 5874TIP3    H117628   2.214   0.755   4.315
 5874TIP3    H217629   2.154   0.820   4.438
 5875TIP3   OH217630   1.886   0.915   3.421
 5875TIP3    H117631   1.871   0.838   3.366
 5875TIP3    H217632   1.863   0.990   3.366
 5876TIP3   OH217633   3.713   1.085   0.518
 5876TIP3    H117634   3.630   1.053   0.483
 5876TIP3    H217635   3.737   1.022   0.586
 5877TIP3   OH217636   4.381   3.635   0.829
 5877TIP3    H117637   4.443   3.579   0.876
 5877TIP3    H217638   4.436   3.696   0.780
 5878TIP3   OH217639   1.258   0.717   3.463
 5878TIP3    H117640   1.309   0.722   3.382
 5878TIP3    H217641   1.317   0.749   3.530
 5879TIP3   OH217642   2.891   3.885   2.433
 5879TIP3    H117643   2.830   3.872   2.505
 5879TIP3    H217644   2.978   3.884   2.475
 5880TIP3   OH217645   2.016   5.734   1.667
 5880TIP3    H117646   2.068   5.811   1.643
 5880TIP3    H217647   1.925   5.764   1.661
 5881TIP3   OH217648   3.949   0.757   2.130
 5881TIP3    H117649   3.982   0.668   2.122
 5881TIP3    H217650   4.024   0.813   2.111
 5882TIP3   OH217651   4.537   2.422   2.141
 5882TIP3    H117652   4.486   2.495   2.105
 5882TIP3    H217653   4.474   2.371   2.191
 5883TIP3   OH217654   2.820   3.080   1.881
 5883TIP3    H117655   2.786   3.040   1.961
 5883TIP3    H217656   2.802   3.173   1.891
 5884TIP3   OH217657   2.392   2.438   1.182
 5884TIP3    H117658   2.322   2.402   1.237
 5884TIP3    H217659   2.458   2.368   1.179
 5885TIP3   OH217660   0.102   1.815   4.756
 5885TIP3    H117661   0.079   1.823   4.663
 5885TIP3    H217662   0.139   1.900   4.779
 5886TIP3   OH217663   5.387   1.265   2.195
 5886TIP3    H117664   5.393   1.361   2.197
 5886TIP3    H217665   5.463   1.238   2.143
 5887TIP3   OH217666   4.413   0.096   4.289
 5887TIP3    H117667   4.393   0.162   4.355
 5887TIP3    H217668   4.343   0.031   4.297
 5888TIP3   OH217669   5.565   3.345   1.241
 5888TIP3    H117670   5.494   3.344   1.306
 5888TIP3    H217671   5.626   3.411   1.273
 5889TIP3   OH217672   4.800   4.678   1.962
 5889TIP3    H117673   4.761   4.691   1.875
 5889TIP3    H217674   4.766   4.593   1.990
 5890TIP3   OH217675   3.088   4.569   3.724
 5890TIP3    H117676   3.132   4.632   3.781
 5890TIP3    H217677   3.139   4.488   3.735
 5891TIP3   OH217678   4.970   2.740   4.755
 5891TIP3    H117679   5.014   2.779   4.680
 5891TIP3    H217680   4.881   2.775   4.751
 5892TIP3   OH217681   2.208   2.737   1.974
 5892TIP3    H117682   2.219   2.821   1.929
 5892TIP3    H217683   2.280   2.733   2.036
 5893TIP3   OH217684   0.950   0.605   4.915
 5893TIP3    H117685   1.010   0.649   4.854
 5893TIP3    H217686   0.986   0.626   5.002
 5894TIP3   OH217687   1.469   0.202   2.690
 5894TIP3    H117688   1.449   0.280   2.638
 5894TIP3    H217689   1.466   0.129   2.628
 5895TIP3   OH217690   2.920   4.396   4.527
 5895TIP3    H117691   2.990   4.381   4.590
 5895TIP3    H217692   2.839   4.381   4.576
 5896TIP3   OH217693   1.804   1.673   0.246
 5896TIP3    H117694   1.709   1.684   0.258
 5896TIP3    H217695   1.825   1.595   0.296
 5897TIP3   OH217696   5.802   4.160   1.520
 5897TIP3    H117697   5.770   4.201   1.439
 5897TIP3    H217698   5.723   4.139   1.569
 5898TIP3   OH217699   1.532   2.457   1.432
 5898TIP3    H117700   1.555   2.481   1.521
 5898TIP3    H217701   1.615   2.429   1.392
 5899TIP3   OH217702   2.172   0.601   1.265
 5899TIP3    H117703   2.161   0.544   1.341
 5899TIP3    H217704   2.165   0.541   1.190
 5900TIP3   OH217705   0.655   0.681   5.107
 5900TIP3    H117706   0.684   0.617   5.172
 5900TIP3    H217707   0.689   0.648   5.024
 5901TIP3   OH217708   5.936   0.599   3.317
 5901TIP3    H117709   5.850   0.559   3.305
 5901TIP3    H217710   5.997   0.525   3.319
 5902TIP3   OH217711   2.651   2.766   3.377
 5902TIP3    H117712   2.665   2.831   3.308
 5902TIP3    H217713   2.556   2.758   3.383
 5903TIP3   OH217714   0.503   2.896   2.760
 5903TIP3    H117715   0.523   2.870   2.850
 5903TIP3    H217716   0.440   2.831   2.730
 5904TIP3   OH217717   5.573   4.597   4.415
 5904TIP3    H117718   5.528   4.676   4.386
 5904TIP3    H217719   5.504   4.540   4.448
 5905TIP3   OH217720   5.577   3.901   3.824
 5905TIP3    H117721   5.541   3.854   3.749
 5905TIP3    H217722   5.575   3.993   3.799
 5906TIP3   OH217723   3.913   2.316   3.031
 5906TIP3    H117724   3.991   2.263   3.015
 5906TIP3    H217725   3.853   2.257   3.076
 5907TIP3   OH217726   0.173   3.471   0.796
 5907TIP3    H117727   0.248   3.412   0.807
 5907TIP3    H217728   0.160   3.477   0.702
 5908TIP3   OH217729   0.886   5.441   0.345
 5908TIP3    H117730   0.923   5.521   0.382
 5908TIP3    H217731   0.797   5.438   0.379
 5909TIP3   OH217732   3.875   4.357   0.116
 5909TIP3    H117733   3.819   4.307   0.056
 5909TIP3    H217734   3.956   4.306   0.122
 5910TIP3   OH217735   4.698   5.916   2.776
 5910TIP3    H117736   4.637   5.899   2.705
 5910TIP3    H217737   4.698   6.012   2.785
 5911TIP3   OH217738   6.317   5.061   0.900
 5911TIP3    H117739   6.328   5.155   0.909
 5911TIP3    H217740   6.290   5.049   0.808
 5912TIP3   OH217741   0.762   4.318   0.350
 5912TIP3    H117742   0.678   4.335   0.393
 5912TIP3    H217743   0.746   4.336   0.257
 5913TIP3   OH217744   0.079   2.987   3.954
 5913TIP3    H117745   0.087   2.958   3.863
 5913TIP3    H217746   0.004   3.046   3.953
 5914TIP3   OH217747   0.306   3.922   5.019
 5914TIP3    H117748   0.230   3.966   4.981
 5914TIP3    H217749   0.382   3.963   4.976
 5915TIP3   OH217750   2.111   5.158   1.759
 5915TIP3    H117751   2.159   5.083   1.791
 5915TIP3    H217752   2.156   5.183   1.678
 5916TIP3   OH217753   2.307   5.295   0.915
 5916TIP3    H117754   2.307   5.308   0.820
 5916TIP3    H217755   2.391   5.330   0.944
 5917TIP3   OH217756   2.481   0.534   2.677
 5917TIP3    H117757   2.455   0.485   2.599
 5917TIP3    H217758   2.571   0.560   2.661
 5918TIP3   OH217759   1.353   3.408   4.342
 5918TIP3    H117760   1.337   3.471   4.272
 5918TIP3    H217761   1.353   3.323   4.298
 5919TIP3   OH217762   3.173   3.023   4.813
 5919TIP3    H117763   3.186   2.946   4.758
 5919TIP3    H217764   3.253   3.074   4.803
 5920TIP3   OH217765   1.899   4.813   4.718
 5920TIP3    H117766   1.967   4.787   4.780
 5920TIP3    H217767   1.819   4.817   4.772
 5921TIP3   OH217768   0.439   4.677   3.470
 5921TIP3    H117769   0.469   4.760   3.507
 5921TIP3    H217770   0.363   4.700   3.416
 5922TIP3   OH217771   3.556   0.992   4.504
 5922TIP3    H117772   3.503   1.024   4.577
 5922TIP3    H217773   3.544   0.897   4.505
 5923TIP3   OH217774   4.566   0.914   4.501
 5923TIP3    H117775   4.475   0.895   4.478
 5923TIP3    H217776   4.560   0.971   4.577
 5924TIP3   OH217777   2.251   2.524   4.817
 5924TIP3    H117778   2.216   2.481   4.895
 5924TIP3    H217779   2.307   2.594   4.852
 5925TIP3   OH217780   0.308   2.781   1.247
 5925TIP3    H117781   0.335   2.839   1.175
 5925TIP3    H217782   0.385   2.778   1.304
 5926TIP3   OH217783   3.490   0.540   5.152
 5926TIP3    H117784   3.466   0.625   5.188
 5926TIP3    H217785   3.585   0.544   5.142
 5927TIP3   OH217786   4.226   1.075   4.346
 5927TIP3    H117787   4.242   0.981   4.355
 5927TIP3    H217788   4.282   1.101   4.272
 5928TIP3   OH217789   3.000   5.621   3.358
 5928TIP3    H117790   2.991   5.528   3.336
 5928TIP3    H217791   3.092   5.641   3.339
 5929TIP3   OH217792   1.659   2.493   3.319
 5929TIP3    H117793   1.632   2.476   3.410
 5929TIP3    H217794   1.744   2.450   3.310
 5930TIP3   OH217795   3.616   1.811   2.993
 5930TIP3    H117796   3.615   1.724   2.952
 5930TIP3    H217797   3.562   1.865   2.935
 5931TIP3   OH217798   6.225   3.989   4.925
 5931TIP3    H117799   6.164   4.040   4.977
 5931TIP3    H217800   6.303   4.044   4.917
 5932TIP3   OH217801   6.017   1.723   4.010
 5932TIP3    H117802   5.993   1.650   4.066
 5932TIP3    H217803   6.110   1.737   4.026
 5933TIP3   OH217804   2.957   2.478   5.022
 5933TIP3    H117805   2.917   2.563   5.040
 5933TIP3    H217806   3.041   2.482   5.067
 5934TIP3   OH217807   4.315   4.902   4.578
 5934TIP3    H117808   4.227   4.875   4.548
 5934TIP3    H217809   4.326   4.857   4.662
 5935TIP3   OH217810   4.770   5.815   4.571
 5935TIP3    H117811   4.861   5.791   4.591
 5935TIP3    H217812   4.752   5.773   4.487
 5936TIP3   OH217813   3.420   2.671   3.912
 5936TIP3    H117814   3.406   2.751   3.861
 5936TIP3    H217815   3.459   2.701   3.994
 5937TIP3   OH217816   4.896   0.102   3.324
 5937TIP3    H117817   4.980   0.147   3.320
 5937TIP3    H217818   4.884   0.065   3.237
 5938TIP3   OH217819   3.992   5.889   0.179
 5938TIP3    H117820   3.933   5.843   0.118
 5938TIP3    H217821   3.961   5.862   0.266
 5939TIP3   OH217822   6.318   3.228   4.802
 5939TIP3    H117823   6.407   3.255   4.823
 5939TIP3    H217824   6.271   3.232   4.885
 5940TIP3   OH217825   5.436   5.186   3.889
 5940TIP3    H117826   5.435   5.109   3.946
 5940TIP3    H217827   5.453   5.259   3.948
 5941TIP3   OH217828   1.219   5.162   3.302
 5941TIP3    H117829   1.147   5.223   3.289
 5941TIP3    H217830   1.261   5.156   3.216
 5942TIP3   OH217831   3.426   0.574   1.853
 5942TIP3    H117832   3.511   0.583   1.808
 5942TIP3    H217833   3.430   0.638   1.924
 5943TIP3   OH217834   1.053   0.664   3.287
 5943TIP3    H117835   0.998   0.742   3.296
 5943TIP3    H217836   1.113   0.669   3.361
 5944TIP3   OH217837   4.140   3.858   2.604
 5944TIP3    H117838   4.194   3.931   2.573
 5944TIP3    H217839   4.060   3.864   2.553
 5945TIP3   OH217840   3.055   1.371   2.214
 5945TIP3    H117841   3.051   1.373   2.310
 5945TIP3    H217842   3.076   1.461   2.189
 5946TIP3   OH217843   3.327   0.053   1.596
 5946TIP3    H117844   3.234   0.069   1.610
 5946TIP3    H217845   3.357   0.012   1.678
 5947TIP3   OH217846   2.803   2.292   4.595
 5947TIP3    H117847   2.792   2.310   4.688
 5947TIP3    H217848   2.873   2.226   4.592
 5948TIP3   OH217849   5.379   3.245   4.792
 5948TIP3    H117850   5.408   3.261   4.702
 5948TIP3    H217851   5.366   3.332   4.829
 5949TIP3   OH217852   5.044   1.852   4.604
 5949TIP3    H117853   5.121   1.809   4.642
 5949TIP3    H217854   4.985   1.779   4.582
 5950TIP3   OH217855   3.994   5.072   2.521
 5950TIP3    H117856   3.905   5.067   2.558
 5950TIP3    H217857   3.982   5.046   2.430
 5951TIP3   OH217858   1.865   2.653   0.138
 5951TIP3    H117859   1.957   2.672   0.121
 5951TIP3    H217860   1.818   2.693   0.065
 5952TIP3   OH217861   0.692   2.031   3.985
 5952TIP3    H117862   0.692   1.957   4.046
 5952TIP3    H217863   0.686   2.108   4.041
 5953TIP3   OH217864   2.258   3.784   3.077
 5953TIP3    H117865   2.162   3.784   3.080
 5953TIP3    H217866   2.285   3.767   3.167
 5954TIP3   OH217867   5.857   4.941   0.560
 5954TIP3    H117868   5.938   4.937   0.610
 5954TIP3    H217869   5.792   4.974   0.622
 5955TIP3   OH217870   5.025   0.813   0.098
 5955TIP3    H117871   5.018   0.852   0.185
 5955TIP3    H217872   5.057   0.724   0.113
 5956TIP3   OH217873   2.642   0.488   0.462
 5956TIP3    H117874   2.628   0.567   0.409
 5956TIP3    H217875   2.685   0.427   0.402
 5957TIP3   OH217876   4.758   4.150   3.341
 5957TIP3    H117877   4.708   4.201   3.277
 5957TIP3    H217878   4.692   4.117   3.402
 5958TIP3   OH217879   5.456   0.815   4.326
 5958TIP3    H117880   5.485   0.771   4.406
 5958TIP3    H217881   5.435   0.904   4.355
 5959TIP3   OH217882   2.899   1.712   5.075
 5959TIP3    H117883   2.911   1.634   5.129
 5959TIP3    H217884   2.987   1.735   5.046
 5960TIP3   OH217885   0.362   2.116   4.610
 5960TIP3    H117886   0.422   2.050   4.576
 5960TIP3    H217887   0.312   2.144   4.533
 5961TIP3   OH217888   4.627   0.596   4.632
 5961TIP3    H117889   4.645   0.684   4.664
 5961TIP3    H217890   4.599   0.609   4.541
 5962TIP3   OH217891   1.553   5.451   4.001
 5962TIP3    H117892   1.536   5.453   4.095
 5962TIP3    H217893   1.602   5.531   3.984
 5963TIP3   OH217894   4.119   0.893   1.991
 5963TIP3    H117895   4.198   0.938   1.961
 5963TIP3    H217896   4.104   0.825   1.926
 5964TIP3   OH217897   3.083   5.425   3.601
 5964TIP3    H117898   2.992   5.404   3.622
 5964TIP3    H217899   3.086   5.521   3.602
 5965TIP3   OH217900   1.880   5.172   1.899
 5965TIP3    H117901   1.951   5.125   1.855
 5965TIP3    H217902   1.800   5.125   1.873
 5966TIP3   OH217903   4.102   2.832   4.109
 5966TIP3    H117904   4.012   2.814   4.134
 5966TIP3    H217905   4.127   2.909   4.160
 5967TIP3   OH217906   4.672   1.802   0.802
 5967TIP3    H117907   4.582   1.770   0.805
 5967TIP3    H217908   4.689   1.833   0.891
 5968TIP3   OH217909   3.266   3.056   3.556
 5968TIP3    H117910   3.305   3.091   3.476
 5968TIP3    H217911   3.195   2.999   3.526
 5969TIP3   OH217912   5.041   4.048   3.378
 5969TIP3    H117913   5.049   4.058   3.473
 5969TIP3    H217914   4.951   4.074   3.359
 5970TIP3   OH217915   5.485   4.987   4.783
 5970TIP3    H117916   5.572   5.026   4.777
 5970TIP3    H217917   5.453   5.012   4.870
 5971TIP3   OH217918   0.133   0.932   3.955
 5971TIP3    H117919   0.208   0.899   4.006
 5971TIP3    H217920   0.156   0.915   3.864
 5972TIP3   OH217921   1.129   0.150   2.946
 5972TIP3    H117922   1.219   0.179   2.963
 5972TIP3    H217923   1.092   0.220   2.892
 5973TIP3   OH217924   1.072   4.816   4.863
 5973TIP3    H117925   1.027   4.754   4.807
 5973TIP3    H217926   1.010   4.888   4.874
 5974TIP3   OH217927   1.677   5.766   4.449
 5974TIP3    H117928   1.755   5.817   4.473
 5974TIP3    H217929   1.708   5.705   4.382
 5975TIP3   OH217930   0.411   2.662   0.738
 5975TIP3    H117931   0.381   2.753   0.739
 5975TIP3    H217932   0.414   2.636   0.830
 5976TIP3   OH217933   2.941   5.617   3.037
 5976TIP3    H117934   3.024   5.570   3.041
 5976TIP3    H217935   2.965   5.709   3.035
 5977TIP3   OH217936   5.610   3.950   4.826
 5977TIP3    H117937   5.667   3.901   4.886
 5977TIP3    H217938   5.601   3.892   4.750
 5978TIP3   OH217939   2.926   3.041   4.261
 5978TIP3    H117940   3.003   3.052   4.318
 5978TIP3    H217941   2.864   2.991   4.314
 5979TIP3   OH217942   5.396   0.371   4.671
 5979TIP3    H117943   5.363   0.460   4.679
 5979TIP3    H217944   5.486   0.381   4.641
 5980TIP3   OH217945   5.170   0.584   4.339
 5980TIP3    H117946   5.175   0.489   4.338
 5980TIP3    H217947   5.077   0.604   4.334
 5981TIP3   OH217948   2.156   3.010   0.956
 5981TIP3    H117949   2.075   3.053   0.985
 5981TIP3    H217950   2.126   2.937   0.902
 5982TIP3   OH217951   2.138   5.450   0.456
 5982TIP3    H117952   2.194   5.511   0.503
 5982TIP3    H217953   2.087   5.506   0.397
 5983TIP3   OH217954   4.492   5.319   0.533
 5983TIP3    H117955   4.523   5.406   0.556
 5983TIP3    H217956   4.441   5.332   0.453
 5984TIP3   OH217957   1.049   5.859   1.924
 5984TIP3    H117958   1.035   5.881   2.016
 5984TIP3    H217959   0.991   5.784   1.908
 5985TIP3   OH217960   0.803   0.423   3.312
 5985TIP3    H117961   0.855   0.422   3.392
 5985TIP3    H217962   0.860   0.383   3.246
 5986TIP3   OH217963   2.369   0.213   0.833
 5986TIP3    H117964   2.369   0.227   0.738
 5986TIP3    H217965   2.285   0.171   0.851
 5987TIP3   OH217966   1.772   1.743   4.389
 5987TIP3    H117967   1.841   1.725   4.452
 5987TIP3    H217968   1.701   1.683   4.412
 5988TIP3   OH217969   5.674   2.635   2.594
 5988TIP3    H117970   5.698   2.596   2.510
 5988TIP3    H217971   5.619   2.569   2.636
 5989TIP3   OH217972   5.305   5.431   0.009
 5989TIP3    H117973   5.393   5.459  -0.016
 5989TIP3    H217974   5.316   5.344   0.045
 5990TIP3   OH217975   4.955   1.707   2.511
 5990TIP3    H117976   4.901   1.689   2.434
 5990TIP3    H217977   5.045   1.707   2.479
 5991TIP3   OH217978   3.406   0.313   1.932
 5991TIP3    H117979   3.349   0.381   1.969
 5991TIP3    H217980   3.408   0.332   1.838
 5992TIP3   OH217981   1.769   2.762   1.524
 5992TIP3    H117982   1.733   2.684   1.567
 5992TIP3    H217983   1.724   2.764   1.439
 5993TIP3   OH217984   4.482   2.508   5.050
 5993TIP3    H117985   4.437   2.573   5.104
 5993TIP3    H217986   4.417   2.485   4.983
 5994TIP3   OH217987   3.743   5.851   3.835
 5994TIP3    H117988   3.651   5.866   3.815
 5994TIP3    H217989   3.780   5.939   3.847
 5995TIP3   OH217990   5.216   4.578   4.306
 5995TIP3    H117991   5.142   4.632   4.280
 5995TIP3    H217992   5.245   4.536   4.225
 5996TIP3   OH217993   2.062   3.776   2.214
 5996TIP3    H117994   2.154   3.759   2.233
 5996TIP3    H217995   2.055   3.871   2.207
 5997TIP3   OH217996   6.127   1.380   2.921
 5997TIP3    H117997   6.152   1.319   2.852
 5997TIP3    H217998   6.035   1.361   2.938
 5998TIP3   OH217999   1.286   2.537   0.681
 5998TIP3    H118000   1.375   2.507   0.699
 5998TIP3    H218001   1.234   2.500   0.753
 5999TIP3   OH218002   1.415   4.136   1.522
 5999TIP3    H118003   1.443   4.190   1.448
 5999TIP3    H218004   1.374   4.198   1.583
 6000TIP3   OH218005   0.822   0.954   1.706
 6000TIP3    H118006   0.853   0.972   1.794
 6000TIP3    H218007   0.741   1.004   1.698
 6001TIP3   OH218008   4.564   3.998   2.697
 6001TIP3    H118009   4.516   4.078   2.679
 6001TIP3    H218010   4.586   4.004   2.790
 6002TIP3   OH218011   2.396   2.252   3.578
 6002TIP3    H118012   2.365   2.247   3.668
 6002TIP3    H218013   2.320   2.230   3.525
 6003TIP3   OH218014   2.250   3.894   3.666
 6003TIP3    H118015   2.344   3.876   3.662
 6003TIP3    H218016   2.224   3.860   3.752
 6004TIP3   OH218017   1.154   3.211   1.315
 6004TIP3    H118018   1.096   3.137   1.300
 6004TIP3    H218019   1.130   3.275   1.247
 6005TIP3   OH218020   2.870   1.401   3.792
 6005TIP3    H118021   2.909   1.343   3.726
 6005TIP3    H218022   2.903   1.488   3.770
 6006TIP3   OH218023   1.272   2.212   0.992
 6006TIP3    H118024   1.306   2.200   0.904
 6006TIP3    H218025   1.301   2.135   1.040
 6007TIP3   OH218026   2.550   5.662   1.937
 6007TIP3    H118027   2.556   5.757   1.953
 6007TIP3    H218028   2.578   5.622   2.019
 6008TIP3   OH218029   5.014   5.450   0.141
 6008TIP3    H118030   5.103   5.439   0.176
 6008TIP3    H218031   5.025   5.447   0.046
 6009TIP3   OH218032   3.015   0.378   3.108
 6009TIP3    H118033   2.934   0.396   3.156
 6009TIP3    H218034   3.007   0.430   3.028
 6010TIP3   OH218035   4.930   1.768   1.357
 6010TIP3    H118036   4.925   1.819   1.276
 6010TIP3    H218037   4.963   1.830   1.422
 6011TIP3   OH218038   3.497   3.356   4.008
 6011TIP3    H118039   3.424   3.326   3.954
 6011TIP3    H218040   3.529   3.435   3.964
 6012TIP3   OH218041   0.391   0.591   1.682
 6012TIP3    H118042   0.361   0.660   1.741
 6012TIP3    H218043   0.315   0.534   1.672
 6013TIP3   OH218044   1.695   4.788   3.246
 6013TIP3    H118045   1.770   4.777   3.188
 6013TIP3    H218046   1.729   4.768   3.333
 6014TIP3   OH218047   2.952   3.370   1.585
 6014TIP3    H118048   3.035   3.323   1.591
 6014TIP3    H218049   2.968   3.454   1.628
 6015TIP3   OH218050   4.160   4.289   4.220
 6015TIP3    H118051   4.075   4.280   4.263
 6015TIP3    H218052   4.143   4.348   4.146
 6016TIP3   OH218053   0.609   4.334   3.310
 6016TIP3    H118054   0.521   4.365   3.328
 6016TIP3    H218055   0.664   4.412   3.316
 6017TIP3   OH218056   4.443   4.118   1.610
 6017TIP3    H118057   4.477   4.207   1.611
 6017TIP3    H218058   4.517   4.064   1.586
 6018TIP3   OH218059   0.219   4.887   2.714
 6018TIP3    H118060   0.133   4.848   2.698
 6018TIP3    H218061   0.254   4.838   2.789
 6019TIP3   OH218062   1.223   3.679   2.256
 6019TIP3    H118063   1.135   3.696   2.290
 6019TIP3    H218064   1.238   3.586   2.273
 6020TIP3   OH218065   5.487   5.647   1.550
 6020TIP3    H118066   5.500   5.727   1.601
 6020TIP3    H218067   5.424   5.671   1.483
 6021TIP3   OH218068   4.611   0.222   4.975
 6021TIP3    H118069   4.577   0.220   4.885
 6021TIP3    H218070   4.675   0.293   4.975
 6022TIP3   OH218071   6.228   4.685   4.880
 6022TIP3    H118072   6.277   4.641   4.811
 6022TIP3    H218073   6.136   4.675   4.855
 6023TIP3   OH218074   4.507   1.870   3.191
 6023TIP3    H118075   4.541   1.930   3.125
 6023TIP3    H218076   4.583   1.819   3.219
 6024TIP3   OH218077   3.235   4.045   4.757
 6024TIP3    H118078   3.177   4.118   4.738
 6024TIP3    H218079   3.309   4.085   4.804
 6025TIP3   OH218080   3.797   3.587   3.487
 6025TIP3    H118081   3.815   3.495   3.506
 6025TIP3    H218082   3.835   3.634   3.562
 6026TIP3   OH218083   4.886   3.579   3.384
 6026TIP3    H118084   4.972   3.588   3.341
 6026TIP3    H218085   4.860   3.668   3.404
 6027TIP3   OH218086   6.082   2.492   2.120
 6027TIP3    H118087   6.035   2.571   2.092
 6027TIP3    H218088   6.145   2.525   2.184
 6028TIP3   OH218089   1.169   2.028   4.507
 6028TIP3    H118090   1.200   1.939   4.522
 6028TIP3    H218091   1.187   2.074   4.589
 6029TIP3   OH218092   5.393   5.311   2.928
 6029TIP3    H118093   5.344   5.313   2.846
 6029TIP3    H218094   5.484   5.297   2.901
 6030TIP3   OH218095   2.710   5.378   5.047
 6030TIP3    H118096   2.670   5.386   5.134
 6030TIP3    H218097   2.786   5.322   5.061
 6031TIP3   OH218098   2.181   1.103   4.527
 6031TIP3    H118099   2.246   1.144   4.585
 6031TIP3    H218100   2.167   1.016   4.565
 6032TIP3   OH218101   2.038   3.316   0.020
 6032TIP3    H118102   2.049   3.339   0.113
 6032TIP3    H218103   1.994   3.391  -0.019
 6033TIP3   OH218104   5.247   0.900   0.939
 6033TIP3    H118105   5.239   0.813   0.979
 6033TIP3    H218106   5.331   0.934   0.972
 6034TIP3   OH218107   4.126   5.735   5.017
 6034TIP3    H118108   4.078   5.793   4.957
 6034TIP3    H218109   4.167   5.793   5.080
 6035TIP3   OH218110   0.034   3.586   1.222
 6035TIP3    H118111   0.014   3.678   1.242
 6035TIP3    H218112  -0.003   3.573   1.135
 6036TIP3   OH218113   4.216   1.318   3.609
 6036TIP3    H118114   4.172   1.357   3.533
 6036TIP3    H218115   4.265   1.389   3.648
 6037TIP3   OH218116   3.640   1.004   3.237
 6037TIP3    H118117   3.700   0.954   3.182
 6037TIP3    H218118   3.599   0.939   3.294
 6038TIP3   OH218119   3.731   2.413   2.316
 6038TIP3    H118120   3.690   2.359   2.249
 6038TIP3    H218121   3.729   2.359   2.395
 6039TIP3   OH218122   3.518   1.686   1.263
 6039TIP3    H118123   3.575   1.730   1.327
 6039TIP3    H218124   3.459   1.754   1.233
 6040TIP3   OH218125   4.306   3.071   0.821
 6040TIP3    H118126   4.362   3.065   0.899
 6040TIP3    H218127   4.217   3.069   0.856
 6041TIP3   OH218128   4.620   2.208   1.538
 6041TIP3    H118129   4.668   2.286   1.566
 6041TIP3    H218130   4.630   2.146   1.610
 6042TIP3   OH218131   1.659   5.989   3.512
 6042TIP3    H118132   1.751   6.014   3.512
 6042TIP3    H218133   1.657   5.905   3.467
 6043TIP3   OH218134   2.156   3.113   4.405
 6043TIP3    H118135   2.251   3.108   4.411
 6043TIP3    H218136   2.130   3.031   4.363
 6044TIP3   OH218137   4.532   2.525   2.678
 6044TIP3    H118138   4.438   2.510   2.670
 6044TIP3    H218139   4.560   2.548   2.590
 6045TIP3   OH218140   2.434   5.776   1.449
 6045TIP3    H118141   2.354   5.812   1.485
 6045TIP3    H218142   2.405   5.709   1.387
 6046TIP3   OH218143   3.064   3.148   0.485
 6046TIP3    H118144   3.124   3.161   0.558
 6046TIP3    H218145   2.999   3.217   0.495
 6047TIP3   OH218146   0.330   0.249   3.252
 6047TIP3    H118147   0.317   0.187   3.180
 6047TIP3    H218148   0.375   0.324   3.212
 6048TIP3   OH218149   6.060   0.966   0.532
 6048TIP3    H118150   5.974   0.993   0.566
 6048TIP3    H218151   6.070   0.876   0.561
 6049TIP3   OH218152   5.656   1.843   0.552
 6049TIP3    H118153   5.600   1.785   0.605
 6049TIP3    H218154   5.610   1.849   0.468
 6050TIP3   OH218155   1.741   2.950   1.981
 6050TIP3    H118156   1.709   2.880   2.037
 6050TIP3    H218157   1.760   3.022   2.041
 6051TIP3   OH218158   4.323   5.823   4.554
 6051TIP3    H118159   4.293   5.738   4.585
 6051TIP3    H218160   4.248   5.882   4.568
 6052TIP3   OH218161   5.688   5.253   3.783
 6052TIP3    H118162   5.595   5.232   3.791
 6052TIP3    H218163   5.719   5.259   3.874
 6053TIP3   OH218164   5.542   1.381   1.469
 6053TIP3    H118165   5.489   1.461   1.470
 6053TIP3    H218166   5.506   1.328   1.539
 6054TIP3   OH218167   4.388   3.914   2.111
 6054TIP3    H118168   4.482   3.917   2.126
 6054TIP3    H218169   4.376   3.955   2.025
 6055TIP3   OH218170   0.751   1.013   3.540
 6055TIP3    H118171   0.823   0.951   3.553
 6055TIP3    H218172   0.717   0.992   3.453
 6056TIP3   OH218173   2.526   3.470   3.265
 6056TIP3    H118174   2.592   3.493   3.331
 6056TIP3    H218175   2.458   3.424   3.314
 6057TIP3   OH218176   4.576   0.220   4.701
 6057TIP3    H118177   4.527   0.272   4.637
 6057TIP3    H218178   4.639   0.170   4.649
 6058TIP3   OH218179   5.140   5.575   1.667
 6058TIP3    H118180   5.061   5.569   1.721
 6058TIP3    H218181   5.208   5.608   1.727
 6059TIP3   OH218182   3.491   4.302   1.315
 6059TIP3    H118183   3.480   4.207   1.309
 6059TIP3    H218184   3.429   4.329   1.382
 6060TIP3   OH218185   2.228   2.622   0.544
 6060TIP3    H118186   2.255   2.597   0.455
 6060TIP3    H218187   2.310   2.631   0.592
 6061TIP3   OH218188   4.328   4.041   3.171
 6061TIP3    H118189   4.341   4.110   3.236
 6061TIP3    H218190   4.414   4.000   3.163
 6062TIP3   OH218191   3.995   1.258   1.191
 6062TIP3    H118192   4.040   1.174   1.194
 6062TIP3    H218193   3.925   1.249   1.256
 6063TIP3   OH218194   5.410   4.801   1.404
 6063TIP3    H118195   5.422   4.774   1.313
 6063TIP3    H218196   5.360   4.730   1.444
 6064TIP3   OH218197   4.266   3.120   2.515
 6064TIP3    H118198   4.327   3.193   2.507
 6064TIP3    H218199   4.319   3.046   2.544
 6065TIP3   OH218200   4.789   3.563   2.704
 6065TIP3    H118201   4.759   3.601   2.621
 6065TIP3    H218202   4.880   3.540   2.688
 6066TIP3   OH218203   5.873   3.854   0.397
 6066TIP3    H118204   5.913   3.828   0.480
 6066TIP3    H218205   5.803   3.914   0.421
 6067TIP3   OH218206   0.039   1.017   3.410
 6067TIP3    H118207   0.045   0.950   3.342
 6067TIP3    H218208  -0.054   1.036   3.417
 6068TIP3   OH218209   2.367   0.850   1.696
 6068TIP3    H118210   2.307   0.776   1.706
 6068TIP3    H218211   2.454   0.809   1.689
 6069TIP3   OH218212   0.141   4.237   0.249
 6069TIP3    H118213   0.148   4.281   0.164
 6069TIP3    H218214   0.149   4.144   0.228
 6070TIP3   OH218215   2.014   5.887   4.249
 6070TIP3    H118216   1.982   5.811   4.201
 6070TIP3    H218217   1.990   5.871   4.340
 6071TIP3   OH218218   3.886   5.607   2.962
 6071TIP3    H118219   3.859   5.666   2.892
 6071TIP3    H218220   3.878   5.659   3.042
 6072TIP3   OH218221   4.126   0.347   3.884
 6072TIP3    H118222   4.170   0.284   3.828
 6072TIP3    H218223   4.150   0.322   3.973
 6073TIP3   OH218224   5.373   4.749   4.954
 6073TIP3    H118225   5.432   4.820   4.980
 6073TIP3    H218226   5.285   4.786   4.962
 6074TIP3   OH218227   0.811   2.162   0.246
 6074TIP3    H118228   0.852   2.242   0.212
 6074TIP3    H218229   0.880   2.096   0.240
 6075TIP3   OH218230   2.393   0.120   4.212
 6075TIP3    H118231   2.349   0.155   4.289
 6075TIP3    H218232   2.453   0.054   4.246
 6076TIP3   OH218233   1.425   2.317   1.795
 6076TIP3    H118234   1.342   2.274   1.771
 6076TIP3    H218235   1.403   2.410   1.803
 6077TIP3   OH218236   4.579   0.242   2.738
 6077TIP3    H118237   4.499   0.293   2.753
 6077TIP3    H218238   4.577   0.174   2.806
 6078TIP3   OH218239   1.051   1.213   0.857
 6078TIP3    H118240   1.059   1.194   0.764
 6078TIP3    H218241   1.134   1.254   0.881
 6079TIP3   OH218242   4.254   5.046   3.717
 6079TIP3    H118243   4.195   4.971   3.717
 6079TIP3    H218244   4.201   5.119   3.684
 6080TIP3   OH218245   4.507   5.499   1.688
 6080TIP3    H118246   4.584   5.534   1.644
 6080TIP3    H218247   4.542   5.447   1.760
 6081TIP3   OH218248   3.777   3.551   5.086
 6081TIP3    H118249   3.792   3.563   4.993
 6081TIP3    H218250   3.757   3.458   5.096
 6082TIP3   OH218251   4.671   4.367   0.315
 6082TIP3    H118252   4.603   4.431   0.337
 6082TIP3    H218253   4.748   4.420   0.294
 6083TIP3   OH218254   4.852   4.005   2.194
 6083TIP3    H118255   4.889   3.926   2.235
 6083TIP3    H218256   4.791   4.039   2.259
 6084TIP3   OH218257   1.542   2.579   0.095
 6084TIP3    H118258   1.594   2.614   0.023
 6084TIP3    H218259   1.588   2.500   0.122
 6085TIP3   OH218260   1.140   4.233   1.595
 6085TIP3    H118261   1.161   4.324   1.575
 6085TIP3    H218262   1.098   4.200   1.516
 6086TIP3   OH218263   5.700   3.574   2.830
 6086TIP3    H118264   5.720   3.485   2.802
 6086TIP3    H218265   5.695   3.625   2.749
 6087TIP3   OH218266   6.196   3.568   4.457
 6087TIP3    H118267   6.230   3.628   4.523
 6087TIP3    H218268   6.244   3.487   4.471
 6088TIP3   OH218269   2.047   4.577   2.767
 6088TIP3    H118270   2.083   4.657   2.806
 6088TIP3    H218271   2.065   4.509   2.832
 6089TIP3   OH218272   3.931   1.293   2.180
 6089TIP3    H118273   3.865   1.327   2.119
 6089TIP3    H218274   3.946   1.365   2.242
 6090TIP3   OH218275   1.827   5.383   0.748
 6090TIP3    H118276   1.849   5.472   0.776
 6090TIP3    H218277   1.826   5.387   0.653
 6091TIP3   OH218278   6.299   0.392   4.408
 6091TIP3    H118279   6.382   0.356   4.376
 6091TIP3    H218280   6.298   0.482   4.374
 6092TIP3   OH218281   0.345   1.558   2.989
 6092TIP3    H118282   0.280   1.540   2.920
 6092TIP3    H218283   0.379   1.645   2.967
 6093TIP3   OH218284   5.806   2.333   2.792
 6093TIP3    H118285   5.714   2.361   2.787
 6093TIP3    H218286   5.810   2.255   2.737
 6094TIP3   OH218287   6.322   5.282   1.331
 6094TIP3    H118288   6.250   5.344   1.324
 6094TIP3    H218289   6.298   5.210   1.272
 6095TIP3   OH218290   0.056   3.078   2.446
 6095TIP3    H118291   0.083   3.038   2.364
 6095TIP3    H218292  -0.031   3.114   2.429
 6096TIP3   OH218293   6.373   5.954   3.530
 6096TIP3    H118294   6.348   5.973   3.620
 6096TIP3    H218295   6.314   6.009   3.477
 6097TIP3   OH218296   2.268   4.681   3.392
 6097TIP3    H118297   2.223   4.597   3.404
 6097TIP3    H218298   2.198   4.746   3.393
 6098TIP3   OH218299   5.305   3.220   2.773
 6098TIP3    H118300   5.276   3.276   2.845
 6098TIP3    H218301   5.361   3.154   2.814
 6099TIP3   OH218302   4.106   5.390   4.313
 6099TIP3    H118303   4.170   5.331   4.274
 6099TIP3    H218304   4.113   5.375   4.407
 6100TIP3   OH218305   3.837   5.915   1.467
 6100TIP3    H118306   3.815   5.822   1.477
 6100TIP3    H218307   3.789   5.958   1.538
 6101TIP3   OH218308   1.481   2.316   3.146
 6101TIP3    H118309   1.527   2.382   3.199
 6101TIP3    H218310   1.456   2.363   3.066
 6102TIP3   OH218311   2.875   4.861   3.581
 6102TIP3    H118312   2.799   4.857   3.639
 6102TIP3    H218313   2.868   4.784   3.526
 6103TIP3   OH218314   1.758   5.008   3.005
 6103TIP3    H118315   1.763   5.084   3.063
 6103TIP3    H218316   1.666   5.000   2.983
 6104TIP3   OH218317   2.948   2.988   0.793
 6104TIP3    H118318   2.852   2.992   0.787
 6104TIP3    H218319   2.966   2.924   0.862
 6105TIP3   OH218320   3.345   1.308   0.978
 6105TIP3    H118321   3.359   1.279   0.888
 6105TIP3    H218322   3.251   1.294   0.993
 6106TIP3   OH218323   2.282   1.153   1.047
 6106TIP3    H118324   2.297   1.094   0.973
 6106TIP3    H218325   2.246   1.096   1.116
 6107TIP3   OH218326   3.954   0.862   3.983
 6107TIP3    H118327   4.019   0.792   3.990
 6107TIP3    H218328   3.881   0.833   4.038
 6108TIP3   OH218329   4.172   5.733   2.803
 6108TIP3    H118330   4.145   5.773   2.721
 6108TIP3    H218331   4.122   5.651   2.807
 6109TIP3   OH218332   6.320   1.743   0.125
 6109TIP3    H118333   6.228   1.744   0.153
 6109TIP3    H218334   6.334   1.653   0.094
 6110TIP3   OH218335   5.776   1.342   3.317
 6110TIP3    H118336   5.747   1.393   3.393
 6110TIP3    H218337   5.872   1.343   3.322
 6111TIP3   OH218338   5.525   3.313   3.549
 6111TIP3    H118339   5.528   3.320   3.644
 6111TIP3    H218340   5.476   3.233   3.532
 6112TIP3   OH218341   5.643   3.023   3.778
 6112TIP3    H118342   5.591   2.956   3.821
 6112TIP3    H218343   5.600   3.037   3.694
 6113TIP3   OH218344   2.465   4.348   0.209
 6113TIP3    H118345   2.527   4.283   0.242
 6113TIP3    H218346   2.422   4.305   0.135
 6114TIP3   OH218347   5.917   1.340   0.539
 6114TIP3    H118348   5.887   1.347   0.448
 6114TIP3    H218349   6.002   1.298   0.533
 6115TIP3   OH218350   4.970   1.087   4.961
 6115TIP3    H118351   4.994   1.170   4.919
 6115TIP3    H218352   5.044   1.065   5.017
 6116TIP3   OH218353   0.784   5.772   4.699
 6116TIP3    H118354   0.751   5.762   4.788
 6116TIP3    H218355   0.820   5.861   4.696
 6117TIP3   OH218356   3.554   4.358   2.310
 6117TIP3    H118357   3.583   4.348   2.400
 6117TIP3    H218358   3.520   4.447   2.305
 6118TIP3   OH218359   0.896   1.463   0.700
 6118TIP3    H118360   0.988   1.487   0.709
 6118TIP3    H218361   0.855   1.539   0.660
 6119TIP3   OH218362   3.492   2.450   2.919
 6119TIP3    H118363   3.534   2.381   2.971
 6119TIP3    H218364   3.501   2.529   2.973
 6120TIP3   OH218365   5.188   3.842   2.316
 6120TIP3    H118366   5.184   3.859   2.222
 6120TIP3    H218367   5.097   3.852   2.346
 6121TIP3   OH218368   3.190   1.139   3.430
 6121TIP3    H118369   3.267   1.147   3.486
 6121TIP3    H218370   3.178   1.045   3.419
 6122TIP3   OH218371   5.107   5.641   4.726
 6122TIP3    H118372   5.096   5.659   4.632
 6122TIP3    H218373   5.034   5.686   4.767
 6123TIP3   OH218374   2.873   4.071   4.361
 6123TIP3    H118375   2.800   4.105   4.310
 6123TIP3    H218376   2.842   4.076   4.452
 6124TIP3   OH218377   2.821   4.156   3.781
 6124TIP3    H118378   2.897   4.183   3.833
 6124TIP3    H218379   2.759   4.122   3.846
 6125TIP3   OH218380   3.659   3.964   3.996
 6125TIP3    H118381   3.730   3.978   4.059
 6125TIP3    H218382   3.609   4.045   3.997
 6126TIP3   OH218383   1.038   5.161   0.877
 6126TIP3    H118384   1.032   5.129   0.967
 6126TIP3    H218385   1.046   5.256   0.886
 6127TIP3   OH218386   0.067   5.246   3.967
 6127TIP3    H118387   0.120   5.312   3.922
 6127TIP3    H218388  -0.008   5.233   3.909
 6128TIP3   OH218389   3.693   2.918   2.080
 6128TIP3    H118390   3.616   2.960   2.119
 6128TIP3    H218391   3.700   2.834   2.126
 6129TIP3   OH218392   5.935   4.401   1.506
 6129TIP3    H118393   5.995   4.391   1.580
 6129TIP3    H218394   5.897   4.314   1.495
 6130TIP3   OH218395   2.325   3.389   0.066
 6130TIP3    H118396   2.326   3.305   0.112
 6130TIP3    H218397   2.285   3.370  -0.018
 6131TIP3   OH218398   3.746   1.205   4.455
 6131TIP3    H118399   3.751   1.253   4.538
 6131TIP3    H218400   3.663   1.157   4.461
 6132TIP3   OH218401   2.641   1.758   2.667
 6132TIP3    H118402   2.551   1.784   2.687
 6132TIP3    H218403   2.696   1.822   2.712
 6133TIP3   OH218404   2.775   4.660   1.313
 6133TIP3    H118405   2.863   4.649   1.278
 6133TIP3    H218406   2.741   4.738   1.269
 6134TIP3   OH218407   6.096   5.413   1.002
 6134TIP3    H118408   6.090   5.411   1.097
 6134TIP3    H218409   6.035   5.481   0.975
 6135TIP3   OH218410   2.618   0.236   2.139
 6135TIP3    H118411   2.645   0.167   2.078
 6135TIP3    H218412   2.566   0.296   2.086
 6136TIP3   OH218413   4.561   4.215   1.293
 6136TIP3    H118414   4.489   4.154   1.306
 6136TIP3    H218415   4.550   4.246   1.203
 6137TIP3   OH218416   3.343   4.924   0.353
 6137TIP3    H118417   3.362   4.973   0.272
 6137TIP3    H218418   3.360   4.832   0.330
 6138TIP3   OH218419   5.323   0.000   2.121
 6138TIP3    H118420   5.307   0.079   2.071
 6138TIP3    H218421   5.372   0.029   2.198
 6139TIP3   OH218422   2.538   5.521   3.153
 6139TIP3    H118423   2.594   5.597   3.167
 6139TIP3    H218424   2.599   5.451   3.126
 6140TIP3   OH218425   3.906   4.246   2.972
 6140TIP3    H118426   3.828   4.300   2.961
 6140TIP3    H218427   3.894   4.174   2.910
 6141TIP3   OH218428   3.773   5.532   2.085
 6141TIP3    H118429   3.777   5.475   2.161
 6141TIP3    H218430   3.730   5.611   2.117
 6142TIP3   OH218431   3.242   1.937   3.926
 6142TIP3    H118432   3.335   1.959   3.929
 6142TIP3    H218433   3.222   1.928   3.833
 6143TIP3   OH218434   4.596   0.130   2.441
 6143TIP3    H118435   4.659   0.158   2.375
 6143TIP3    H218436   4.625   0.174   2.521
 6144TIP3   OH218437   6.033   0.132   4.699
 6144TIP3    H118438   5.970   0.064   4.675
 6144TIP3    H218439   5.979   0.203   4.733
 6145TIP3   OH218440   5.199   1.716   4.961
 6145TIP3    H118441   5.278   1.770   4.963
 6145TIP3    H218442   5.149   1.743   5.038
 6146TIP3   OH218443   5.777   0.436   2.123
 6146TIP3    H118444   5.701   0.463   2.176
 6146TIP3    H218445   5.831   0.515   2.118
 6147TIP3   OH218446   1.020   4.713   3.433
 6147TIP3    H118447   1.041   4.799   3.397
 6147TIP3    H218448   1.091   4.696   3.496
 6148TIP3   OH218449   0.444   0.852   0.828
 6148TIP3    H118450   0.416   0.794   0.757
 6148TIP3    H218451   0.538   0.859   0.817
 6149TIP3   OH218452   1.121   4.096   2.238
 6149TIP3    H118453   1.203   4.056   2.209
 6149TIP3    H218454   1.142   4.138   2.322
 6150TIP3   OH218455   1.121   1.095   2.687
 6150TIP3    H118456   1.180   1.163   2.717
 6150TIP3    H218457   1.165   1.013   2.709
 6151TIP3   OH218458   3.321   3.240   4.274
 6151TIP3    H118459   3.413   3.241   4.247
 6151TIP3    H218460   3.318   3.296   4.352
 6152TIP3   OH218461   4.176   2.325   5.018
 6152TIP3    H118462   4.108   2.320   5.086
 6152TIP3    H218463   4.205   2.235   5.007
 6153TIP3   OH218464   3.970   2.403   1.998
 6153TIP3    H118465   4.051   2.353   1.994
 6153TIP3    H218466   3.957   2.420   2.091
 6154TIP3   OH218467   3.918   1.788   1.938
 6154TIP3    H118468   4.010   1.815   1.932
 6154TIP3    H218469   3.869   1.867   1.915
 6155TIP3   OH218470   2.052   2.251   1.312
 6155TIP3    H118471   2.142   2.284   1.318
 6155TIP3    H218472   2.012   2.276   1.395
 6156TIP3   OH218473   4.347   2.491   1.453
 6156TIP3    H118474   4.408   2.562   1.473
 6156TIP3    H218475   4.395   2.411   1.474
 6157TIP3   OH218476   4.072   5.671   3.395
 6157TIP3    H118477   4.091   5.583   3.427
 6157TIP3    H218478   4.019   5.711   3.463
 6158TIP3   OH218479   1.110   3.812   3.326
 6158TIP3    H118480   1.032   3.828   3.272
 6158TIP3    H218481   1.174   3.776   3.266
 6159TIP3   OH218482   5.963   1.765   1.660
 6159TIP3    H118483   5.962   1.779   1.755
 6159TIP3    H218484   5.952   1.670   1.650
 6160TIP3   OH218485   0.736   3.911   5.032
 6160TIP3    H118486   0.786   3.992   5.018
 6160TIP3    H218487   0.785   3.865   5.100
 6161TIP3   OH218488   3.161   1.839   5.067
 6161TIP3    H118489   3.175   1.876   4.980
 6161TIP3    H218490   3.247   1.844   5.110
 6162TIP3   OH218491   0.599   2.529   4.027
 6162TIP3    H118492   0.544   2.586   3.973
 6162TIP3    H218493   0.550   2.517   4.108
 6163TIP3   OH218494   4.149   3.525   2.766
 6163TIP3    H118495   4.095   3.604   2.762
 6163TIP3    H218496   4.169   3.506   2.674
 6164TIP3   OH218497   3.010   3.224   3.582
 6164TIP3    H118498   3.066   3.200   3.508
 6164TIP3    H218499   2.961   3.300   3.551
 6165TIP3   OH218500   5.614   0.266   3.834
 6165TIP3    H118501   5.520   0.250   3.825
 6165TIP3    H218502   5.624   0.361   3.830
 6166TIP3   OH218503   2.838   5.769   1.840
 6166TIP3    H118504   2.892   5.808   1.771
 6166TIP3    H218505   2.763   5.733   1.793
 6167TIP3   OH218506   0.035   2.324   1.450
 6167TIP3    H118507   0.095   2.398   1.459
 6167TIP3    H218508   0.007   2.327   1.359
 6168TIP3   OH218509   4.921   4.766   0.645
 6168TIP3    H118510   4.987   4.794   0.709
 6168TIP3    H218511   4.907   4.843   0.590
 6169TIP3   OH218512   1.461   4.359   0.437
 6169TIP3    H118513   1.519   4.299   0.390
 6169TIP3    H218514   1.391   4.379   0.374
 6170TIP3   OH218515   2.701   5.397   4.007
 6170TIP3    H118516   2.700   5.361   4.095
 6170TIP3    H218517   2.712   5.492   4.020
 6171TIP3   OH218518   3.562   4.228   4.015
 6171TIP3    H118519   3.496   4.286   3.978
 6171TIP3    H218520   3.632   4.287   4.044
 6172TIP3   OH218521   0.994   1.608   4.145
 6172TIP3    H118522   0.936   1.594   4.070
 6172TIP3    H218523   1.045   1.527   4.150
 6173TIP3   OH218524   5.970   5.472   3.723
 6173TIP3    H118525   5.912   5.447   3.651
 6173TIP3    H218526   5.978   5.392   3.776
 6174TIP3   OH218527   2.045   2.934   2.171
 6174TIP3    H118528   2.016   2.883   2.247
 6174TIP3    H218529   1.966   2.980   2.142
 6175TIP3   OH218530   0.512   2.276   0.857
 6175TIP3    H118531   0.460   2.200   0.881
 6175TIP3    H218532   0.449   2.342   0.830
 6176TIP3   OH218533   2.945   3.249   2.490
 6176TIP3    H118534   2.853   3.274   2.484
 6176TIP3    H218535   2.979   3.263   2.402
 6177TIP3   OH218536   0.013   5.524   1.468
 6177TIP3    H118537   0.000   5.440   1.423
 6177TIP3    H218538   0.080   5.505   1.535
 6178TIP3   OH218539   1.591   2.893   2.577
 6178TIP3    H118540   1.626   2.864   2.661
 6178TIP3    H218541   1.579   2.812   2.528
 6179TIP3   OH218542   0.660   0.698   0.342
 6179TIP3    H118543   0.703   0.646   0.275
 6179TIP3    H218544   0.572   0.661   0.348
 6180TIP3   OH218545   1.330   3.651   0.683
 6180TIP3    H118546   1.323   3.577   0.742
 6180TIP3    H218547   1.300   3.617   0.598
 6181TIP3   OH218548   4.177   0.661   3.031
 6181TIP3    H118549   4.236   0.595   3.068
 6181TIP3    H218550   4.178   0.733   3.095
 6182TIP3   OH218551   1.745   3.638   3.827
 6182TIP3    H118552   1.782   3.552   3.847
 6182TIP3    H218553   1.810   3.700   3.858
 6183TIP3   OH218554   5.414   2.016   4.110
 6183TIP3    H118555   5.443   2.092   4.160
 6183TIP3    H218556   5.421   1.943   4.171
 6184TIP3   OH218557   5.393   1.528   2.197
 6184TIP3    H118558   5.414   1.560   2.109
 6184TIP3    H218559   5.479   1.510   2.237
 6185TIP3   OH218560   1.238   3.176   2.646
 6185TIP3    H118561   1.182   3.109   2.685
 6185TIP3    H218562   1.209   3.258   2.686
 6186TIP3   OH218563   0.310   5.416   0.838
 6186TIP3    H118564   0.255   5.344   0.870
 6186TIP3    H218565   0.299   5.485   0.903
 6187TIP3   OH218566   5.982   1.325   4.092
 6187TIP3    H118567   5.963   1.311   4.000
 6187TIP3    H218568   6.072   1.294   4.103
 6188TIP3   OH218569   1.792   0.036   0.322
 6188TIP3    H118570   1.781   0.070   0.234
 6188TIP3    H218571   1.837  -0.048   0.311
 6189TIP3   OH218572   5.113   2.512   1.181
 6189TIP3    H118573   5.083   2.443   1.122
 6189TIP3    H218574   5.187   2.473   1.228
 6190TIP3   OH218575   0.481   0.229   5.083
 6190TIP3    H118576   0.574   0.239   5.104
 6190TIP3    H218577   0.479   0.170   5.008
 6191TIP3   OH218578   0.336   2.201   2.270
 6191TIP3    H118579   0.283   2.187   2.349
 6191TIP3    H218580   0.356   2.295   2.272
 6192TIP3   OH218581   1.722   0.571   2.063
 6192TIP3    H118582   1.774   0.603   1.990
 6192TIP3    H218583   1.650   0.523   2.022
 6193TIP3   OH218584   5.985   5.746   3.542
 6193TIP3    H118585   6.038   5.713   3.615
 6193TIP3    H218586   5.920   5.803   3.583
 6194TIP3   OH218587   1.355   5.536   3.314
 6194TIP3    H118588   1.369   5.600   3.244
 6194TIP3    H218589   1.300   5.582   3.377
 6195TIP3   OH218590   3.089   2.552   2.732
 6195TIP3    H118591   3.002   2.551   2.774
 6195TIP3    H218592   3.110   2.645   2.723
 6196TIP3   OH218593   3.065   1.255   0.095
 6196TIP3    H118594   3.000   1.310   0.139
 6196TIP3    H218595   3.027   1.168   0.093
 6197TIP3   OH218596   2.179   5.160   3.304
 6197TIP3    H118597   2.206   5.180   3.393
 6197TIP3    H218598   2.252   5.109   3.268
 6198TIP3   OH218599   3.422   5.331   2.927
 6198TIP3    H118600   3.513   5.356   2.941
 6198TIP3    H218601   3.424   5.276   2.849
 6199TIP3   OH218602   1.410   1.969   1.951
 6199TIP3    H118603   1.399   2.058   1.920
 6199TIP3    H218604   1.322   1.942   1.978
 6200TIP3   OH218605   3.055   2.315   3.789
 6200TIP3    H118606   3.080   2.290   3.877
 6200TIP3    H218607   3.008   2.398   3.800
 6201TIP3   OH218608   0.593   1.041   2.855
 6201TIP3    H118609   0.509   1.006   2.885
 6201TIP3    H218610   0.626   1.090   2.930
 6202TIP3   OH218611   4.091   1.601   2.967
 6202TIP3    H118612   4.053   1.621   2.882
 6202TIP3    H218613   4.158   1.535   2.949
 6203TIP3   OH218614   3.707   0.448   0.893
 6203TIP3    H118615   3.671   0.362   0.873
 6203TIP3    H218616   3.638   0.492   0.943
 6204TIP3   OH218617   5.202   5.063   2.437
 6204TIP3    H118618   5.176   4.988   2.383
 6204TIP3    H218619   5.252   5.024   2.509
 6205TIP3   OH218620   4.959   4.377   1.199
 6205TIP3    H118621   4.899   4.312   1.236
 6205TIP3    H218622   5.015   4.327   1.140
 6206TIP3   OH218623   1.716   3.485   1.938
 6206TIP3    H118624   1.630   3.510   1.972
 6206TIP3    H218625   1.773   3.558   1.963
 6207TIP3   OH218626   6.307   1.998   1.182
 6207TIP3    H118627   6.230   2.018   1.235
 6207TIP3    H218628   6.317   2.073   1.124
 6208TIP3   OH218629   6.072   3.562   0.481
 6208TIP3    H118630   6.106   3.607   0.559
 6208TIP3    H218631   6.136   3.582   0.412
 6209TIP3   OH218632   4.903   3.963   1.030
 6209TIP3    H118633   4.860   3.944   1.113
 6209TIP3    H218634   4.973   4.024   1.051
 6210TIP3   OH218635   2.539   4.611   2.404
 6210TIP3    H118636   2.584   4.695   2.394
 6210TIP3    H218637   2.610   4.548   2.412
 6211TIP3   OH218638   5.936   0.836   1.703
 6211TIP3    H118639   5.928   0.923   1.664
 6211TIP3    H218640   5.853   0.822   1.749
 6212TIP3   OH218641   1.636   0.212   5.160
 6212TIP3    H118642   1.708   0.186   5.217
 6212TIP3    H218643   1.656   0.171   5.075
 6213TIP3   OH218644   2.190   2.258   0.762
 6213TIP3    H118645   2.156   2.229   0.847
 6213TIP3    H218646   2.284   2.269   0.777
 6214TIP3   OH218647   1.470   3.486   3.897
 6214TIP3    H118648   1.431   3.415   3.847
 6214TIP3    H218649   1.460   3.563   3.842
 6215TIP3   OH218650   3.636   3.117   4.183
 6215TIP3    H118651   3.627   3.146   4.274
 6215TIP3    H218652   3.591   3.184   4.132
 6216TIP3   OH218653   1.335   5.490   4.605
 6216TIP3    H118654   1.270   5.540   4.654
 6216TIP3    H218655   1.284   5.435   4.545
 6217TIP3   OH218656   2.834   0.436   2.225
 6217TIP3    H118657   2.791   0.515   2.257
 6217TIP3    H218658   2.769   0.393   2.170
 6218TIP3   OH218659   2.723   0.282   1.363
 6218TIP3    H118660   2.647   0.339   1.356
 6218TIP3    H218661   2.768   0.292   1.279
 6219TIP3   OH218662   4.779   1.553   2.662
 6219TIP3    H118663   4.846   1.593   2.607
 6219TIP3    H218664   4.730   1.627   2.697
 6220TIP3   OH218665   0.632   1.321   3.949
 6220TIP3    H118666   0.547   1.365   3.959
 6220TIP3    H218667   0.610   1.234   3.918
 6221TIP3   OH218668   3.327   0.820   4.277
 6221TIP3    H118669   3.380   0.797   4.354
 6221TIP3    H218670   3.250   0.864   4.313
 6222TIP3   OH218671   5.282   5.946   1.231
 6222TIP3    H118672   5.304   5.863   1.273
 6222TIP3    H218673   5.341   5.952   1.156
 6223TIP3   OH218674   1.921   5.442   2.765
 6223TIP3    H118675   1.848   5.495   2.733
 6223TIP3    H218676   1.898   5.421   2.856
 6224TIP3   OH218677   3.139   5.341   1.204
 6224TIP3    H118678   3.197   5.278   1.160
 6224TIP3    H218679   3.165   5.426   1.169
 6225TIP3   OH218680   1.801   3.093   3.544
 6225TIP3    H118681   1.858   3.159   3.583
 6225TIP3    H218682   1.778   3.035   3.616
 6226TIP3   OH218683   2.185   0.530   0.228
 6226TIP3    H118684   2.182   0.483   0.145
 6226TIP3    H218685   2.251   0.482   0.279
 6227TIP3   OH218686   4.624   2.384   2.990
 6227TIP3    H118687   4.677   2.360   3.066
 6227TIP3    H218688   4.646   2.477   2.975
 6228TIP3   OH218689   4.726   3.861   2.986
 6228TIP3    H118690   4.728   3.807   2.907
 6228TIP3    H218691   4.703   3.949   2.954
 6229TIP3   OH218692   1.136   3.711   3.613
 6229TIP3    H118693   1.146   3.797   3.654
 6229TIP3    H218694   1.094   3.730   3.529
 6230TIP3   OH218695   3.659   5.372   1.146
 6230TIP3    H118696   3.722   5.353   1.215
 6230TIP3    H218697   3.712   5.386   1.068
 6231TIP3   OH218698   0.628   5.509   0.754
 6231TIP3    H118699   0.552   5.566   0.769
 6231TIP3    H218700   0.631   5.499   0.659
 6232TIP3   OH218701   1.499   0.690   4.260
 6232TIP3    H118702   1.490   0.714   4.168
 6232TIP3    H218703   1.592   0.673   4.272
 6233TIP3   OH218704   1.674   3.062   1.550
 6233TIP3    H118705   1.620   3.133   1.581
 6233TIP3    H218706   1.644   2.985   1.599
 6234TIP3   OH218707   3.147   4.701   2.174
 6234TIP3    H118708   3.195   4.719   2.254
 6234TIP3    H218709   3.105   4.785   2.152
 6235TIP3   OH218710   1.759   0.609   2.539
 6235TIP3    H118711   1.828   0.664   2.502
 6235TIP3    H218712   1.745   0.541   2.473
 6236TIP3   OH218713   3.460   0.535   0.440
 6236TIP3    H118714   3.409   0.531   0.520
 6236TIP3    H218715   3.396   0.552   0.371
 6237TIP3   OH218716   5.131   4.127   0.739
 6237TIP3    H118717   5.064   4.146   0.673
 6237TIP3    H218718   5.213   4.127   0.689
 6238TIP3   OH218719   5.640   0.098   2.566
 6238TIP3    H118720   5.564   0.119   2.620
 6238TIP3    H218721   5.666   0.010   2.595
 6239TIP3   OH218722   2.231   5.988   2.321
 6239TIP3    H118723   2.198   5.921   2.380
 6239TIP3    H218724   2.289   6.042   2.376
 6240TIP3   OH218725   2.451   1.908   4.580
 6240TIP3    H118726   2.401   1.917   4.661
 6240TIP3    H218727   2.543   1.914   4.608
 6241TIP3   OH218728   2.628   2.696   1.906
 6241TIP3    H118729   2.634   2.780   1.860
 6241TIP3    H218730   2.654   2.631   1.841
 6242TIP3   OH218731   4.029   0.094   0.579
 6242TIP3    H118732   4.037   0.108   0.673
 6242TIP3    H218733   3.936   0.078   0.564
 6243TIP3   OH218734   3.486   4.357   0.132
 6243TIP3    H118735   3.558   4.309   0.089
 6243TIP3    H218736   3.530   4.422   0.186
 6244TIP3   OH218737   4.517   2.115   3.013
 6244TIP3    H118738   4.547   2.206   3.004
 6244TIP3    H218739   4.465   2.116   3.094
 6245TIP3   OH218740   1.433   2.388   4.674
 6245TIP3    H118741   1.519   2.360   4.642
 6245TIP3    H218742   1.453   2.456   4.739
 6246TIP3   OH218743   1.288   4.141   3.914
 6246TIP3    H118744   1.260   4.118   4.003
 6246TIP3    H218745   1.210   4.179   3.874
 6247TIP3   OH218746   3.015   3.042   0.074
 6247TIP3    H118747   3.102   3.049   0.033
 6247TIP3    H218748   2.984   2.955   0.048
 6248TIP3   OH218749   3.659   0.551   4.730
 6248TIP3    H118750   3.618   0.567   4.645
 6248TIP3    H218751   3.747   0.521   4.709
 6249TIP3   OH218752   2.690   2.577   3.149
 6249TIP3    H118753   2.670   2.606   3.237
 6249TIP3    H218754   2.736   2.494   3.160
 6250TIP3   OH218755   3.156   1.357   3.965
 6250TIP3    H118756   3.188   1.423   4.026
 6250TIP3    H218757   3.157   1.400   3.880
 6251TIP3   OH218758   3.770   0.621   5.134
 6251TIP3    H118759   3.809   0.646   5.218
 6251TIP3    H218760   3.843   0.591   5.081
 6252TIP3   OH218761   2.112   4.142   0.063
 6252TIP3    H118762   2.153   4.227   0.076
 6252TIP3    H218763   2.179   4.090   0.018
 6253TIP3   OH218764   2.982   4.525   4.005
 6253TIP3    H118765   2.992   4.620   4.006
 6253TIP3    H218766   2.993   4.498   4.096
 6254TIP3   OH218767   0.574   0.671   4.530
 6254TIP3    H118768   0.519   0.740   4.567
 6254TIP3    H218769   0.664   0.702   4.542
 6255TIP3   OH218770   4.098   0.685   4.331
 6255TIP3    H118771   4.052   0.608   4.365
 6255TIP3    H218772   4.034   0.728   4.274
 6256TIP3   OH218773   0.697   4.641   0.113
 6256TIP3    H118774   0.601   4.646   0.109
 6256TIP3    H218775   0.715   4.608   0.201
 6257TIP3   OH218776   1.378   3.301   3.693
 6257TIP3    H118777   1.472   3.283   3.684
 6257TIP3    H218778   1.336   3.216   3.682
 6258TIP3   OH218779   5.851   1.698   2.450
 6258TIP3    H118780   5.889   1.781   2.478
 6258TIP3    H218781   5.924   1.649   2.413
 6259TIP3   OH218782   0.970   1.719   0.055
 6259TIP3    H118783   0.983   1.694   0.146
 6259TIP3    H218784   0.899   1.662   0.024
 6260TIP3   OH218785   5.078   5.614   0.503
 6260TIP3    H118786   4.994   5.568   0.507
 6260TIP3    H218787   5.124   5.574   0.429
 6261TIP3   OH218788   3.824   2.985   1.838
 6261TIP3    H118789   3.821   2.899   1.794
 6261TIP3    H218790   3.776   2.971   1.920
 6262TIP3   OH218791   3.887   5.555   0.221
 6262TIP3    H118792   3.930   5.542   0.136
 6262TIP3    H218793   3.795   5.533   0.206
 6263TIP3   OH218794   4.057   3.782   4.609
 6263TIP3    H118795   3.998   3.708   4.611
 6263TIP3    H218796   4.144   3.743   4.600
 6264TIP3   OH218797   0.359   4.835   1.279
 6264TIP3    H118798   0.449   4.834   1.247
 6264TIP3    H218799   0.362   4.786   1.361
 6265TIP3   OH218800   3.478   5.018   1.653
 6265TIP3    H118801   3.496   4.939   1.704
 6265TIP3    H218802   3.561   5.067   1.655
 6266TIP3   OH218803   5.542   3.615   4.164
 6266TIP3    H118804   5.480   3.663   4.110
 6266TIP3    H218805   5.516   3.523   4.154
 6267TIP3   OH218806   0.897   4.552   2.658
 6267TIP3    H118807   0.972   4.495   2.641
 6267TIP3    H218808   0.921   4.637   2.621
 6268TIP3   OH218809   3.566   5.921   3.349
 6268TIP3    H118810   3.539   6.010   3.369
 6268TIP3    H218811   3.624   5.896   3.421
 6269TIP3   OH218812   2.320   2.838   2.931
 6269TIP3    H118813   2.317   2.893   3.009
 6269TIP3    H218814   2.378   2.885   2.870
 6270TIP3   OH218815   3.799   5.942   4.355
 6270TIP3    H118816   3.740   6.017   4.344
 6270TIP3    H218817   3.812   5.909   4.266
 6271TIP3   OH218818   5.200   1.521   1.222
 6271TIP3    H118819   5.216   1.607   1.182
 6271TIP3    H218820   5.133   1.481   1.167
 6272TIP3   OH218821   3.770   2.508   3.195
 6272TIP3    H118822   3.830   2.456   3.142
 6272TIP3    H218823   3.735   2.446   3.260
 6273TIP3   OH218824   4.722   5.354   2.728
 6273TIP3    H118825   4.778   5.368   2.804
 6273TIP3    H218826   4.748   5.268   2.695
 6274TIP3   OH218827   4.057   2.555   3.032
 6274TIP3    H118828   3.988   2.489   3.028
 6274TIP3    H218829   4.052   2.601   2.948
 6275TIP3   OH218830   0.440   5.225   0.465
 6275TIP3    H118831   0.424   5.188   0.551
 6275TIP3    H218832   0.355   5.223   0.421
 6276TIP3   OH218833   0.086   2.384   0.821
 6276TIP3    H118834   0.107   2.450   0.887
 6276TIP3    H218835   0.171   2.355   0.787
 6277TIP3   OH218836   4.374   1.469   2.704
 6277TIP3    H118837   4.290   1.448   2.662
 6277TIP3    H218838   4.422   1.520   2.638
 6278TIP3   OH218839   2.351   4.842   2.047
 6278TIP3    H118840   2.376   4.934   2.040
 6278TIP3    H218841   2.290   4.840   2.120
 6279TIP3   OH218842   5.985   3.730   0.180
 6279TIP3    H118843   6.075   3.713   0.206
 6279TIP3    H218844   5.948   3.780   0.253
 6280TIP3   OH218845   4.910   3.267   3.955
 6280TIP3    H118846   4.872   3.179   3.952
 6280TIP3    H218847   4.840   3.324   3.922
 6281TIP3   OH218848   3.096   0.170   0.853
 6281TIP3    H118849   3.046   0.194   0.931
 6281TIP3    H218850   3.031   0.170   0.783
 6282TIP3   OH218851   5.999   5.865   4.746
 6282TIP3    H118852   5.974   5.911   4.666
 6282TIP3    H218853   5.967   5.776   4.732
 6283TIP3   OH218854   3.605   4.616   3.269
 6283TIP3    H118855   3.551   4.663   3.206
 6283TIP3    H218856   3.663   4.683   3.305
 6284TIP3   OH218857   4.898   4.815   1.678
 6284TIP3    H118858   4.834   4.885   1.676
 6284TIP3    H218859   4.900   4.781   1.588
 6285TIP3   OH218860   4.550   4.116   5.077
 6285TIP3    H118861   4.590   4.037   5.039
 6285TIP3    H218862   4.550   4.179   5.005
 6286TIP3   OH218863   3.139   5.062   3.243
 6286TIP3    H118864   3.208   5.072   3.309
 6286TIP3    H218865   3.058   5.068   3.292
 6287TIP3   OH218866   3.248   5.789   4.654
 6287TIP3    H118867   3.247   5.788   4.749
 6287TIP3    H218868   3.185   5.857   4.630
 6288TIP3   OH218869   5.941   4.045   4.363
 6288TIP3    H118870   6.033   4.058   4.385
 6288TIP3    H218871   5.943   3.992   4.284
 6289TIP3   OH218872   6.153   3.410   1.782
 6289TIP3    H118873   6.163   3.315   1.769
 6289TIP3    H218874   6.143   3.420   1.877
 6290TIP3   OH218875   3.017   4.928   3.818
 6290TIP3    H118876   2.980   4.912   3.731
 6290TIP3    H218877   2.998   5.019   3.837
 6291TIP3   OH218878   4.301   4.791   1.449
 6291TIP3    H118879   4.234   4.748   1.396
 6291TIP3    H218880   4.382   4.745   1.427
 6292TIP3   OH218881   4.132   2.111   4.271
 6292TIP3    H118882   4.045   2.136   4.300
 6292TIP3    H218883   4.178   2.087   4.351
 6293TIP3   OH218884   4.681   0.763   4.135
 6293TIP3    H118885   4.618   0.717   4.190
 6293TIP3    H218886   4.693   0.848   4.178
 6294TIP3   OH218887   4.037   4.775   3.125
 6294TIP3    H118888   4.099   4.714   3.084
 6294TIP3    H218889   4.087   4.818   3.194
 6295TIP3   OH218890   4.958   4.516   0.797
 6295TIP3    H118891   4.922   4.598   0.765
 6295TIP3    H218892   5.041   4.540   0.839
 6296TIP3   OH218893   5.611   5.934   3.874
 6296TIP3    H118894   5.525   5.969   3.894
 6296TIP3    H218895   5.670   5.977   3.937
 6297TIP3   OH218896   1.376   3.268   0.181
 6297TIP3    H118897   1.300   3.220   0.215
 6297TIP3    H218898   1.373   3.352   0.226
 6298TIP3   OH218899   5.031   4.020   3.702
 6298TIP3    H118900   5.047   3.939   3.655
 6298TIP3    H218901   5.060   4.002   3.792
 6299TIP3   OH218902   2.961   3.802   3.543
 6299TIP3    H118903   2.999   3.716   3.526
 6299TIP3    H218904   3.010   3.836   3.618
 6300TIP3   OH218905   3.381   4.302   2.719
 6300TIP3    H118906   3.321   4.323   2.647
 6300TIP3    H218907   3.325   4.300   2.797
 6301TIP3   OH218908   5.681   0.040   3.672
 6301TIP3    H118909   5.729   0.090   3.606
 6301TIP3    H218910   5.653   0.106   3.735
 6302TIP3   OH218911   0.661   1.205   0.205
 6302TIP3    H118912   0.571   1.201   0.239
 6302TIP3    H218913   0.658   1.153   0.124
 6303TIP3   OH218914   0.614   4.262   3.573
 6303TIP3    H118915   0.552   4.329   3.605
 6303TIP3    H218916   0.636   4.290   3.485
 6304TIP3   OH218917   0.534   2.962   5.018
 6304TIP3    H118918   0.541   2.866   5.015
 6304TIP3    H218919   0.457   2.978   5.073
 6305TIP3   OH218920   3.745   0.767   4.117
 6305TIP3    H118921   3.652   0.774   4.137
 6305TIP3    H218922   3.785   0.734   4.197
 6306TIP3   OH218923   2.305   3.211   3.576
 6306TIP3    H118924   2.249   3.185   3.503
 6306TIP3    H218925   2.278   3.156   3.649
 6307TIP3   OH218926   6.272   0.908   0.815
 6307TIP3    H118927   6.359   0.899   0.855
 6307TIP3    H218928   6.267   0.834   0.754
 6308TIP3   OH218929   3.387   0.191   3.555
 6308TIP3    H118930   3.341   0.107   3.552
 6308TIP3    H218931   3.456   0.182   3.489
 6309TIP3   OH218932   5.965   5.573   4.287
 6309TIP3    H118933   5.985   5.664   4.267
 6309TIP3    H218934   6.043   5.525   4.259
 6310TIP3   OH218935   5.916   0.208   2.016
 6310TIP3    H118936   5.842   0.151   1.997
 6310TIP3    H218937   5.876   0.289   2.050
 6311TIP3   OH218938   4.542   1.020   0.579
 6311TIP3    H118939   4.528   1.069   0.498
 6311TIP3    H218940   4.613   1.066   0.623
 6312TIP3   OH218941   2.583   0.885   5.142
 6312TIP3    H118942   2.581   0.954   5.075
 6312TIP3    H218943   2.491   0.860   5.152
 6313TIP3   OH218944   4.920   0.945   1.490
 6313TIP3    H118945   4.857   0.982   1.428
 6313TIP3    H218946   4.879   0.954   1.575
 6314TIP3   OH218947   1.194   4.509   1.656
 6314TIP3    H118948   1.264   4.569   1.629
 6314TIP3    H218949   1.129   4.566   1.699
 6315TIP3   OH218950   2.125   4.897   1.190
 6315TIP3    H118951   2.042   4.852   1.207
 6315TIP3    H218952   2.134   4.896   1.095
 6316TIP3   OH218953   0.134   5.451   3.808
 6316TIP3    H118954   0.155   5.529   3.756
 6316TIP3    H218955   0.046   5.427   3.781
 6317TIP3   OH218956   3.053   1.350   2.617
 6317TIP3    H118957   2.990   1.419   2.640
 6317TIP3    H218958   3.010   1.300   2.548
 6318TIP3   OH218959   5.424   3.626   4.748
 6318TIP3    H118960   5.401   3.676   4.670
 6318TIP3    H218961   5.519   3.620   4.746
 6319TIP3   OH218962   2.872   5.044   4.170
 6319TIP3    H118963   2.797   4.987   4.154
 6319TIP3    H218964   2.933   4.990   4.222
 6320TIP3   OH218965   3.331   0.942   3.094
 6320TIP3    H118966   3.351   1.016   3.037
 6320TIP3    H218967   3.412   0.890   3.095
 6321TIP3   OH218968   4.924   3.329   2.125
 6321TIP3    H118969   4.954   3.331   2.215
 6321TIP3    H218970   4.856   3.262   2.124
 6322TIP3   OH218971   5.949   2.094   2.622
 6322TIP3    H118972   5.979   2.077   2.712
 6322TIP3    H218973   5.987   2.022   2.571
 6323TIP3   OH218974   4.035   5.645   1.054
 6323TIP3    H118975   3.992   5.726   1.081
 6323TIP3    H218976   4.010   5.634   0.963
 6324TIP3   OH218977   0.034   3.190   0.898
 6324TIP3    H118978   0.105   3.239   0.939
 6324TIP3    H218979   0.034   3.219   0.807
 6325TIP3   OH218980   3.716   1.209   4.055
 6325TIP3    H118981   3.681   1.143   4.116
 6325TIP3    H218982   3.760   1.273   4.112
 6326TIP3   OH218983   1.595   4.937   2.012
 6326TIP3    H118984   1.536   4.863   1.995
 6326TIP3    H218985   1.641   4.912   2.092
 6327TIP3   OH218986   3.575   3.753   1.452
 6327TIP3    H118987   3.623   3.671   1.435
 6327TIP3    H218988   3.643   3.816   1.476
 6328TIP3   OH218989   0.413   3.825   0.281
 6328TIP3    H118990   0.460   3.858   0.357
 6328TIP3    H218991   0.460   3.744   0.258
 6329TIP3   OH218992   1.624   5.582   1.813
 6329TIP3    H118993   1.557   5.543   1.757
 6329TIP3    H218994   1.576   5.644   1.868
 6330TIP3   OH218995   2.568   4.565   1.744
 6330TIP3    H118996   2.646   4.539   1.695
 6330TIP3    H218997   2.580   4.658   1.761
 6331TIP3   OH218998   4.670   2.478   3.880
 6331TIP3    H118999   4.766   2.474   3.885
 6331TIP3    H219000   4.642   2.488   3.971
 6332TIP3   OH219001   0.735   5.373   4.800
 6332TIP3    H119002   0.690   5.399   4.720
 6332TIP3    H219003   0.809   5.320   4.770
 6333TIP3   OH219004   0.356   4.467   2.187
 6333TIP3    H119005   0.369   4.499   2.098
 6333TIP3    H219006   0.348   4.372   2.177
 6334TIP3   OH219007   5.490   0.700   1.629
 6334TIP3    H119008   5.455   0.767   1.689
 6334TIP3    H219009   5.412   0.650   1.602
 6335TIP3   OH219010   5.563   1.390   2.796
 6335TIP3    H119011   5.581   1.427   2.709
 6335TIP3    H219012   5.485   1.436   2.826
 6336TIP3   OH219013   1.319   3.766   4.376
 6336TIP3    H119014   1.357   3.851   4.397
 6336TIP3    H219015   1.225   3.784   4.365
 6337TIP3   OH219016   1.391   5.337   1.002
 6337TIP3    H119017   1.455   5.394   1.044
 6337TIP3    H219018   1.330   5.313   1.072
 6338TIP3   OH219019   1.164   4.754   3.648
 6338TIP3    H119020   1.180   4.732   3.739
 6338TIP3    H219021   1.164   4.849   3.645
 6339TIP3   OH219022   0.150   0.506   3.448
 6339TIP3    H119023   0.073   0.562   3.459
 6339TIP3    H219024   0.137   0.436   3.513
 6340TIP3   OH219025   4.418   0.062   0.612
 6340TIP3    H119026   4.434   0.074   0.519
 6340TIP3    H219027   4.383  -0.027   0.619
 6341TIP3   OH219028   5.812   1.138   2.217
 6341TIP3    H119029   5.856   1.222   2.231
 6341TIP3    H219030   5.727   1.161   2.179
 6342TIP3   OH219031   3.967   0.248   3.071
 6342TIP3    H119032   4.012   0.221   2.992
 6342TIP3    H219033   3.939   0.338   3.054
 6343TIP3   OH219034   5.677   3.931   0.777
 6343TIP3    H119035   5.696   3.839   0.796
 6343TIP3    H219036   5.581   3.936   0.779
 6344TIP3   OH219037   4.519   5.905   4.366
 6344TIP3    H119038   4.442   5.883   4.418
 6344TIP3    H219039   4.527   6.000   4.373
 6345TIP3   OH219040   2.348   5.386   3.703
 6345TIP3    H119041   2.362   5.445   3.628
 6345TIP3    H219042   2.431   5.340   3.714
 6346TIP3   OH219043   3.445   0.847   3.655
 6346TIP3    H119044   3.496   0.868   3.732
 6346TIP3    H219045   3.355   0.836   3.687
 6347TIP3   OH219046   0.645   1.863   5.102
 6347TIP3    H119047   0.611   1.911   5.027
 6347TIP3    H219048   0.619   1.916   5.178
 6348TIP3   OH219049   0.462   1.091   3.999
 6348TIP3    H119050   0.462   1.076   3.904
 6348TIP3    H219051   0.436   1.008   4.037
 6349TIP3   OH219052   5.239   3.463   3.776
 6349TIP3    H119053   5.174   3.516   3.822
 6349TIP3    H219054   5.190   3.391   3.738
 6350TIP3   OH219055   3.619   5.923   4.963
 6350TIP3    H119056   3.612   5.973   5.044
 6350TIP3    H219057   3.539   5.943   4.915
 6351TIP3   OH219058   5.002   5.910   3.178
 6351TIP3    H119059   4.993   5.867   3.262
 6351TIP3    H219060   4.931   5.873   3.125
 6352TIP3   OH219061   1.576   5.766   2.486
 6352TIP3    H119062   1.488   5.783   2.521
 6352TIP3    H219063   1.562   5.698   2.420
 6353TIP3   OH219064   0.964   3.269   0.010
 6353TIP3    H119065   0.890   3.227  -0.033
 6353TIP3    H219066   0.926   3.347   0.051
 6354TIP3   OH219067   6.332   0.296   1.400
 6354TIP3    H119068   6.406   0.252   1.357
 6354TIP3    H219069   6.291   0.227   1.451
 6355TIP3   OH219070   4.575   3.348   4.222
 6355TIP3    H119071   4.511   3.371   4.290
 6355TIP3    H219072   4.555   3.408   4.150
 6356TIP3   OH219073   1.919   3.510   0.697
 6356TIP3    H119074   1.980   3.572   0.737
 6356TIP3    H219075   1.964   3.426   0.701
 6357TIP3   OH219076   0.045   3.324   1.328
 6357TIP3    H119077   0.025   3.417   1.342
 6357TIP3    H219078   0.093   3.321   1.245
 6358TIP3   OH219079   0.597   5.693   4.919
 6358TIP3    H119080   0.554   5.608   4.915
 6358TIP3    H219081   0.538   5.748   4.970
 6359TIP3   OH219082   0.065   4.875   3.197
 6359TIP3    H119083   0.159   4.863   3.206
 6359TIP3    H219084   0.056   4.943   3.130
 6360TIP3   OH219085   1.437   4.149   4.158
 6360TIP3    H119086   1.381   4.227   4.168
 6360TIP3    H219087   1.512   4.180   4.106
 6361TIP3   OH219088   4.665   4.040   0.802
 6361TIP3    H119089   4.655   4.109   0.736
 6361TIP3    H219090   4.733   4.071   0.860
 6362TIP3   OH219091   2.273   1.666   4.713
 6362TIP3    H119092   2.266   1.757   4.742
 6362TIP3    H219093   2.306   1.672   4.623
 6363TIP3   OH219094   4.793   1.002   0.366
 6363TIP3    H119095   4.704   1.029   0.386
 6363TIP3    H219096   4.820   1.061   0.294
 6364TIP3   OH219097   1.066   4.682   0.296
 6364TIP3    H119098   0.983   4.723   0.271
 6364TIP3    H219099   1.054   4.658   0.388
 6365TIP3   OH219100   4.415   5.927   3.418
 6365TIP3    H119101   4.335   5.885   3.388
 6365TIP3    H219102   4.390   6.019   3.431
 6366TIP3   OH219103   4.232   5.816   3.219
 6366TIP3    H119104   4.165   5.877   3.186
 6366TIP3    H219105   4.185   5.764   3.284
 6367TIP3   OH219106   4.046   0.145   2.484
 6367TIP3    H119107   4.000   0.214   2.436
 6367TIP3    H219108   4.134   0.145   2.447
 6368TIP3   OH219109   0.292   1.190   3.428
 6368TIP3    H119110   0.312   1.253   3.359
 6368TIP3    H219111   0.206   1.154   3.404
 6369TIP3   OH219112   3.984  -0.020   1.324
 6369TIP3    H119113   3.930   0.056   1.303
 6369TIP3    H219114   4.073   0.007   1.303
 6370TIP3   OH219115   0.414   1.305   1.430
 6370TIP3    H119116   0.434   1.224   1.385
 6370TIP3    H219117   0.500   1.340   1.456
 6371TIP3   OH219118   0.061   4.003   1.137
 6371TIP3    H119119   0.067   4.075   1.199
 6371TIP3    H219120   0.003   3.939   1.179
 6372TIP3   OH219121   3.289   4.695   3.915
 6372TIP3    H119122   3.215   4.748   3.946
 6372TIP3    H219123   3.355   4.759   3.889
 6373TIP3   OH219124   4.234   5.655   3.715
 6373TIP3    H119125   4.271   5.567   3.708
 6373TIP3    H219126   4.186   5.654   3.798
 6374TIP3   OH219127   0.412   1.304   1.067
 6374TIP3    H119128   0.425   1.389   1.108
 6374TIP3    H219129   0.372   1.250   1.135
 6375TIP3   OH219130   2.551   3.913   1.626
 6375TIP3    H119131   2.558   3.902   1.721
 6375TIP3    H219132   2.565   3.825   1.590
 6376TIP3   OH219133   5.293   3.073   0.633
 6376TIP3    H119134   5.275   3.013   0.705
 6376TIP3    H219135   5.206   3.104   0.605
 6377TIP3   OH219136   3.099   3.885   0.890
 6377TIP3    H119137   3.176   3.935   0.863
 6377TIP3    H219138   3.025   3.943   0.873
 6378TIP3   OH219139   0.819   0.071   0.776
 6378TIP3    H119140   0.745   0.046   0.720
 6378TIP3    H219141   0.870  -0.010   0.785
 6379TIP3   OH219142   2.816   1.124   0.983
 6379TIP3    H119143   2.809   1.051   1.045
 6379TIP3    H219144   2.730   1.166   0.987
 6380TIP3   OH219145   2.439   3.677   4.758
 6380TIP3    H119146   2.347   3.701   4.743
 6380TIP3    H219147   2.436   3.583   4.776
 6381TIP3   OH219148   3.970   0.540   2.865
 6381TIP3    H119149   4.024   0.581   2.932
 6381TIP3    H219150   4.032   0.490   2.812
 6382TIP3   OH219151   2.531   5.138   1.749
 6382TIP3    H119152   2.551   5.225   1.713
 6382TIP3    H219153   2.616   5.100   1.770
 6383TIP3   OH219154   1.405   2.350   4.312
 6383TIP3    H119155   1.489   2.305   4.301
 6383TIP3    H219156   1.399   2.366   4.406
 6384TIP3   OH219157   5.934   3.613   4.475
 6384TIP3    H119158   6.029   3.601   4.485
 6384TIP3    H219159   5.925   3.701   4.438
 6385TIP3   OH219160   5.104   1.128   1.404
 6385TIP3    H119161   5.198   1.114   1.412
 6385TIP3    H219162   5.065   1.045   1.430
 6386TIP3   OH219163   1.860   4.238   1.340
 6386TIP3    H119164   1.910   4.159   1.317
 6386TIP3    H219165   1.900   4.308   1.288
 6387TIP3   OH219166   2.465   0.569   5.047
 6387TIP3    H119167   2.429   0.632   5.110
 6387TIP3    H219168   2.501   0.623   4.977
 6388TIP3   OH219169   3.133   0.176   2.958
 6388TIP3    H119170   3.082   0.176   2.876
 6388TIP3    H219171   3.210   0.228   2.937
 6389TIP3   OH219172   5.052   1.124   0.451
 6389TIP3    H119173   5.051   1.036   0.411
 6389TIP3    H219174   5.144   1.143   0.463
 6390TIP3   OH219175   4.749   0.973   4.323
 6390TIP3    H119176   4.674   0.958   4.380
 6390TIP3    H219177   4.819   1.002   4.382
 6391TIP3   OH219178   6.286   1.854   0.542
 6391TIP3    H119179   6.261   1.899   0.461
 6391TIP3    H219180   6.371   1.892   0.565
 6392TIP3   OH219181   4.634   3.739   4.401
 6392TIP3    H119182   4.687   3.678   4.350
 6392TIP3    H219183   4.683   3.822   4.396
 6393TIP3   OH219184   4.988   4.686   4.257
 6393TIP3    H119185   4.969   4.725   4.171
 6393TIP3    H219186   4.944   4.744   4.319
 6394TIP3   OH219187   4.417   5.883   1.934
 6394TIP3    H119188   4.393   5.822   1.864
 6394TIP3    H219189   4.484   5.939   1.896
 6395TIP3   OH219190   1.220   4.321   0.260
 6395TIP3    H119191   1.160   4.315   0.186
 6395TIP3    H219192   1.169   4.361   0.330
 6396TIP3   OH219193   4.035   0.501   0.175
 6396TIP3    H119194   3.964   0.552   0.135
 6396TIP3    H219195   3.990   0.441   0.235
 6397TIP3   OH219196   3.357   1.343   2.266
 6397TIP3    H119197   3.448   1.350   2.295
 6397TIP3    H219198   3.306   1.366   2.343
 6398TIP3   OH219199   5.120   1.872   1.867
 6398TIP3    H119200   5.186   1.804   1.881
 6398TIP3    H219201   5.155   1.949   1.911
 6399TIP3   OH219202   1.649   3.746   2.362
 6399TIP3    H119203   1.610   3.763   2.276
 6399TIP3    H219204   1.721   3.808   2.368
 6400TIP3   OH219205   4.746   2.807   1.775
 6400TIP3    H119206   4.771   2.846   1.691
 6400TIP3    H219207   4.785   2.864   1.841
 6401TIP3   OH219208   4.972   1.117   3.713
 6401TIP3    H119209   4.888   1.085   3.679
 6401TIP3    H219210   5.038   1.068   3.664
 6402TIP3   OH219211   4.488   0.188   1.750
 6402TIP3    H119212   4.525   0.212   1.835
 6402TIP3    H219213   4.546   0.119   1.718
 6403TIP3   OH219214   2.034   2.028   1.959
 6403TIP3    H119215   1.944   2.054   1.981
 6403TIP3    H219216   2.065   2.097   1.900
 6404TIP3   OH219217   1.908   4.722   0.836
 6404TIP3    H119218   1.859   4.733   0.917
 6404TIP3    H219219   1.910   4.628   0.821
 6405TIP3   OH219220   4.751   0.888   1.714
 6405TIP3    H119221   4.722   0.807   1.758
 6405TIP3    H219222   4.672   0.923   1.674
 6406TIP3   OH219223   4.265   2.555   4.869
 6406TIP3    H119224   4.278   2.543   4.775
 6406TIP3    H219225   4.218   2.477   4.898
 6407TIP3   OH219226   1.198   4.494   1.304
 6407TIP3    H119227   1.223   4.432   1.236
 6407TIP3    H219228   1.119   4.456   1.344
 6408TIP3   OH219229   3.189   4.440   4.609
 6408TIP3    H119230   3.264   4.401   4.564
 6408TIP3    H219231   3.228   4.485   4.685
 6409TIP3   OH219232   0.333   2.226   1.835
 6409TIP3    H119233   0.317   2.232   1.929
 6409TIP3    H219234   0.248   2.206   1.797
 6410TIP3   OH219235   5.280   5.416   1.500
 6410TIP3    H119236   5.214   5.464   1.549
 6410TIP3    H219237   5.351   5.401   1.563
 6411TIP3   OH219238   1.881   2.603   1.862
 6411TIP3    H119239   1.899   2.603   1.956
 6411TIP3    H219240   1.956   2.556   1.824
 6412TIP3   OH219241   4.461   3.032   4.243
 6412TIP3    H119242   4.440   3.051   4.151
 6412TIP3    H219243   4.494   3.114   4.278
 6413TIP3   OH219244   0.350   3.727   2.376
 6413TIP3    H119245   0.265   3.749   2.338
 6413TIP3    H219246   0.348   3.764   2.464
 6414TIP3   OH219247   3.805   3.856   4.711
 6414TIP3    H119248   3.852   3.907   4.645
 6414TIP3    H219249   3.873   3.821   4.768
 6415TIP3   OH219250   4.908   5.545   3.697
 6415TIP3    H119251   4.852   5.611   3.738
 6415TIP3    H219252   4.876   5.540   3.607
 6416TIP3   OH219253   4.120   1.585   0.316
 6416TIP3    H119254   4.109   1.502   0.361
 6416TIP3    H219255   4.212   1.608   0.328
 6417TIP3   OH219256   3.830   5.752   3.202
 6417TIP3    H119257   3.799   5.771   3.290
 6417TIP3    H219258   3.925   5.746   3.210
 6418TIP3   OH219259   6.146   5.580   1.800
 6418TIP3    H119260   6.142   5.605   1.893
 6418TIP3    H219261   6.225   5.527   1.793
 6419TIP3   OH219262   4.103   4.732   2.283
 6419TIP3    H119263   4.166   4.772   2.342
 6419TIP3    H219264   4.111   4.638   2.299
 6420TIP3   OH219265   0.520   3.008   2.140
 6420TIP3    H119266   0.488   3.090   2.177
 6420TIP3    H219267   0.441   2.961   2.115
 6421TIP3   OH219268   1.235   4.662   3.090
 6421TIP3    H119269   1.238   4.582   3.143
 6421TIP3    H219270   1.172   4.718   3.135
 6422TIP3   OH219271   2.505   3.834   5.063
 6422TIP3    H119272   2.439   3.873   5.007
 6422TIP3    H219273   2.490   3.874   5.149
 6423TIP3   OH219274   2.020   1.614   2.080
 6423TIP3    H119275   1.971   1.670   2.140
 6423TIP3    H219276   2.111   1.644   2.090
 6424TIP3   OH219277   0.135   1.261   2.524
 6424TIP3    H119278   0.152   1.343   2.478
 6424TIP3    H219279   0.107   1.200   2.456
 6425TIP3   OH219280   1.046   4.861   0.858
 6425TIP3    H119281   1.078   4.951   0.853
 6425TIP3    H219282   0.966   4.862   0.806
 6426TIP3   OH219283   2.374   5.709   2.315
 6426TIP3    H119284   2.309   5.772   2.347
 6426TIP3    H219285   2.326   5.656   2.252
 6427TIP3   OH219286   3.508   1.491   4.219
 6427TIP3    H119287   3.539   1.582   4.220
 6427TIP3    H219288   3.584   1.439   4.194
 6428TIP3   OH219289   3.780   1.914   2.562
 6428TIP3    H119290   3.826   1.857   2.501
 6428TIP3    H219291   3.787   1.870   2.646
 6429TIP3   OH219292   4.865   0.354   4.948
 6429TIP3    H119293   4.881   0.330   5.040
 6429TIP3    H219294   4.951   0.348   4.906
 6430TIP3   OH219295   0.630   1.326   5.140
 6430TIP3    H119296   0.721   1.322   5.170
 6430TIP3    H219297   0.596   1.238   5.152
 6431TIP3   OH219298   3.294   5.221   1.557
 6431TIP3    H119299   3.351   5.199   1.631
 6431TIP3    H219300   3.346   5.201   1.480
 6432TIP3   OH219301   0.756   3.029   2.311
 6432TIP3    H119302   0.693   3.009   2.241
 6432TIP3    H219303   0.721   2.986   2.389
 6433TIP3   OH219304   2.289   4.999   3.555
 6433TIP3    H119305   2.245   5.048   3.625
 6433TIP3    H219306   2.242   4.916   3.552
 6434TIP3   OH219307   3.270   3.945   0.114
 6434TIP3    H119308   3.224   4.026   0.091
 6434TIP3    H219309   3.357   3.974   0.140
 6435TIP3   OH219310   3.039   2.307   1.534
 6435TIP3    H119311   3.107   2.354   1.581
 6435TIP3    H219312   3.041   2.219   1.570
 6436TIP3   OH219313   5.512   1.129   1.610
 6436TIP3    H119314   5.500   1.105   1.702
 6436TIP3    H219315   5.428   1.109   1.568
 6437TIP3   OH219316   5.649   2.259   0.787
 6437TIP3    H119317   5.710   2.213   0.729
 6437TIP3    H219318   5.697   2.338   0.814
 6438TIP3   OH219319   3.065   5.816   0.630
 6438TIP3    H119320   3.075   5.836   0.723
 6438TIP3    H219321   3.111   5.887   0.585
 6439TIP3   OH219322   0.383   3.665   4.087
 6439TIP3    H119323   0.419   3.619   4.011
 6439TIP3    H219324   0.444   3.738   4.101
 6440TIP3   OH219325   0.022   0.366   2.179
 6440TIP3    H119326   0.036   0.330   2.091
 6440TIP3    H219327  -0.011   0.292   2.230
 6441TIP3   OH219328   2.594   3.486   2.225
 6441TIP3    H119329   2.670   3.531   2.261
 6441TIP3    H219330   2.545   3.457   2.301
 6442TIP3   OH219331   5.287   1.972   1.542
 6442TIP3    H119332   5.285   1.884   1.580
 6442TIP3    H219333   5.227   1.966   1.467
 6443TIP3   OH219334   4.189   1.871   2.671
 6443TIP3    H119335   4.256   1.917   2.722
 6443TIP3    H219336   4.124   1.938   2.650
 6444TIP3   OH219337   2.318   3.126   0.101
 6444TIP3    H119338   2.223   3.118   0.093
 6444TIP3    H219339   2.353   3.076   0.028
 6445TIP3   OH219340   4.990   5.051   3.896
 6445TIP3    H119341   5.040   5.074   3.817
 6445TIP3    H219342   4.923   5.119   3.903
 6446TIP3   OH219343   0.764   2.464   4.377
 6446TIP3    H119344   0.848   2.438   4.414
 6446TIP3    H219345   0.784   2.492   4.288
 6447TIP3   OH219346   0.838   0.392   3.904
 6447TIP3    H119347   0.855   0.485   3.891
 6447TIP3    H219348   0.747   0.380   3.878
 6448TIP3   OH219349   3.207   3.137   1.664
 6448TIP3    H119350   3.302   3.129   1.663
 6448TIP3    H219351   3.176   3.047   1.655
 6449TIP3   OH219352   5.200   1.545   0.595
 6449TIP3    H119353   5.144   1.601   0.540
 6449TIP3    H219354   5.280   1.534   0.544
 6450TIP3   OH219355   5.159   2.533   4.889
 6450TIP3    H119356   5.215   2.514   4.814
 6450TIP3    H219357   5.098   2.600   4.857
 6451TIP3   OH219358   0.018   3.725   3.416
 6451TIP3    H119359   0.053   3.754   3.500
 6451TIP3    H219360   0.094   3.699   3.365
 6452TIP3   OH219361   5.253   4.426   0.112
 6452TIP3    H119362   5.163   4.456   0.128
 6452TIP3    H219363   5.276   4.378   0.192
 6453TIP3   OH219364   4.959   5.820   3.452
 6453TIP3    H119365   4.895   5.752   3.474
 6453TIP3    H219366   4.912   5.903   3.464
 6454TIP3   OH219367   1.125   3.293   3.299
 6454TIP3    H119368   1.157   3.289   3.208
 6454TIP3    H219369   1.195   3.339   3.346
 6455TIP3   OH219370   4.399   0.403   4.549
 6455TIP3    H119371   4.327   0.456   4.514
 6455TIP3    H219372   4.477   0.439   4.508
 6456TIP3   OH219373   5.717   5.208   4.449
 6456TIP3    H119374   5.625   5.184   4.463
 6456TIP3    H219375   5.767   5.139   4.492
 6457TIP3   OH219376   0.818   4.087   2.630
 6457TIP3    H119377   0.777   4.007   2.595
 6457TIP3    H219378   0.751   4.154   2.620
 6458TIP3   OH219379   3.849   4.244   3.660
 6458TIP3    H119380   3.779   4.213   3.602
 6458TIP3    H219381   3.848   4.339   3.652
 6459TIP3   OH219382   6.251   1.979   1.698
 6459TIP3    H119383   6.165   2.021   1.701
 6459TIP3    H219384   6.314   2.050   1.710
 6460TIP3   OH219385   0.442   4.745   5.001
 6460TIP3    H119386   0.376   4.812   5.021
 6460TIP3    H219387   0.435   4.732   4.907
 6461TIP3   OH219388   4.430   1.258   0.824
 6461TIP3    H119389   4.344   1.287   0.855
 6461TIP3    H219390   4.419   1.247   0.730
 6462TIP3   OH219391   0.543   0.082   2.141
 6462TIP3    H119392   0.561   0.122   2.056
 6462TIP3    H219393   0.539  -0.012   2.124
 6463TIP3   OH219394   0.125   4.831   0.900
 6463TIP3    H119395   0.065   4.780   0.954
 6463TIP3    H219396   0.079   4.914   0.885
 6464TIP3   OH219397   2.022   2.373   4.326
 6464TIP3    H119398   2.080   2.366   4.402
 6464TIP3    H219399   2.031   2.464   4.298
 6465TIP3   OH219400   3.252   0.790   2.659
 6465TIP3    H119401   3.231   0.848   2.586
 6465TIP3    H219402   3.275   0.707   2.619
 6466TIP3   OH219403   0.374   5.799   4.694
 6466TIP3    H119404   0.431   5.876   4.700
 6466TIP3    H219405   0.347   5.782   4.784
 6467TIP3   OH219406   2.228   2.957   1.753
 6467TIP3    H119407   2.246   3.002   1.836
 6467TIP3    H219408   2.163   3.013   1.710
 6468TIP3   OH219409   4.363   5.368   0.294
 6468TIP3    H119410   4.278   5.368   0.250
 6468TIP3    H219411   4.415   5.303   0.247
 6469TIP3   OH219412   0.938   0.925   5.029
 6469TIP3    H119413   0.987   0.954   4.952
 6469TIP3    H219414   0.944   0.830   5.027
 6470TIP3   OH219415   4.944   4.688   2.531
 6470TIP3    H119416   4.936   4.651   2.619
 6470TIP3    H219417   4.866   4.656   2.485
 6471TIP3   OH219418   3.649   0.404   1.316
 6471TIP3    H119419   3.581   0.371   1.257
 6471TIP3    H219420   3.703   0.461   1.262
 6472TIP3   OH219421   0.649   4.750   1.311
 6472TIP3    H119422   0.697   4.780   1.388
 6472TIP3    H219423   0.628   4.659   1.328
 6473TIP3   OH219424   0.890   3.353   1.484
 6473TIP3    H119425   0.847   3.301   1.416
 6473TIP3    H219426   0.906   3.291   1.555
 6474TIP3   OH219427   1.010   1.614   2.437
 6474TIP3    H119428   1.037   1.624   2.528
 6474TIP3    H219429   1.033   1.523   2.415
 6475TIP3   OH219430   2.684   2.808   4.695
 6475TIP3    H119431   2.610   2.816   4.634
 6475TIP3    H219432   2.726   2.894   4.693
 6476TIP3   OH219433   3.479   2.077   3.733
 6476TIP3    H119434   3.550   2.029   3.689
 6476TIP3    H219435   3.424   2.109   3.662
 6477TIP3   OH219436   6.201   2.949   4.708
 6477TIP3    H119437   6.228   2.921   4.795
 6477TIP3    H219438   6.219   3.043   4.707
 6478TIP3   OH219439   0.649   2.977   3.207
 6478TIP3    H119440   0.710   3.051   3.205
 6478TIP3    H219441   0.618   2.970   3.117
 6479TIP3   OH219442   2.747   0.614   2.991
 6479TIP3    H119443   2.715   0.630   3.080
 6479TIP3    H219444   2.756   0.701   2.953
 6480TIP3   OH219445   1.438   1.129   4.517
 6480TIP3    H119446   1.443   1.035   4.502
 6480TIP3    H219447   1.440   1.139   4.612
 6481TIP3   OH219448   5.938   1.196   2.639
 6481TIP3    H119449   5.952   1.165   2.728
 6481TIP3    H219450   6.026   1.200   2.601
 6482TIP3   OH219451   2.427   1.234   1.492
 6482TIP3    H119452   2.418   1.323   1.457
 6482TIP3    H219453   2.374   1.234   1.571
 6483TIP3   OH219454   6.044   4.901   4.325
 6483TIP3    H119455   6.070   4.848   4.400
 6483TIP3    H219456   5.959   4.865   4.299
 6484TIP3   OH219457   4.823   5.212   4.651
 6484TIP3    H119458   4.802   5.232   4.742
 6484TIP3    H219459   4.742   5.179   4.614
 6485TIP3   OH219460   4.726   4.033   3.730
 6485TIP3    H119461   4.703   4.105   3.671
 6485TIP3    H219462   4.811   4.002   3.697
 6486TIP3   OH219463   6.063   5.335   5.139
 6486TIP3    H119464   6.080   5.376   5.054
 6486TIP3    H219465   5.972   5.306   5.134
 6487TIP3   OH219466   3.828   0.407   0.550
 6487TIP3    H119467   3.776   0.480   0.582
 6487TIP3    H219468   3.895   0.448   0.495
 6488TIP3   OH219469   5.116   2.753   2.121
 6488TIP3    H119470   5.206   2.785   2.124
 6488TIP3    H219471   5.107   2.696   2.197
 6489TIP3   OH219472   4.466   2.224   2.576
 6489TIP3    H119473   4.465   2.160   2.505
 6489TIP3    H219474   4.403   2.291   2.550
 6490TIP3   OH219475   3.879   2.731   3.315
 6490TIP3    H119476   3.828   2.652   3.296
 6490TIP3    H219477   3.861   2.750   3.407
 6491TIP3   OH219478   1.776   0.493   2.808
 6491TIP3    H119479   1.786   0.398   2.807
 6491TIP3    H219480   1.763   0.516   2.716
 6492TIP3   OH219481   3.824   4.518   3.646
 6492TIP3    H119482   3.749   4.542   3.591
 6492TIP3    H219483   3.899   4.556   3.601
 6493TIP3   OH219484   4.132   3.954   3.933
 6493TIP3    H119485   4.211   4.000   3.961
 6493TIP3    H219486   4.066   4.023   3.925
 6494TIP3   OH219487   0.949   3.416   5.054
 6494TIP3    H119488   0.977   3.371   4.974
 6494TIP3    H219489   0.875   3.471   5.026
 6495TIP3   OH219490   5.386   4.116   0.970
 6495TIP3    H119491   5.390   4.031   1.014
 6495TIP3    H219492   5.399   4.096   0.877
 6496TIP3   OH219493   0.175   0.930   3.676
 6496TIP3    H119494   0.127   0.968   3.603
 6496TIP3    H219495   0.233   0.866   3.635
 6497TIP3   OH219496   0.039   2.138   0.943
 6497TIP3    H119497   0.070   2.205   0.882
 6497TIP3    H219498  -0.016   2.081   0.889
 6498TIP3   OH219499   2.971   3.661   1.221
 6498TIP3    H119500   2.881   3.663   1.253
 6498TIP3    H219501   2.963   3.664   1.126
 6499TIP3   OH219502   1.779   1.170   3.591
 6499TIP3    H119503   1.705   1.110   3.581
 6499TIP3    H219504   1.756   1.245   3.538
 6500TIP3   OH219505   2.450   4.303   2.151
 6500TIP3    H119506   2.505   4.337   2.080
 6500TIP3    H219507   2.402   4.380   2.182
 6501TIP3   OH219508   0.818   4.766   1.089
 6501TIP3    H119509   0.885   4.698   1.098
 6501TIP3    H219510   0.772   4.764   1.173
 6502TIP3   OH219511   5.009   1.858   0.859
 6502TIP3    H119512   5.063   1.928   0.824
 6502TIP3    H219513   4.927   1.864   0.810
 6503TIP3   OH219514   0.471   5.894   4.296
 6503TIP3    H119515   0.429   5.911   4.380
 6503TIP3    H219516   0.438   5.808   4.270
 6504TIP3   OH219517   5.058   0.260   1.464
 6504TIP3    H119518   5.042   0.167   1.476
 6504TIP3    H219519   5.138   0.264   1.410
 6505TIP3   OH219520   2.792   4.664   0.571
 6505TIP3    H119521   2.849   4.704   0.636
 6505TIP3    H219522   2.791   4.726   0.498
 6506TIP3   OH219523   6.081   2.816   3.038
 6506TIP3    H119524   6.103   2.909   3.030
 6506TIP3    H219525   6.075   2.786   2.947
 6507TIP3   OH219526   2.280   2.954   2.334
 6507TIP3    H119527   2.247   2.916   2.415
 6507TIP3    H219528   2.211   2.936   2.269
 6508TIP3   OH219529   1.672   0.192   3.857
 6508TIP3    H119530   1.767   0.181   3.858
 6508TIP3    H219531   1.655   0.258   3.924
 6509TIP3   OH219532   1.181   1.450   0.139
 6509TIP3    H119533   1.117   1.497   0.193
 6509TIP3    H219534   1.211   1.515   0.076
 6510TIP3   OH219535   3.719   1.402   0.401
 6510TIP3    H119536   3.625   1.408   0.381
 6510TIP3    H219537   3.732   1.311   0.427
 6511TIP3   OH219538   3.039   5.216   0.816
 6511TIP3    H119539   3.016   5.197   0.725
 6511TIP3    H219540   3.022   5.310   0.826
 6512TIP3   OH219541   3.538   1.764   4.471
 6512TIP3    H119542   3.584   1.776   4.388
 6512TIP3    H219543   3.546   1.670   4.489
 6513TIP3   OH219544   3.063   0.452   5.083
 6513TIP3    H119545   3.124   0.481   5.015
 6513TIP3    H219546   3.106   0.476   5.165
 6514TIP3   OH219547   5.134   5.520   3.072
 6514TIP3    H119548   5.147   5.441   3.124
 6514TIP3    H219549   5.098   5.584   3.134
 6515TIP3   OH219550   4.395   1.628   1.625
 6515TIP3    H119551   4.429   1.568   1.691
 6515TIP3    H219552   4.434   1.713   1.648
 6516TIP3   OH219553   3.844   2.781   0.187
 6516TIP3    H119554   3.844   2.695   0.146
 6516TIP3    H219555   3.760   2.785   0.233
 6517TIP3   OH219556   0.297   1.016   2.707
 6517TIP3    H119557   0.363   1.008   2.638
 6517TIP3    H219558   0.279   1.110   2.713
 6518TIP3   OH219559   2.699   5.377   0.256
 6518TIP3    H119560   2.746   5.307   0.211
 6518TIP3    H219561   2.700   5.352   0.348
 6519TIP3   OH219562   0.041   0.998   1.750
 6519TIP3    H119563   0.002   0.943   1.682
 6519TIP3    H219564   0.108   1.049   1.704
 6520TIP3   OH219565   2.875   4.633   2.782
 6520TIP3    H119566   2.818   4.558   2.766
 6520TIP3    H219567   2.958   4.609   2.741
 6521TIP3   OH219568   2.466   2.320   0.816
 6521TIP3    H119569   2.531   2.332   0.885
 6521TIP3    H219570   2.517   2.301   0.737
 6522TIP3   OH219571   3.829   4.203   1.527
 6522TIP3    H119572   3.850   4.243   1.443
 6522TIP3    H219573   3.913   4.178   1.564
 6523TIP3   OH219574   4.732   3.434   3.843
 6523TIP3    H119575   4.648   3.401   3.876
 6523TIP3    H219576   4.717   3.528   3.833
 6524TIP3   OH219577   3.005   1.113   0.790
 6524TIP3    H119578   2.922   1.108   0.837
 6524TIP3    H219579   2.985   1.084   0.701
 6525TIP3   OH219580   2.269   4.060   4.162
 6525TIP3    H119581   2.330   3.997   4.123
 6525TIP3    H219582   2.182   4.022   4.148
 6526TIP3   OH219583   1.564   1.043   4.743
 6526TIP3    H119584   1.600   0.981   4.806
 6526TIP3    H219585   1.626   1.044   4.670
 6527TIP3   OH219586   1.420   4.497   1.496
 6527TIP3    H119587   1.324   4.497   1.493
 6527TIP3    H219588   1.446   4.497   1.404
 6528TIP3   OH219589   4.570   2.228   1.884
 6528TIP3    H119590   4.520   2.247   1.963
 6528TIP3    H219591   4.569   2.310   1.835
 6529TIP3   OH219592   2.987   0.893   0.224
 6529TIP3    H119593   2.962   0.927   0.138
 6529TIP3    H219594   3.078   0.867   0.214
 6530TIP3   OH219595   4.794   3.745   0.900
 6530TIP3    H119596   4.869   3.731   0.843
 6530TIP3    H219597   4.799   3.837   0.926
 6531TIP3   OH219598   0.046   1.245   4.411
 6531TIP3    H119599   0.030   1.331   4.450
 6531TIP3    H219600   0.141   1.237   4.408
 6532TIP3   OH219601   2.011   4.767   3.675
 6532TIP3    H119602   1.990   4.693   3.733
 6532TIP3    H219603   2.106   4.770   3.674
 6533TIP3   OH219604   0.807   1.295   1.749
 6533TIP3    H119605   0.801   1.213   1.797
 6533TIP3    H219606   0.776   1.361   1.810
 6534TIP3   OH219607   0.835   2.152   0.586
 6534TIP3    H119608   0.866   2.242   0.587
 6534TIP3    H219609   0.915   2.100   0.573
 6535TIP3   OH219610   6.036   0.012   2.612
 6535TIP3    H119611   5.970   0.008   2.543
 6535TIP3    H219612   6.021   0.097   2.654
 6536TIP3   OH219613   3.812   4.633   4.626
 6536TIP3    H119614   3.886   4.610   4.682
 6536TIP3    H219615   3.836   4.718   4.589
 6537TIP3   OH219616   4.916   1.624   4.547
 6537TIP3    H119617   4.911   1.665   4.461
 6537TIP3    H219618   4.955   1.538   4.531
 6538TIP3   OH219619   1.915   1.406   1.976
 6538TIP3    H119620   1.940   1.494   2.006
 6538TIP3    H219621   1.873   1.365   2.051
 6539TIP3   OH219622   5.923   4.055   0.845
 6539TIP3    H119623   5.918   4.133   0.791
 6539TIP3    H219624   5.840   4.010   0.829
 6540TIP3   OH219625   1.715   3.662   5.003
 6540TIP3    H119626   1.807   3.640   4.992
 6540TIP3    H219627   1.708   3.752   4.971
 6541TIP3   OH219628   5.436   5.808   0.645
 6541TIP3    H119629   5.483   5.816   0.562
 6541TIP3    H219630   5.415   5.715   0.651
 6542TIP3   OH219631   2.816   3.662   2.237
 6542TIP3    H119632   2.857   3.731   2.290
 6542TIP3    H219633   2.828   3.690   2.147
 6543TIP3   OH219634   3.071   3.082   2.659
 6543TIP3    H119635   3.033   3.159   2.616
 6543TIP3    H219636   3.022   3.074   2.742
 6544TIP3   OH219637   1.200   2.843   1.114
 6544TIP3    H119638   1.162   2.844   1.026
 6544TIP3    H219639   1.131   2.804   1.169
 6545TIP3   OH219640   1.641   3.449   4.531
 6545TIP3    H119641   1.618   3.514   4.464
 6545TIP3    H219642   1.558   3.428   4.574
 6546TIP3   OH219643   6.289   1.178   0.778
 6546TIP3    H119644   6.262   1.174   0.686
 6546TIP3    H219645   6.285   1.087   0.808
 6547TIP3   OH219646   5.179   1.835   3.115
 6547TIP3    H119647   5.140   1.851   3.029
 6547TIP3    H219648   5.270   1.810   3.095
 6548TIP3   OH219649   6.071   2.307   0.738
 6548TIP3    H119650   6.040   2.253   0.811
 6548TIP3    H219651   6.066   2.396   0.771
 6549TIP3   OH219652   6.029   1.834   4.381
 6549TIP3    H119653   6.045   1.740   4.377
 6549TIP3    H219654   6.067   1.861   4.464
 6550TIP3   OH219655   0.959   0.338   4.788
 6550TIP3    H119656   0.939   0.421   4.831
 6550TIP3    H219657   1.054   0.331   4.794
 6551TIP3   OH219658   3.631   5.679   4.818
 6551TIP3    H119659   3.653   5.763   4.859
 6551TIP3    H219660   3.587   5.629   4.886
 6552TIP3   OH219661   0.090   4.636   2.942
 6552TIP3    H119662   0.065   4.728   2.932
 6552TIP3    H219663   0.008   4.588   2.929
 6553TIP3   OH219664   4.087   3.371   0.208
 6553TIP3    H119665   4.065   3.280   0.189
 6553TIP3    H219666   4.094   3.413   0.123
 6554TIP3   OH219667   3.370   3.659   3.396
 6554TIP3    H119668   3.459   3.659   3.361
 6554TIP3    H219669   3.315   3.637   3.320
 6555TIP3   OH219670   0.609   0.275   4.458
 6555TIP3    H119671   0.620   0.279   4.553
 6555TIP3    H219672   0.589   0.365   4.433
 6556TIP3   OH219673   1.424   0.158   4.765
 6556TIP3    H119674   1.382   0.081   4.802
 6556TIP3    H219675   1.384   0.232   4.812
 6557TIP3   OH219676   2.861   5.604   4.450
 6557TIP3    H119677   2.860   5.554   4.368
 6557TIP3    H219678   2.773   5.640   4.456
 6558TIP3   OH219679   1.838   1.416   4.218
 6558TIP3    H119680   1.867   1.373   4.299
 6558TIP3    H219681   1.752   1.379   4.200
 6559TIP3   OH219682   2.058   3.912   3.459
 6559TIP3    H119683   2.109   3.890   3.537
 6559TIP3    H219684   2.110   3.979   3.414
 6560TIP3   OH219685   1.915   2.725   2.301
 6560TIP3    H119686   1.890   2.664   2.370
 6560TIP3    H219687   1.906   2.675   2.220
 6561TIP3   OH219688   3.979   0.426   1.932
 6561TIP3    H119689   3.959   0.360   1.998
 6561TIP3    H219690   4.028   0.378   1.865
 6562TIP3   OH219691   0.125   5.211   2.248
 6562TIP3    H119692   0.031   5.220   2.258
 6562TIP3    H219693   0.148   5.135   2.302
 6563TIP3   OH219694   2.524   2.333   3.026
 6563TIP3    H119695   2.617   2.329   3.050
 6563TIP3    H219696   2.479   2.288   3.098
 6564TIP3   OH219697   0.530   5.247   1.791
 6564TIP3    H119698   0.511   5.194   1.869
 6564TIP3    H219699   0.588   5.317   1.824
 6565TIP3   OH219700   5.333   0.157   4.212
 6565TIP3    H119701   5.399   0.094   4.184
 6565TIP3    H219702   5.306   0.201   4.131
 6566TIP3   OH219703   4.998   1.679   0.441
 6566TIP3    H119704   4.979   1.763   0.400
 6566TIP3    H219705   4.921   1.625   0.421
 6567TIP3   OH219706   2.944   5.197   3.918
 6567TIP3    H119707   3.019   5.239   3.959
 6567TIP3    H219708   2.876   5.199   3.986
 6568TIP3   OH219709   1.997   3.718   2.877
 6568TIP3    H119710   1.930   3.691   2.815
 6568TIP3    H219711   1.949   3.765   2.945
 6569TIP3   OH219712   5.778   0.689   2.372
 6569TIP3    H119713   5.794   0.658   2.461
 6569TIP3    H219714   5.771   0.784   2.380
 6570TIP3   OH219715   5.089   3.533   0.379
 6570TIP3    H119716   5.180   3.555   0.359
 6570TIP3    H219717   5.066   3.592   0.451
 6571TIP3   OH219718   1.199   1.763   1.408
 6571TIP3    H119719   1.138   1.699   1.369
 6571TIP3    H219720   1.285   1.723   1.397
 6572TIP3   OH219721   5.300   1.221   1.883
 6572TIP3    H119722   5.239   1.242   1.812
 6572TIP3    H219723   5.321   1.128   1.870
 6573TIP3   OH219724   1.642   0.274   1.331
 6573TIP3    H119725   1.716   0.287   1.390
 6573TIP3    H219726   1.678   0.287   1.243
 6574TIP3   OH219727   2.742   1.995   1.743
 6574TIP3    H119728   2.787   1.994   1.827
 6574TIP3    H219729   2.651   1.974   1.764
 6575TIP3   OH219730   0.107   0.325   3.638
 6575TIP3    H119731   0.017   0.318   3.670
 6575TIP3    H219732   0.161   0.295   3.711
 6576TIP3   OH219733   0.806   4.447   2.037
 6576TIP3    H119734   0.825   4.538   2.059
 6576TIP3    H219735   0.719   4.431   2.074
 6577TIP3   OH219736   0.736   2.608   2.270
 6577TIP3    H119737   0.786   2.639   2.346
 6577TIP3    H219738   0.715   2.687   2.221
 6578TIP3   OH219739   1.881   0.281   1.449
 6578TIP3    H119740   1.965   0.299   1.492
 6578TIP3    H219741   1.886   0.328   1.366
 6579TIP3   OH219742   1.187   1.243   3.950
 6579TIP3    H119743   1.105   1.248   3.999
 6579TIP3    H219744   1.173   1.301   3.875
 6580TIP3   OH219745   3.473   4.118   5.022
 6580TIP3    H119746   3.396   4.085   5.067
 6580TIP3    H219747   3.530   4.042   5.012
 6581TIP3   OH219748   1.261   0.058   3.549
 6581TIP3    H119749   1.183   0.024   3.506
 6581TIP3    H219750   1.235   0.068   3.641
 6582TIP3   OH219751   3.341   5.812   1.925
 6582TIP3    H119752   3.323   5.858   2.007
 6582TIP3    H219753   3.367   5.882   1.864
 6583TIP3   OH219754   5.048   4.936   1.880
 6583TIP3    H119755   5.117   4.871   1.867
 6583TIP3    H219756   4.974   4.902   1.828
 6584TIP3   OH219757   4.222   5.526   3.973
 6584TIP3    H119758   4.264   5.444   3.998
 6584TIP3    H219759   4.271   5.594   4.020
 6585TIP3   OH219760   4.699   3.325   0.314
 6585TIP3    H119761   4.640   3.350   0.385
 6585TIP3    H219762   4.684   3.390   0.246
 6586TIP3   OH219763   0.933   5.006   2.151
 6586TIP3    H119764   0.875   5.050   2.213
 6586TIP3    H219765   0.942   4.917   2.185
 6587TIP3   OH219766   4.302   2.142   1.489
 6587TIP3    H119767   4.390   2.119   1.520
 6587TIP3    H219768   4.244   2.080   1.533
 6588TIP3   OH219769   1.468   5.588   2.308
 6588TIP3    H119770   1.380   5.553   2.323
 6588TIP3    H219771   1.515   5.518   2.263
 6589TIP3   OH219772   4.966   5.844   2.735
 6589TIP3    H119773   4.880   5.883   2.745
 6589TIP3    H219774   5.010   5.898   2.669
 6590TIP3   OH219775   1.590   4.495   4.108
 6590TIP3    H119776   1.661   4.448   4.065
 6590TIP3    H219777   1.615   4.587   4.102
 6591TIP3   OH219778   2.180   0.798   0.275
 6591TIP3    H119779   2.162   0.705   0.263
 6591TIP3    H219780   2.248   0.818   0.211
 6592TIP3   OH219781   0.449   1.392   4.619
 6592TIP3    H119782   0.397   1.351   4.550
 6592TIP3    H219783   0.427   1.342   4.698
 6593TIP3   OH219784   5.184   2.046   3.948
 6593TIP3    H119785   5.250   2.028   4.015
 6593TIP3    H219786   5.131   1.967   3.944
 6594TIP3   OH219787   0.447   3.859   2.675
 6594TIP3    H119788   0.508   3.894   2.740
 6594TIP3    H219789   0.398   3.935   2.644
 6595TIP3   OH219790   2.408   0.872   0.138
 6595TIP3    H119791   2.394   0.966   0.125
 6595TIP3    H219792   2.426   0.838   0.051
 6596TIP3   OH219793   0.016   1.343   1.724
 6596TIP3    H119794   0.083   1.274   1.729
 6596TIP3    H219795  -0.033   1.323   1.644
 6597TIP3   OH219796   1.895   4.245   1.003
 6597TIP3    H119797   1.943   4.175   1.049
 6597TIP3    H219798   1.804   4.216   1.003
 6598TIP3   OH219799   2.540   4.088   4.561
 6598TIP3    H119800   2.499   4.141   4.629
 6598TIP3    H219801   2.620   4.054   4.601
 6599TIP3   OH219802   0.973   1.601   0.308
 6599TIP3    H119803   1.014   1.603   0.394
 6599TIP3    H219804   0.914   1.526   0.311
 6600TIP3   OH219805   1.384   2.864   0.151
 6600TIP3    H119806   1.318   2.796   0.157
 6600TIP3    H219807   1.467   2.817   0.154
 6601TIP3   OH219808   5.254   1.028   5.108
 6601TIP3    H119809   5.243   0.933   5.100
 6601TIP3    H219810   5.334   1.047   5.058
 6602TIP3   OH219811   1.551   5.072   4.763
 6602TIP3    H119812   1.499   4.995   4.786
 6602TIP3    H219813   1.530   5.089   4.671
 6603TIP3   OH219814   0.920   2.811   0.650
 6603TIP3    H119815   0.873   2.737   0.689
 6603TIP3    H219816   1.004   2.775   0.623
 6604TIP3   OH219817   3.023   2.257   0.146
 6604TIP3    H119818   2.943   2.301   0.173
 6604TIP3    H219819   3.071   2.322   0.095
 6605TIP3   OH219820   3.103   2.581   3.066
 6605TIP3    H119821   3.171   2.636   3.028
 6605TIP3    H219822   3.149   2.504   3.100
 6606TIP3   OH219823   0.480   3.077   3.443
 6606TIP3    H119824   0.543   3.078   3.371
 6606TIP3    H219825   0.534   3.079   3.522
 6607TIP3   OH219826   1.478   2.793   3.964
 6607TIP3    H119827   1.503   2.702   3.980
 6607TIP3    H219828   1.469   2.832   4.051
 6608TIP3   OH219829   4.567   2.190   1.246
 6608TIP3    H119830   4.562   2.094   1.244
 6608TIP3    H219831   4.586   2.211   1.337
 6609TIP3   OH219832   4.107   3.781   1.739
 6609TIP3    H119833   4.114   3.714   1.807
 6609TIP3    H219834   4.042   3.842   1.772
 6610TIP3   OH219835   1.614   5.851   0.471
 6610TIP3    H119836   1.611   5.945   0.489
 6610TIP3    H219837   1.593   5.844   0.378
 6611TIP3   OH219838   3.589   4.222   4.622
 6611TIP3    H119839   3.668   4.199   4.672
 6611TIP3    H219840   3.610   4.199   4.532
 6612TIP3   OH219841   0.467   4.473   0.262
 6612TIP3    H119842   0.492   4.512   0.178
 6612TIP3    H219843   0.382   4.432   0.246
 6613TIP3   OH219844   1.835   1.828   2.177
 6613TIP3    H119845   1.868   1.815   2.266
 6613TIP3    H219846   1.813   1.921   2.173
 6614TIP3   OH219847   4.490   5.473   3.574
 6614TIP3    H119848   4.411   5.446   3.621
 6614TIP3    H219849   4.457   5.506   3.490
 6615TIP3   OH219850   1.431   2.991   4.926
 6615TIP3    H119851   1.513   3.040   4.932
 6615TIP3    H219852   1.381   3.019   5.003
 6616TIP3   OH219853   0.190   1.363   0.839
 6616TIP3    H119854   0.259   1.298   0.850
 6616TIP3    H219855   0.163   1.354   0.747
 6617TIP3   OH219856   6.158   5.765   3.987
 6617TIP3    H119857   6.249   5.793   3.977
 6617TIP3    H219858   6.162   5.670   3.988
 6618TIP3   OH219859   4.717   5.377   0.762
 6618TIP3    H119860   4.743   5.433   0.836
 6618TIP3    H219861   4.628   5.404   0.742
 6619TIP3   OH219862   0.580   4.667   0.627
 6619TIP3    H119863   0.630   4.724   0.686
 6619TIP3    H219864   0.494   4.658   0.670
 6620TIP3   OH219865   6.290   0.571   4.022
 6620TIP3    H119866   6.257   0.646   3.973
 6620TIP3    H219867   6.323   0.608   4.104
 6621TIP3   OH219868   5.389   2.138   3.712
 6621TIP3    H119869   5.295   2.124   3.698
 6621TIP3    H219870   5.398   2.233   3.718
 6622TIP3   OH219871   1.024   4.904   4.525
 6622TIP3    H119872   0.945   4.902   4.470
 6622TIP3    H219873   1.067   4.821   4.508
 6623TIP3   OH219874   4.178   1.589   3.998
 6623TIP3    H119875   4.104   1.580   3.938
 6623TIP3    H219876   4.155   1.533   4.072
 6624TIP3   OH219877   2.125   0.810   3.506
 6624TIP3    H119878   2.088   0.722   3.502
 6624TIP3    H219879   2.063   0.864   3.459
 6625TIP3   OH219880   4.142   5.442   2.767
 6625TIP3    H119881   4.134   5.357   2.726
 6625TIP3    H219882   4.075   5.496   2.724
 6626TIP3   OH219883   1.988   1.275   3.396
 6626TIP3    H119884   1.908   1.227   3.374
 6626TIP3    H219885   1.965   1.327   3.473
 6627TIP3   OH219886   0.539   3.299   1.081
 6627TIP3    H119887   0.453   3.334   1.056
 6627TIP3    H219888   0.583   3.282   0.998
 6628TIP3   OH219889   2.201   0.569   3.727
 6628TIP3    H119890   2.156   0.571   3.643
 6628TIP3    H219891   2.293   0.557   3.705
 6629TIP3   OH219892   1.773   2.433   1.283
 6629TIP3    H119893   1.850   2.412   1.230
 6629TIP3    H219894   1.808   2.446   1.371
 6630TIP3   OH219895   2.877   0.814   3.765
 6630TIP3    H119896   2.830   0.810   3.848
 6630TIP3    H219897   2.834   0.748   3.710
 6631TIP3   OH219898   1.200   1.199   1.441
 6631TIP3    H119899   1.200   1.258   1.516
 6631TIP3    H219900   1.124   1.143   1.454
 6632TIP3   OH219901   5.173   4.183   2.802
 6632TIP3    H119902   5.198   4.119   2.735
 6632TIP3    H219903   5.105   4.138   2.853
 6633TIP3   OH219904   5.359   3.702   0.825
 6633TIP3    H119905   5.324   3.631   0.772
 6633TIP3    H219906   5.429   3.662   0.877
 6634TIP3   OH219907   4.446   4.133   1.926
 6634TIP3    H119908   4.427   4.135   1.832
 6634TIP3    H219909   4.429   4.223   1.955
 6635TIP3   OH219910   0.522   1.565   5.150
 6635TIP3    H119911   0.521   1.592   5.058
 6635TIP3    H219912   0.539   1.470   5.147
 6636TIP3   OH219913   2.357   5.667   4.399
 6636TIP3    H119914   2.302   5.641   4.325
 6636TIP3    H219915   2.412   5.591   4.416
 6637TIP3   OH219916   2.233   0.241   4.450
 6637TIP3    H119917   2.239   0.212   4.541
 6637TIP3    H219918   2.147   0.212   4.420
 6638TIP3   OH219919   4.303   4.508   3.313
 6638TIP3    H119920   4.215   4.544   3.311
 6638TIP3    H219921   4.356   4.570   3.263
 6639TIP3   OH219922   3.543   4.649   2.307
 6639TIP3    H119923   3.638   4.644   2.293
 6639TIP3    H219924   3.524   4.742   2.305
 6640TIP3   OH219925   5.026   4.049   1.557
 6640TIP3    H119926   5.033   3.956   1.577
 6640TIP3    H219927   4.935   4.071   1.578
   6.33597   5.97361   5.17330   0.00000   0.00000  -2.11199   0.00000  -2.11199  -2.98681
