Title t= 225.00000 step= 112500
19942
    1ASP      N    1   1.090   2.204   3.846
    1ASP    HT1    2   1.075   2.254   3.937
    1ASP    HT2    3   1.033   2.118   3.841
    1ASP    HT3    4   1.066   2.259   3.761
    1ASP     CA    5   1.244   2.168   3.831
    1ASP     HA    6   1.294   2.263   3.819
    1ASP     CB    7   1.283   2.087   3.961
    1ASP    HB1    8   1.238   1.986   3.954
    1ASP    HB2    9   1.247   2.142   4.050
    1ASP     CG   10   1.435   2.068   3.978
    1ASP    OD1   11   1.486   1.987   4.057
    1ASP    OD2   12   1.510   2.150   3.915
    1ASP      C   13   1.289   2.105   3.698
    1ASP      O   14   1.341   2.173   3.608
    2ALA      N   15   1.271   1.970   3.686
    2ALA     HN   16   1.241   1.917   3.765
    2ALA     CA   17   1.285   1.890   3.565
    2ALA     HA   18   1.389   1.895   3.535
    2ALA     CB   19   1.250   1.741   3.596
    2ALA    HB1   20   1.306   1.710   3.687
    2ALA    HB2   21   1.277   1.673   3.512
    2ALA    HB3   22   1.143   1.719   3.618
    2ALA      C   23   1.208   1.936   3.443
    2ALA      O   24   1.086   1.972   3.452
    3ASP      N   25   1.277   1.937   3.327
    3ASP     HN   26   1.372   1.911   3.334
    3ASP     CA   27   1.221   1.961   3.193
    3ASP     HA   28   1.180   2.061   3.192
    3ASP     CB   29   1.322   1.941   3.078
    3ASP    HB1   30   1.282   1.945   2.974
    3ASP    HB2   31   1.359   1.838   3.093
    3ASP     CG   32   1.446   2.027   3.087
    3ASP    OD1   33   1.546   1.990   3.016
    3ASP    OD2   34   1.437   2.126   3.161
    3ASP      C   35   1.102   1.860   3.160
    3ASP      O   36   1.116   1.748   3.207
    4GLY      N   37   1.006   1.904   3.081
    4GLY     HN   38   0.996   1.998   3.049
    4GLY     CA   39   0.892   1.831   3.039
    4GLY    HA1   40   0.833   1.905   2.987
    4GLY    HA2   41   0.849   1.785   3.127
    4GLY      C   42   0.924   1.707   2.956
    4GLY      O   43   1.041   1.680   2.931
    5PRO      N   44   0.816   1.636   2.915
    5PRO     CD   45   0.675   1.674   2.943
    5PRO    HD1   46   0.642   1.736   2.858
    5PRO    HD2   47   0.664   1.733   3.036
    5PRO     CA   48   0.828   1.508   2.842
    5PRO     HA   49   0.885   1.445   2.909
    5PRO     CB   50   0.678   1.454   2.846
    5PRO    HB1   51   0.675   1.345   2.866
    5PRO    HB2   52   0.644   1.470   2.741
    5PRO     CG   53   0.603   1.538   2.946
    5PRO    HG1   54   0.497   1.557   2.919
    5PRO    HG2   55   0.608   1.496   3.049
    5PRO      C   56   0.903   1.497   2.711
    5PRO      O   57   0.890   1.577   2.620
    6GLY      N   58   0.988   1.389   2.701
    6GLY     HN   59   0.992   1.313   2.766
    6GLY     CA   60   1.069   1.368   2.586
    6GLY    HA1   61   1.124   1.277   2.611
    6GLY    HA2   62   1.125   1.460   2.576
    6GLY      C   63   1.010   1.343   2.444
    6GLY      O   64   0.890   1.314   2.436
    7ASP      N   65   1.095   1.361   2.343
    7ASP     HN   66   1.185   1.398   2.365
    7ASP     CA   67   1.066   1.353   2.207
    7ASP     HA   68   0.996   1.433   2.190
    7ASP     CB   69   1.197   1.387   2.129
    7ASP    HB1   70   1.259   1.294   2.125
    7ASP    HB2   71   1.253   1.469   2.179
    7ASP     CG   72   1.173   1.436   1.986
    7ASP    OD1   73   1.059   1.425   1.928
    7ASP    OD2   74   1.266   1.491   1.924
    7ASP      C   75   0.994   1.220   2.149
    7ASP      O   76   1.054   1.112   2.161
    8PRO      N   77   0.870   1.221   2.093
    8PRO     CD   78   0.780   1.326   2.103
    8PRO    HD1   79   0.783   1.394   2.015
    8PRO    HD2   80   0.808   1.392   2.188
    8PRO     CA   81   0.821   1.105   2.020
    8PRO     HA   82   0.838   1.012   2.072
    8PRO     CB   83   0.671   1.134   2.007
    8PRO    HB1   84   0.620   1.037   2.024
    8PRO    HB2   85   0.653   1.162   1.901
    8PRO     CG   86   0.650   1.246   2.112
    8PRO    HG1   87   0.558   1.303   2.089
    8PRO    HG2   88   0.652   1.199   2.213
    8PRO      C   89   0.890   1.078   1.890
    8PRO      O   90   0.871   0.966   1.840
    9ASP      N   91   0.961   1.179   1.825
    9ASP     HN   92   0.965   1.266   1.873
    9ASP     CA   93   1.028   1.140   1.702
    9ASP     HA   94   0.974   1.060   1.654
    9ASP     CB   95   1.037   1.258   1.600
    9ASP    HB1   96   1.084   1.244   1.500
    9ASP    HB2   97   1.093   1.334   1.658
    9ASP     CG   98   0.899   1.300   1.561
    9ASP    OD1   99   0.877   1.421   1.547
    9ASP    OD2  100   0.809   1.216   1.548
    9ASP      C  101   1.174   1.076   1.717
    9ASP      O  102   1.228   1.013   1.625
   10ALA      N  103   1.228   1.087   1.836
   10ALA     HN  104   1.169   1.134   1.901
   10ALA     CA  105   1.350   1.031   1.877
   10ALA     HA  106   1.415   1.035   1.790
   10ALA     CB  107   1.405   1.099   2.007
   10ALA    HB1  108   1.412   1.207   1.984
   10ALA    HB2  109   1.511   1.070   2.028
   10ALA    HB3  110   1.352   1.075   2.102
   10ALA      C  111   1.342   0.880   1.906
   10ALA      O  112   1.237   0.832   1.942
   11GLY      N  113   1.453   0.806   1.890
   11GLY     HN  114   1.544   0.847   1.888
   11GLY     CA  115   1.458   0.658   1.887
   11GLY    HA1  116   1.558   0.630   1.857
   11GLY    HA2  117   1.392   0.605   1.819
   11GLY      C  118   1.455   0.600   2.032
   11GLY    OT1  119   1.520   0.664   2.114
   11GLY    OT2  120   1.394   0.493   2.060
   12LIT    LIT  121   4.416   4.574   1.969
   13LIT    LIT  122   1.828   2.757   1.215
   14LIT    LIT  123   1.109   5.189   4.271
   15LIT    LIT  124   5.832   0.352   4.538
   16LIT    LIT  125   0.172   1.113   4.302
   17LIT    LIT  126   3.164   5.593   3.319
   18LIT    LIT  127   2.159   2.521   3.246
   19LIT    LIT  128   0.242   1.013   1.099
   20LIT    LIT  129   2.510   1.448   3.650
   21LIT    LIT  130   4.875   2.804   0.380
   22LIT    LIT  131   5.729   3.389   2.125
   23LIT    LIT  132   6.105   0.763   2.482
   24LIT    LIT  133   5.512   4.747   5.106
   25LIT    LIT  134   1.428   3.999   1.999
   26LIT    LIT  135   2.976   1.377   5.008
   27LIT    LIT  136   0.291   5.846   3.277
   28LIT    LIT  137   1.656   2.038   3.983
   29LIT    LIT  138   2.142   4.930   1.607
   30LIT    LIT  139   2.727   0.412   4.256
   31LIT    LIT  140   4.186   3.549   2.525
   32LIT    LIT  141   1.052   0.568   1.870
   33LIT    LIT  142   3.423   1.369   0.316
   34CLA    CLA  143   2.112   2.781   1.558
   35CLA    CLA  144   5.968   0.815   2.907
   36CLA    CLA  145   4.928   3.171   3.447
   37CLA    CLA  146   5.554   1.679   4.529
   38CLA    CLA  147   2.855   1.957   4.429
   39CLA    CLA  148   0.733   5.704   3.380
   40CLA    CLA  149   0.459   0.964   4.934
   41CLA    CLA  150   1.436   2.338   0.802
   42CLA    CLA  151   4.711   4.812   1.687
   43CLA    CLA  152   0.979   1.677   5.151
   44CLA    CLA  153   4.152   0.018   1.640
   45CLA    CLA  154   2.570   0.887   4.535
   46CLA    CLA  155   3.519   1.974   3.564
   47CLA    CLA  156   5.097   4.297   0.035
   48CLA    CLA  157   3.359   0.410   4.416
   49CLA    CLA  158   6.258   1.236   2.190
   50CLA    CLA  159   1.335   2.717   0.249
   51CLA    CLA  160   2.269   5.343   1.607
   52TIP3   OH2  161   2.211   0.752   3.940
   52TIP3    H1  162   2.267   0.823   3.909
   52TIP3    H2  163   2.188   0.703   3.862
   53TIP3   OH2  164   1.307   4.291   2.861
   53TIP3    H1  165   1.290   4.381   2.833
   53TIP3    H2  166   1.375   4.299   2.928
   54TIP3   OH2  167   2.479   0.234   3.138
   54TIP3    H1  168   2.540   0.291   3.185
   54TIP3    H2  169   2.494   0.254   3.046
   55TIP3   OH2  170   4.616   5.258   1.798
   55TIP3    H1  171   4.706   5.228   1.804
   55TIP3    H2  172   4.613   5.335   1.856
   56TIP3   OH2  173   1.123   5.889   0.587
   56TIP3    H1  174   1.186   5.845   0.529
   56TIP3    H2  175   1.062   5.933   0.528
   57TIP3   OH2  176   0.170   3.839   4.962
   57TIP3    H1  177   0.231   3.857   5.033
   57TIP3    H2  178   0.222   3.847   4.882
   58TIP3   OH2  179   5.574   3.736   4.612
   58TIP3    H1  180   5.506   3.722   4.678
   58TIP3    H2  181   5.632   3.802   4.650
   59TIP3   OH2  182   3.480   3.220   4.842
   59TIP3    H1  183   3.422   3.181   4.907
   59TIP3    H2  184   3.520   3.294   4.887
   60TIP3   OH2  185   1.564   0.929   4.397
   60TIP3    H1  186   1.629   0.875   4.440
   60TIP3    H2  187   1.528   0.985   4.466
   61TIP3   OH2  188   3.957   2.806   5.138
   61TIP3    H1  189   4.016   2.860   5.085
   61TIP3    H2  190   3.876   2.857   5.143
   62TIP3   OH2  191   5.098   3.097   1.838
   62TIP3    H1  192   5.103   3.042   1.917
   62TIP3    H2  193   5.129   3.041   1.768
   63TIP3   OH2  194   4.429   5.928   1.203
   63TIP3    H1  195   4.399   5.907   1.291
   63TIP3    H2  196   4.378   5.872   1.146
   64TIP3   OH2  197   2.231   5.133   2.458
   64TIP3    H1  198   2.313   5.084   2.452
   64TIP3    H2  199   2.257   5.225   2.454
   65TIP3   OH2  200   4.739   1.004   1.440
   65TIP3    H1  201   4.659   0.961   1.412
   65TIP3    H2  202   4.765   0.956   1.519
   66TIP3   OH2  203   1.454   5.811   4.104
   66TIP3    H1  204   1.532   5.785   4.153
   66TIP3    H2  205   1.387   5.824   4.172
   67TIP3   OH2  206   2.569   0.042   4.193
   67TIP3    H1  207   2.622   0.002   4.123
   67TIP3    H2  208   2.583  -0.015   4.269
   68TIP3   OH2  209   3.029   2.671   2.485
   68TIP3    H1  210   3.049   2.585   2.523
   68TIP3    H2  211   3.083   2.675   2.405
   69TIP3   OH2  212   1.500   3.811   0.649
   69TIP3    H1  213   1.502   3.832   0.743
   69TIP3    H2  214   1.410   3.779   0.634
   70TIP3   OH2  215   5.456   0.390   4.694
   70TIP3    H1  216   5.390   0.338   4.741
   70TIP3    H2  217   5.497   0.443   4.762
   71TIP3   OH2  218   5.327   1.727   1.617
   71TIP3    H1  219   5.409   1.773   1.604
   71TIP3    H2  220   5.260   1.795   1.610
   72TIP3   OH2  221   5.453   4.895   1.713
   72TIP3    H1  222   5.378   4.850   1.673
   72TIP3    H2  223   5.459   4.978   1.665
   73TIP3   OH2  224   0.122   3.401   4.741
   73TIP3    H1  225   0.140   3.372   4.652
   73TIP3    H2  226   0.031   3.431   4.739
   74TIP3   OH2  227   5.456   1.380   2.567
   74TIP3    H1  228   5.393   1.452   2.575
   74TIP3    H2  229   5.532   1.420   2.526
   75TIP3   OH2  230   5.822   1.037   1.240
   75TIP3    H1  231   5.860   0.975   1.178
   75TIP3    H2  232   5.732   1.049   1.210
   76TIP3   OH2  233   2.074   4.791   4.468
   76TIP3    H1  234   2.062   4.816   4.376
   76TIP3    H2  235   2.169   4.784   4.479
   77TIP3   OH2  236   1.315   3.413   2.319
   77TIP3    H1  237   1.360   3.409   2.235
   77TIP3    H2  238   1.332   3.328   2.359
   78TIP3   OH2  239   4.437   2.573   2.655
   78TIP3    H1  240   4.498   2.565   2.729
   78TIP3    H2  241   4.354   2.597   2.695
   79TIP3   OH2  242   3.241   0.410   1.040
   79TIP3    H1  243   3.254   0.401   0.945
   79TIP3    H2  244   3.149   0.434   1.048
   80TIP3   OH2  245   5.612   4.912   0.542
   80TIP3    H1  246   5.563   4.841   0.584
   80TIP3    H2  247   5.552   4.947   0.476
   81TIP3   OH2  248   0.955   3.398   3.895
   81TIP3    H1  249   0.915   3.401   3.808
   81TIP3    H2  250   0.930   3.481   3.936
   82TIP3   OH2  251   0.238   1.911   4.200
   82TIP3    H1  252   0.263   2.000   4.225
   82TIP3    H2  253   0.310   1.856   4.232
   83TIP3   OH2  254   4.781   4.095   3.044
   83TIP3    H1  255   4.867   4.063   3.015
   83TIP3    H2  256   4.781   4.188   3.024
   84TIP3   OH2  257   0.197   2.381   2.965
   84TIP3    H1  258   0.125   2.322   2.944
   84TIP3    H2  259   0.168   2.428   3.043
   85TIP3   OH2  260   5.951   2.174   4.900
   85TIP3    H1  261   6.006   2.252   4.903
   85TIP3    H2  262   5.866   2.203   4.932
   86TIP3   OH2  263   3.350   3.357   1.388
   86TIP3    H1  264   3.334   3.286   1.450
   86TIP3    H2  265   3.367   3.433   1.442
   87TIP3   OH2  266   0.560   3.001   2.960
   87TIP3    H1  267   0.495   3.040   3.019
   87TIP3    H2  268   0.567   3.064   2.888
   88TIP3   OH2  269   2.039   0.752   3.272
   88TIP3    H1  270   2.029   0.670   3.320
   88TIP3    H2  271   2.068   0.726   3.184
   89TIP3   OH2  272   2.407   0.242   0.613
   89TIP3    H1  273   2.400   0.147   0.606
   89TIP3    H2  274   2.332   0.269   0.665
   90TIP3   OH2  275   6.033   5.430   2.355
   90TIP3    H1  276   6.128   5.420   2.352
   90TIP3    H2  277   6.018   5.494   2.425
   91TIP3   OH2  278   1.193   1.337   4.208
   91TIP3    H1  279   1.186   1.372   4.119
   91TIP3    H2  280   1.158   1.408   4.264
   92TIP3   OH2  281   5.211   3.212   0.124
   92TIP3    H1  282   5.134   3.263   0.150
   92TIP3    H2  283   5.255   3.193   0.207
   93TIP3   OH2  284   4.547   4.556   2.685
   93TIP3    H1  285   4.462   4.571   2.726
   93TIP3    H2  286   4.578   4.474   2.723
   94TIP3   OH2  287   4.951   4.050   2.201
   94TIP3    H1  288   4.972   3.983   2.136
   94TIP3    H2  289   5.020   4.042   2.267
   95TIP3   OH2  290   3.343   3.683   3.135
   95TIP3    H1  291   3.433   3.655   3.152
   95TIP3    H2  292   3.324   3.650   3.047
   96TIP3   OH2  293   1.339   5.318   1.724
   96TIP3    H1  294   1.303   5.383   1.784
   96TIP3    H2  295   1.432   5.339   1.720
   97TIP3   OH2  296   2.651   4.353   0.070
   97TIP3    H1  297   2.691   4.354   0.157
   97TIP3    H2  298   2.705   4.413   0.019
   98TIP3   OH2  299   0.930   2.002   4.084
   98TIP3    H1  300   0.940   1.942   4.158
   98TIP3    H2  301   0.861   1.962   4.031
   99TIP3   OH2  302   1.292   1.550   2.434
   99TIP3    H1  303   1.333   1.617   2.489
   99TIP3    H2  304   1.245   1.599   2.366
  100TIP3   OH2  305   6.014   3.338   3.663
  100TIP3    H1  306   5.968   3.279   3.603
  100TIP3    H2  307   6.080   3.381   3.608
  101TIP3   OH2  308   0.871   1.667   3.665
  101TIP3    H1  309   0.847   1.670   3.573
  101TIP3    H2  310   0.801   1.715   3.710
  102TIP3   OH2  311   1.012   5.037   0.325
  102TIP3    H1  312   1.013   5.045   0.230
  102TIP3    H2  313   0.970   5.117   0.356
  103TIP3   OH2  314   2.286   4.847   4.067
  103TIP3    H1  315   2.298   4.930   4.020
  103TIP3    H2  316   2.321   4.781   4.008
  104TIP3   OH2  317   4.112   0.384   1.428
  104TIP3    H1  318   4.085   0.309   1.375
  104TIP3    H2  319   4.057   0.379   1.507
  105TIP3   OH2  320   3.180   5.948   3.517
  105TIP3    H1  321   3.241   5.977   3.584
  105TIP3    H2  322   3.104   6.006   3.526
  106TIP3   OH2  323   0.273   2.883   3.580
  106TIP3    H1  324   0.260   2.962   3.632
  106TIP3    H2  325   0.305   2.914   3.495
  107TIP3   OH2  326   1.166   0.959   3.103
  107TIP3    H1  327   1.237   0.901   3.131
  107TIP3    H2  328   1.141   0.926   3.017
  108TIP3   OH2  329   0.981   2.364   3.644
  108TIP3    H1  330   1.027   2.433   3.596
  108TIP3    H2  331   0.890   2.394   3.647
  109TIP3   OH2  332   5.002   0.438   1.732
  109TIP3    H1  333   4.936   0.421   1.666
  109TIP3    H2  334   5.057   0.507   1.695
  110TIP3   OH2  335   4.467   0.656   3.186
  110TIP3    H1  336   4.440   0.711   3.112
  110TIP3    H2  337   4.413   0.578   3.179
  111TIP3   OH2  338   0.258   4.278   3.260
  111TIP3    H1  339   0.316   4.309   3.191
  111TIP3    H2  340   0.240   4.355   3.313
  112TIP3   OH2  341   5.101   3.592   1.440
  112TIP3    H1  342   5.111   3.547   1.356
  112TIP3    H2  343   5.165   3.550   1.497
  113TIP3   OH2  344   5.469   5.134   1.584
  113TIP3    H1  345   5.399   5.172   1.532
  113TIP3    H2  346   5.538   5.114   1.521
  114TIP3   OH2  347   6.163   1.323   4.271
  114TIP3    H1  348   6.088   1.270   4.299
  114TIP3    H2  349   6.142   1.350   4.182
  115TIP3   OH2  350   4.401   1.754   3.038
  115TIP3    H1  351   4.350   1.712   3.106
  115TIP3    H2  352   4.460   1.686   3.005
  116TIP3   OH2  353   3.361   2.510   2.238
  116TIP3    H1  354   3.397   2.480   2.321
  116TIP3    H2  355   3.326   2.597   2.257
  117TIP3   OH2  356   0.951   0.281   0.521
  117TIP3    H1  357   0.906   0.216   0.466
  117TIP3    H2  358   0.979   0.233   0.598
  118TIP3   OH2  359   3.810   5.527   3.543
  118TIP3    H1  360   3.844   5.608   3.505
  118TIP3    H2  361   3.858   5.517   3.625
  119TIP3   OH2  362   1.536   4.221   1.624
  119TIP3    H1  363   1.589   4.265   1.689
  119TIP3    H2  364   1.563   4.259   1.540
  120TIP3   OH2  365   4.868   2.990   4.809
  120TIP3    H1  366   4.875   3.047   4.733
  120TIP3    H2  367   4.775   2.968   4.814
  121TIP3   OH2  368   4.489   0.693   2.703
  121TIP3    H1  369   4.546   0.625   2.739
  121TIP3    H2  370   4.542   0.734   2.634
  122TIP3   OH2  371   0.782   4.134   4.887
  122TIP3    H1  372   0.828   4.053   4.910
  122TIP3    H2  373   0.803   4.194   4.959
  123TIP3   OH2  374   5.008   2.024   4.364
  123TIP3    H1  375   4.925   2.052   4.403
  123TIP3    H2  376   5.034   2.096   4.308
  124TIP3   OH2  377   3.937   5.447   1.529
  124TIP3    H1  378   3.861   5.392   1.514
  124TIP3    H2  379   3.984   5.448   1.445
  125TIP3   OH2  380   3.981   4.425   1.008
  125TIP3    H1  381   3.936   4.506   1.030
  125TIP3    H2  382   3.945   4.360   1.068
  126TIP3   OH2  383   6.324   4.983   2.715
  126TIP3    H1  384   6.283   4.947   2.636
  126TIP3    H2  385   6.257   4.974   2.783
  127TIP3   OH2  386   1.731   0.358   1.141
  127TIP3    H1  387   1.716   0.367   1.047
  127TIP3    H2  388   1.696   0.439   1.178
  128TIP3   OH2  389   3.150   5.002   1.590
  128TIP3    H1  390   3.112   5.016   1.503
  128TIP3    H2  391   3.210   5.075   1.602
  129TIP3   OH2  392   4.054   1.137   1.121
  129TIP3    H1  393   3.999   1.106   1.192
  129TIP3    H2  394   4.078   1.058   1.073
  130TIP3   OH2  395   5.033   3.673   5.139
  130TIP3    H1  396   5.012   3.607   5.073
  130TIP3    H2  397   5.125   3.693   5.125
  131TIP3   OH2  398   1.888   1.483   4.552
  131TIP3    H1  399   1.837   1.557   4.583
  131TIP3    H2  400   1.831   1.407   4.565
  132TIP3   OH2  401   4.826   1.593   1.067
  132TIP3    H1  402   4.753   1.536   1.045
  132TIP3    H2  403   4.872   1.548   1.138
  133TIP3   OH2  404   3.257   1.791   2.524
  133TIP3    H1  405   3.171   1.825   2.501
  133TIP3    H2  406   3.270   1.818   2.615
  134TIP3   OH2  407   3.274   1.962   4.197
  134TIP3    H1  408   3.365   1.931   4.198
  134TIP3    H2  409   3.276   2.044   4.245
  135TIP3   OH2  410   5.869   1.700   1.042
  135TIP3    H1  411   5.790   1.650   1.024
  135TIP3    H2  412   5.923   1.688   0.964
  136TIP3   OH2  413   5.850   3.101   4.360
  136TIP3    H1  414   5.864   3.053   4.278
  136TIP3    H2  415   5.892   3.047   4.427
  137TIP3   OH2  416   0.253   1.334   0.343
  137TIP3    H1  417   0.242   1.428   0.357
  137TIP3    H2  418   0.331   1.311   0.394
  138TIP3   OH2  419   4.252   5.083   4.823
  138TIP3    H1  420   4.285   5.015   4.883
  138TIP3    H2  421   4.158   5.064   4.815
  139TIP3   OH2  422   5.468   1.183   1.277
  139TIP3    H1  423   5.536   1.119   1.296
  139TIP3    H2  424   5.432   1.207   1.363
  140TIP3   OH2  425   5.672   1.937   3.176
  140TIP3    H1  426   5.760   1.907   3.154
  140TIP3    H2  427   5.684   1.990   3.255
  141TIP3   OH2  428   5.145   0.263   2.923
  141TIP3    H1  429   5.074   0.228   2.976
  141TIP3    H2  430   5.224   0.247   2.975
  142TIP3   OH2  431   5.249   4.701   3.043
  142TIP3    H1  432   5.251   4.709   3.138
  142TIP3    H2  433   5.297   4.620   3.025
  143TIP3   OH2  434   5.697   1.713   1.853
  143TIP3    H1  435   5.653   1.769   1.788
  143TIP3    H2  436   5.745   1.649   1.800
  144TIP3   OH2  437   2.000   5.640   3.219
  144TIP3    H1  438   1.974   5.561   3.173
  144TIP3    H2  439   2.012   5.612   3.310
  145TIP3   OH2  440   5.440   4.680   0.621
  145TIP3    H1  441   5.349   4.692   0.649
  145TIP3    H2  442   5.435   4.607   0.559
  146TIP3   OH2  443   0.818   1.843   0.242
  146TIP3    H1  444   0.910   1.867   0.229
  146TIP3    H2  445   0.817   1.795   0.325
  147TIP3   OH2  446   5.422   2.996   1.386
  147TIP3    H1  447   5.411   2.906   1.417
  147TIP3    H2  448   5.438   2.987   1.292
  148TIP3   OH2  449   0.572   2.856   2.126
  148TIP3    H1  450   0.541   2.830   2.039
  148TIP3    H2  451   0.496   2.898   2.166
  149TIP3   OH2  452   2.336   2.710   3.991
  149TIP3    H1  453   2.320   2.787   3.936
  149TIP3    H2  454   2.301   2.637   3.939
  150TIP3   OH2  455   6.167   0.598   2.812
  150TIP3    H1  456   6.120   0.672   2.852
  150TIP3    H2  457   6.255   0.604   2.848
  151TIP3   OH2  458   4.842   2.059   2.163
  151TIP3    H1  459   4.798   2.126   2.216
  151TIP3    H2  460   4.772   2.021   2.110
  152TIP3   OH2  461   1.070   1.975   0.251
  152TIP3    H1  462   1.164   1.956   0.241
  152TIP3    H2  463   1.060   2.063   0.216
  153TIP3   OH2  464   1.062   1.041   3.460
  153TIP3    H1  465   1.146   0.998   3.476
  153TIP3    H2  466   1.083   1.112   3.398
  154TIP3   OH2  467   0.390   4.373   2.606
  154TIP3    H1  468   0.442   4.434   2.554
  154TIP3    H2  469   0.435   4.289   2.594
  155TIP3   OH2  470   2.424   3.190   0.891
  155TIP3    H1  471   2.464   3.200   0.804
  155TIP3    H2  472   2.425   3.278   0.928
  156TIP3   OH2  473   0.720   2.443   3.612
  156TIP3    H1  474   0.715   2.509   3.543
  156TIP3    H2  475   0.653   2.469   3.675
  157TIP3   OH2  476   1.792   3.470   0.945
  157TIP3    H1  477   1.700   3.447   0.960
  157TIP3    H2  478   1.839   3.418   1.011
  158TIP3   OH2  479   4.944   0.077   5.014
  158TIP3    H1  480   4.886   0.111   5.082
  158TIP3    H2  481   4.896   0.003   4.977
  159TIP3   OH2  482   5.572   2.404   4.783
  159TIP3    H1  483   5.604   2.338   4.844
  159TIP3    H2  484   5.597   2.371   4.696
  160TIP3   OH2  485   5.619   5.972   0.096
  160TIP3    H1  486   5.524   5.976   0.105
  160TIP3    H2  487   5.645   5.902   0.156
  161TIP3   OH2  488   2.593   5.949   2.452
  161TIP3    H1  489   2.674   5.986   2.417
  161TIP3    H2  490   2.524   6.007   2.420
  162TIP3   OH2  491   1.692   3.477   3.065
  162TIP3    H1  492   1.695   3.453   3.157
  162TIP3    H2  493   1.604   3.513   3.053
  163TIP3   OH2  494   2.548   0.566   2.770
  163TIP3    H1  495   2.517   0.573   2.860
  163TIP3    H2  496   2.513   0.643   2.726
  164TIP3   OH2  497   5.086   0.913   2.472
  164TIP3    H1  498   5.098   1.005   2.495
  164TIP3    H2  499   5.131   0.902   2.389
  165TIP3   OH2  500   5.108   4.471   5.157
  165TIP3    H1  501   5.082   4.523   5.081
  165TIP3    H2  502   5.135   4.387   5.120
  166TIP3   OH2  503   1.130   5.832   4.604
  166TIP3    H1  504   1.125   5.772   4.529
  166TIP3    H2  505   1.039   5.846   4.630
  167TIP3   OH2  506   1.490   1.583   4.900
  167TIP3    H1  507   1.577   1.546   4.913
  167TIP3    H2  508   1.431   1.508   4.904
  168TIP3   OH2  509   0.896   1.868   4.562
  168TIP3    H1  510   0.987   1.847   4.584
  168TIP3    H2  511   0.845   1.823   4.629
  169TIP3   OH2  512   3.975   0.807   1.770
  169TIP3    H1  513   3.917   0.790   1.844
  169TIP3    H2  514   4.064   0.797   1.806
  170TIP3   OH2  515   5.444   1.440   2.937
  170TIP3    H1  516   5.519   1.490   2.904
  170TIP3    H2  517   5.474   1.402   3.020
  171TIP3   OH2  518   1.695   2.453   5.190
  171TIP3    H1  519   1.757   2.381   5.193
  171TIP3    H2  520   1.747   2.530   5.212
  172TIP3   OH2  521   2.489   5.109   2.579
  172TIP3    H1  522   2.524   5.027   2.543
  172TIP3    H2  523   2.550   5.176   2.550
  173TIP3   OH2  524   2.255   2.218   0.656
  173TIP3    H1  525   2.284   2.193   0.568
  173TIP3    H2  526   2.160   2.213   0.652
  174TIP3   OH2  527   5.494   1.667   2.279
  174TIP3    H1  528   5.503   1.715   2.197
  174TIP3    H2  529   5.433   1.596   2.259
  175TIP3   OH2  530   0.161   2.354   0.488
  175TIP3    H1  531   0.122   2.321   0.568
  175TIP3    H2  532   0.106   2.317   0.418
  176TIP3   OH2  533   5.616   3.020   2.028
  176TIP3    H1  534   5.634   3.051   2.116
  176TIP3    H2  535   5.576   2.934   2.040
  177TIP3   OH2  536   5.798   5.434   0.465
  177TIP3    H1  537   5.744   5.367   0.424
  177TIP3    H2  538   5.855   5.466   0.394
  178TIP3   OH2  539   1.792   3.008   3.155
  178TIP3    H1  540   1.788   3.027   3.249
  178TIP3    H2  541   1.763   2.917   3.148
  179TIP3   OH2  542   0.060   1.355   1.355
  179TIP3    H1  543   0.103   1.434   1.389
  179TIP3    H2  544  -0.034   1.375   1.362
  180TIP3   OH2  545   1.004   3.804   3.094
  180TIP3    H1  546   1.028   3.802   3.001
  180TIP3    H2  547   1.036   3.721   3.129
  181TIP3   OH2  548   4.906   2.435   4.656
  181TIP3    H1  549   4.917   2.522   4.695
  181TIP3    H2  550   4.957   2.438   4.575
  182TIP3   OH2  551   1.384   1.870   4.902
  182TIP3    H1  552   1.369   1.784   4.942
  182TIP3    H2  553   1.479   1.880   4.901
  183TIP3   OH2  554   0.629   0.280   0.458
  183TIP3    H1  555   0.680   0.320   0.388
  183TIP3    H2  556   0.689   0.274   0.532
  184TIP3   OH2  557   4.523   5.263   1.522
  184TIP3    H1  558   4.567   5.276   1.606
  184TIP3    H2  559   4.526   5.169   1.507
  185TIP3   OH2  560   0.506   0.658   5.009
  185TIP3    H1  561   0.576   0.716   5.037
  185TIP3    H2  562   0.435   0.716   4.982
  186TIP3   OH2  563   4.618   3.215   2.917
  186TIP3    H1  564   4.644   3.248   3.003
  186TIP3    H2  565   4.574   3.132   2.934
  187TIP3   OH2  566   0.345   1.209   1.944
  187TIP3    H1  567   0.280   1.156   1.898
  187TIP3    H2  568   0.372   1.275   1.881
  188TIP3   OH2  569   3.643   0.459   0.336
  188TIP3    H1  570   3.648   0.549   0.302
  188TIP3    H2  571   3.586   0.414   0.273
  189TIP3   OH2  572   5.341   5.152   3.885
  189TIP3    H1  573   5.251   5.129   3.910
  189TIP3    H2  574   5.396   5.096   3.940
  190TIP3   OH2  575   5.590   1.864   1.599
  190TIP3    H1  576   5.669   1.825   1.562
  190TIP3    H2  577   5.623   1.932   1.658
  191TIP3   OH2  578   2.039   3.516   0.537
  191TIP3    H1  579   1.983   3.444   0.508
  191TIP3    H2  580   2.039   3.510   0.632
  192TIP3   OH2  581   2.273   0.822   3.049
  192TIP3    H1  582   2.196   0.765   3.050
  192TIP3    H2  583   2.347   0.762   3.039
  193TIP3   OH2  584   4.796   4.669   4.170
  193TIP3    H1  585   4.753   4.691   4.253
  193TIP3    H2  586   4.826   4.579   4.181
  194TIP3   OH2  587   0.069   1.260   4.221
  194TIP3    H1  588   0.079   1.304   4.137
  194TIP3    H2  589  -0.022   1.277   4.246
  195TIP3   OH2  590   5.342   4.669   5.159
  195TIP3    H1  591   5.328   4.597   5.097
  195TIP3    H2  592   5.254   4.696   5.185
  196TIP3   OH2  593   4.801   0.329   2.128
  196TIP3    H1  594   4.875   0.312   2.185
  196TIP3    H2  595   4.810   0.267   2.056
  197TIP3   OH2  596   4.367   4.869   1.728
  197TIP3    H1  597   4.302   4.903   1.666
  197TIP3    H2  598   4.449   4.867   1.677
  198TIP3   OH2  599   6.173   0.581   2.092
  198TIP3    H1  600   6.267   0.563   2.089
  198TIP3    H2  601   6.155   0.597   2.185
  199TIP3   OH2  602   4.867   4.765   0.703
  199TIP3    H1  603   4.835   4.713   0.777
  199TIP3    H2  604   4.844   4.712   0.626
  200TIP3   OH2  605   0.115   3.864   1.437
  200TIP3    H1  606   0.060   3.797   1.397
  200TIP3    H2  607   0.191   3.815   1.471
  201TIP3   OH2  608   5.459   4.448   4.516
  201TIP3    H1  609   5.455   4.541   4.493
  201TIP3    H2  610   5.491   4.447   4.606
  202TIP3   OH2  611   1.721   4.646   3.732
  202TIP3    H1  612   1.684   4.645   3.820
  202TIP3    H2  613   1.762   4.732   3.723
  203TIP3   OH2  614   4.338   4.005   4.768
  203TIP3    H1  615   4.378   3.980   4.851
  203TIP3    H2  616   4.298   4.090   4.785
  204TIP3   OH2  617   0.295   4.963   3.681
  204TIP3    H1  618   0.350   4.998   3.612
  204TIP3    H2  619   0.347   4.892   3.720
  205TIP3   OH2  620   5.783   0.903   0.785
  205TIP3    H1  621   5.860   0.886   0.732
  205TIP3    H2  622   5.715   0.847   0.748
  206TIP3   OH2  623   6.184   4.724   0.566
  206TIP3    H1  624   6.214   4.809   0.532
  206TIP3    H2  625   6.110   4.701   0.510
  207TIP3   OH2  626   1.887   0.320   5.001
  207TIP3    H1  627   1.936   0.382   5.055
  207TIP3    H2  628   1.853   0.372   4.929
  208TIP3   OH2  629   3.000   1.820   5.111
  208TIP3    H1  630   2.906   1.832   5.125
  208TIP3    H2  631   3.027   1.896   5.060
  209TIP3   OH2  632   1.615   5.344   1.239
  209TIP3    H1  633   1.681   5.324   1.307
  209TIP3    H2  634   1.557   5.408   1.280
  210TIP3   OH2  635   3.072   0.736   1.759
  210TIP3    H1  636   3.113   0.821   1.741
  210TIP3    H2  637   3.031   0.747   1.844
  211TIP3   OH2  638   4.661   3.623   1.228
  211TIP3    H1  639   4.570   3.627   1.200
  211TIP3    H2  640   4.711   3.619   1.147
  212TIP3   OH2  641   2.507   4.562   1.848
  212TIP3    H1  642   2.538   4.497   1.912
  212TIP3    H2  643   2.575   4.629   1.846
  213TIP3   OH2  644   6.195   4.702   4.851
  213TIP3    H1  645   6.134   4.775   4.866
  213TIP3    H2  646   6.193   4.653   4.933
  214TIP3   OH2  647   0.528   1.257   0.431
  214TIP3    H1  648   0.474   1.253   0.510
  214TIP3    H2  649   0.573   1.173   0.428
  215TIP3   OH2  650   0.456   4.913   0.067
  215TIP3    H1  651   0.547   4.882   0.072
  215TIP3    H2  652   0.439   4.950   0.154
  216TIP3   OH2  653   5.876   3.274   2.463
  216TIP3    H1  654   5.962   3.258   2.424
  216TIP3    H2  655   5.882   3.361   2.502
  217TIP3   OH2  656   2.593   2.524   1.329
  217TIP3    H1  657   2.573   2.431   1.338
  217TIP3    H2  658   2.509   2.565   1.308
  218TIP3   OH2  659   3.416   2.528   4.036
  218TIP3    H1  660   3.471   2.461   4.077
  218TIP3    H2  661   3.374   2.484   3.963
  219TIP3   OH2  662   1.729   1.475   5.007
  219TIP3    H1  663   1.783   1.455   4.931
  219TIP3    H2  664   1.727   1.393   5.057
  220TIP3   OH2  665   5.765   2.584   4.862
  220TIP3    H1  666   5.746   2.504   4.812
  220TIP3    H2  667   5.804   2.552   4.943
  221TIP3   OH2  668   2.229   1.438   4.846
  221TIP3    H1  669   2.242   1.502   4.776
  221TIP3    H2  670   2.277   1.474   4.920
  222TIP3   OH2  671   3.717   1.449   2.346
  222TIP3    H1  672   3.795   1.470   2.295
  222TIP3    H2  673   3.687   1.534   2.379
  223TIP3   OH2  674   0.521   4.885   2.908
  223TIP3    H1  675   0.482   4.801   2.934
  223TIP3    H2  676   0.501   4.944   2.980
  224TIP3   OH2  677   2.637   3.195   1.125
  224TIP3    H1  678   2.578   3.121   1.114
  224TIP3    H2  679   2.599   3.245   1.197
  225TIP3   OH2  680   3.456   3.957   0.663
  225TIP3    H1  681   3.473   3.883   0.721
  225TIP3    H2  682   3.425   3.917   0.582
  226TIP3   OH2  683   6.018   4.310   3.388
  226TIP3    H1  684   6.035   4.389   3.440
  226TIP3    H2  685   5.922   4.307   3.380
  227TIP3   OH2  686   1.773   1.673   3.180
  227TIP3    H1  687   1.785   1.579   3.191
  227TIP3    H2  688   1.814   1.712   3.257
  228TIP3   OH2  689   3.647   5.373   1.089
  228TIP3    H1  690   3.698   5.425   1.027
  228TIP3    H2  691   3.602   5.438   1.143
  229TIP3   OH2  692   2.592   3.186   3.708
  229TIP3    H1  693   2.620   3.095   3.706
  229TIP3    H2  694   2.597   3.211   3.801
  230TIP3   OH2  695   1.001   0.885   1.459
  230TIP3    H1  696   0.984   0.791   1.449
  230TIP3    H2  697   0.930   0.916   1.515
  231TIP3   OH2  698   4.130   5.246   0.430
  231TIP3    H1  699   4.080   5.181   0.380
  231TIP3    H2  700   4.149   5.203   0.513
  232TIP3   OH2  701   3.117   4.544   3.550
  232TIP3    H1  702   3.167   4.626   3.545
  232TIP3    H2  703   3.178   4.480   3.585
  233TIP3   OH2  704   5.832   2.854   4.894
  233TIP3    H1  705   5.919   2.857   4.934
  233TIP3    H2  706   5.801   2.765   4.909
  234TIP3   OH2  707   5.246   0.859   3.322
  234TIP3    H1  708   5.160   0.827   3.296
  234TIP3    H2  709   5.305   0.825   3.255
  235TIP3   OH2  710   5.426   3.632   3.220
  235TIP3    H1  711   5.457   3.606   3.307
  235TIP3    H2  712   5.345   3.679   3.237
  236TIP3   OH2  713   2.858   5.555   1.890
  236TIP3    H1  714   2.829   5.489   1.953
  236TIP3    H2  715   2.849   5.638   1.938
  237TIP3   OH2  716   2.235   4.941   1.779
  237TIP3    H1  717   2.254   4.849   1.798
  237TIP3    H2  718   2.285   4.990   1.844
  238TIP3   OH2  719   4.913   4.079   3.533
  238TIP3    H1  720   4.909   4.121   3.447
  238TIP3    H2  721   4.990   4.117   3.575
  239TIP3   OH2  722   3.406   1.357   1.733
  239TIP3    H1  723   3.439   1.343   1.644
  239TIP3    H2  724   3.477   1.328   1.790
  240TIP3   OH2  725   4.064   5.532   4.580
  240TIP3    H1  726   4.056   5.624   4.606
  240TIP3    H2  727   4.085   5.486   4.662
  241TIP3   OH2  728   2.155   4.472   2.811
  241TIP3    H1  729   2.174   4.565   2.824
  241TIP3    H2  730   2.240   4.428   2.819
  242TIP3   OH2  731   2.088   3.517   1.504
  242TIP3    H1  732   2.004   3.531   1.459
  242TIP3    H2  733   2.081   3.429   1.540
  243TIP3   OH2  734   3.525   5.742   2.321
  243TIP3    H1  735   3.616   5.728   2.350
  243TIP3    H2  736   3.472   5.702   2.389
  244TIP3   OH2  737   3.742   1.556   4.182
  244TIP3    H1  738   3.823   1.576   4.135
  244TIP3    H2  739   3.675   1.606   4.135
  245TIP3   OH2  740   3.698   3.034   2.661
  245TIP3    H1  741   3.738   3.040   2.748
  245TIP3    H2  742   3.711   3.121   2.622
  246TIP3   OH2  743   4.574   0.334   1.360
  246TIP3    H1  744   4.507   0.274   1.326
  246TIP3    H2  745   4.548   0.420   1.327
  247TIP3   OH2  746   3.807   4.020   2.076
  247TIP3    H1  747   3.716   4.020   2.047
  247TIP3    H2  748   3.856   4.055   2.001
  248TIP3   OH2  749   2.767   3.049   1.818
  248TIP3    H1  750   2.814   3.014   1.742
  248TIP3    H2  751   2.820   3.122   1.849
  249TIP3   OH2  752   2.327   1.539   4.578
  249TIP3    H1  753   2.415   1.508   4.557
  249TIP3    H2  754   2.278   1.531   4.496
  250TIP3   OH2  755   3.785   5.745   0.935
  250TIP3    H1  756   3.709   5.799   0.956
  250TIP3    H2  757   3.857   5.807   0.925
  251TIP3   OH2  758   4.148   1.542   1.112
  251TIP3    H1  759   4.217   1.476   1.113
  251TIP3    H2  760   4.095   1.520   1.035
  252TIP3   OH2  761   0.099   5.524   4.270
  252TIP3    H1  762   0.022   5.488   4.225
  252TIP3    H2  763   0.169   5.518   4.205
  253TIP3   OH2  764   0.015   2.918   1.513
  253TIP3    H1  765   0.057   2.930   1.598
  253TIP3    H2  766   0.086   2.889   1.455
  254TIP3   OH2  767   3.444   0.054   0.406
  254TIP3    H1  768   3.391  -0.008   0.356
  254TIP3    H2  769   3.520   0.070   0.351
  255TIP3   OH2  770   4.009   2.420   4.174
  255TIP3    H1  771   4.073   2.487   4.148
  255TIP3    H2  772   4.053   2.370   4.242
  256TIP3   OH2  773   0.071   0.157   4.054
  256TIP3    H1  774   0.006   0.214   4.011
  256TIP3    H2  775   0.020   0.104   4.115
  257TIP3   OH2  776   6.248   1.827   2.439
  257TIP3    H1  777   6.335   1.796   2.464
  257TIP3    H2  778   6.206   1.750   2.401
  258TIP3   OH2  779   0.441   1.087   4.638
  258TIP3    H1  780   0.434   1.067   4.731
  258TIP3    H2  781   0.443   1.001   4.595
  259TIP3   OH2  782   1.207   2.253   2.088
  259TIP3    H1  783   1.218   2.166   2.049
  259TIP3    H2  784   1.113   2.272   2.078
  260TIP3   OH2  785   6.088   0.101   1.477
  260TIP3    H1  786   6.040   0.053   1.544
  260TIP3    H2  787   6.180   0.093   1.503
  261TIP3   OH2  788   1.267   4.352   3.269
  261TIP3    H1  789   1.353   4.315   3.251
  261TIP3    H2  790   1.205   4.285   3.239
  262TIP3   OH2  791   5.013   3.318   3.717
  262TIP3    H1  792   5.058   3.400   3.698
  262TIP3    H2  793   4.988   3.283   3.631
  263TIP3   OH2  794   4.281   4.140   3.163
  263TIP3    H1  795   4.257   4.098   3.080
  263TIP3    H2  796   4.309   4.068   3.219
  264TIP3   OH2  797   1.252   1.171   4.716
  264TIP3    H1  798   1.343   1.148   4.736
  264TIP3    H2  799   1.223   1.104   4.655
  265TIP3   OH2  800   0.296   0.590   4.535
  265TIP3    H1  801   0.219   0.646   4.531
  265TIP3    H2  802   0.343   0.619   4.613
  266TIP3   OH2  803   1.862   0.982   0.137
  266TIP3    H1  804   1.883   1.042   0.065
  266TIP3    H2  805   1.791   1.025   0.185
  267TIP3   OH2  806   1.632   5.533   1.548
  267TIP3    H1  807   1.556   5.590   1.562
  267TIP3    H2  808   1.707   5.592   1.550
  268TIP3   OH2  809   1.457   1.406   1.663
  268TIP3    H1  810   1.415   1.421   1.578
  268TIP3    H2  811   1.392   1.434   1.728
  269TIP3   OH2  812   6.268   1.462   4.476
  269TIP3    H1  813   6.215   1.403   4.529
  269TIP3    H2  814   6.239   1.446   4.386
  270TIP3   OH2  815   0.523   0.177   0.991
  270TIP3    H1  816   0.564   0.260   1.014
  270TIP3    H2  817   0.532   0.171   0.896
  271TIP3   OH2  818   5.241   0.242   0.327
  271TIP3    H1  819   5.239   0.336   0.306
  271TIP3    H2  820   5.325   0.212   0.291
  272TIP3   OH2  821   1.427   3.529   3.137
  272TIP3    H1  822   1.379   3.447   3.153
  272TIP3    H2  823   1.358   3.595   3.128
  273TIP3   OH2  824   0.603   5.296   1.204
  273TIP3    H1  825   0.577   5.387   1.218
  273TIP3    H2  826   0.561   5.248   1.276
  274TIP3   OH2  827   0.444   0.831   3.320
  274TIP3    H1  828   0.534   0.824   3.288
  274TIP3    H2  829   0.452   0.873   3.405
  275TIP3   OH2  830   2.267   5.711   3.311
  275TIP3    H1  831   2.231   5.623   3.327
  275TIP3    H2  832   2.266   5.720   3.216
  276TIP3   OH2  833   2.247   1.434   0.348
  276TIP3    H1  834   2.278   1.523   0.363
  276TIP3    H2  835   2.312   1.379   0.393
  277TIP3   OH2  836   6.151   3.002   3.757
  277TIP3    H1  837   6.138   2.977   3.848
  277TIP3    H2  838   6.081   2.958   3.709
  278TIP3   OH2  839   0.387   1.408   1.212
  278TIP3    H1  840   0.406   1.499   1.188
  278TIP3    H2  841   0.458   1.384   1.271
  279TIP3   OH2  842   5.899   0.991   1.702
  279TIP3    H1  843   5.949   1.035   1.634
  279TIP3    H2  844   5.809   0.992   1.670
  280TIP3   OH2  845   0.856   1.114   1.313
  280TIP3    H1  846   0.863   1.148   1.402
  280TIP3    H2  847   0.929   1.156   1.266
  281TIP3   OH2  848   4.046   2.327   0.710
  281TIP3    H1  849   4.003   2.410   0.690
  281TIP3    H2  850   4.062   2.330   0.804
  282TIP3   OH2  851   1.569   2.533   4.786
  282TIP3    H1  852   1.585   2.619   4.824
  282TIP3    H2  853   1.557   2.549   4.693
  283TIP3   OH2  854   1.565   3.000   4.757
  283TIP3    H1  855   1.547   2.915   4.796
  283TIP3    H2  856   1.554   2.987   4.663
  284TIP3   OH2  857   1.486   1.298   2.371
  284TIP3    H1  858   1.486   1.366   2.438
  284TIP3    H2  859   1.475   1.345   2.288
  285TIP3   OH2  860   3.862   4.057   1.451
  285TIP3    H1  861   3.823   3.996   1.389
  285TIP3    H2  862   3.879   4.005   1.529
  286TIP3   OH2  863   2.812   1.819   2.510
  286TIP3    H1  864   2.731   1.827   2.560
  286TIP3    H2  865   2.870   1.767   2.566
  287TIP3   OH2  866   6.002   4.898   3.351
  287TIP3    H1  867   6.078   4.919   3.405
  287TIP3    H2  868   5.990   4.974   3.295
  288TIP3   OH2  869   6.018   2.148   3.089
  288TIP3    H1  870   6.030   2.077   3.026
  288TIP3    H2  871   6.018   2.104   3.174
  289TIP3   OH2  872   2.380   4.125   0.396
  289TIP3    H1  873   2.440   4.112   0.324
  289TIP3    H2  874   2.303   4.165   0.356
  290TIP3   OH2  875   3.829   2.538   2.394
  290TIP3    H1  876   3.883   2.551   2.472
  290TIP3    H2  877   3.826   2.443   2.383
  291TIP3   OH2  878   0.121   5.693   2.380
  291TIP3    H1  879   0.193   5.707   2.441
  291TIP3    H2  880   0.101   5.780   2.346
  292TIP3   OH2  881   0.432   2.115   0.693
  292TIP3    H1  882   0.467   2.157   0.615
  292TIP3    H2  883   0.410   2.188   0.751
  293TIP3   OH2  884   3.574   1.492   0.338
  293TIP3    H1  885   3.665   1.464   0.340
  293TIP3    H2  886   3.578   1.588   0.331
  294TIP3   OH2  887   5.338   1.930   3.402
  294TIP3    H1  888   5.246   1.943   3.424
  294TIP3    H2  889   5.338   1.856   3.342
  295TIP3   OH2  890   4.043   5.521   0.619
  295TIP3    H1  891   4.052   5.426   0.612
  295TIP3    H2  892   3.951   5.538   0.597
  296TIP3   OH2  893   2.182   5.158   2.926
  296TIP3    H1  894   2.126   5.152   2.849
  296TIP3    H2  895   2.138   5.104   2.992
  297TIP3   OH2  896   4.773   5.224   4.142
  297TIP3    H1  897   4.780   5.200   4.049
  297TIP3    H2  898   4.757   5.141   4.187
  298TIP3   OH2  899   2.642   4.763   3.687
  298TIP3    H1  900   2.619   4.846   3.728
  298TIP3    H2  901   2.635   4.780   3.593
  299TIP3   OH2  902   1.832   4.621   0.938
  299TIP3    H1  903   1.903   4.594   0.880
  299TIP3    H2  904   1.844   4.715   0.948
  300TIP3   OH2  905   2.626   4.971   0.913
  300TIP3    H1  906   2.558   4.953   0.849
  300TIP3    H2  907   2.606   4.915   0.987
  301TIP3   OH2  908   1.764   1.046   4.776
  301TIP3    H1  909   1.800   1.130   4.803
  301TIP3    H2  910   1.841   0.994   4.751
  302TIP3   OH2  911   5.236   1.403   1.952
  302TIP3    H1  912   5.172   1.421   2.020
  302TIP3    H2  913   5.251   1.488   1.909
  303TIP3   OH2  914   5.869   0.229   0.100
  303TIP3    H1  915   5.887   0.323   0.110
  303TIP3    H2  916   5.948   0.193   0.060
  304TIP3   OH2  917   1.832   0.073   3.126
  304TIP3    H1  918   1.747   0.043   3.092
  304TIP3    H2  919   1.889  -0.004   3.120
  305TIP3   OH2  920   0.679   0.333   1.400
  305TIP3    H1  921   0.657   0.412   1.350
  305TIP3    H2  922   0.722   0.276   1.337
  306TIP3   OH2  923   1.924   0.156   2.463
  306TIP3    H1  924   1.857   0.114   2.410
  306TIP3    H2  925   2.006   0.116   2.433
  307TIP3   OH2  926   3.428   1.104   4.598
  307TIP3    H1  927   3.392   1.149   4.675
  307TIP3    H2  928   3.391   1.016   4.602
  308TIP3   OH2  929   3.970   5.969   4.109
  308TIP3    H1  930   3.946   6.060   4.089
  308TIP3    H2  931   3.888   5.921   4.100
  309TIP3   OH2  932   3.025   5.436   0.924
  309TIP3    H1  933   3.091   5.381   0.966
  309TIP3    H2  934   3.057   5.526   0.938
  310TIP3   OH2  935   5.622   5.456   4.654
  310TIP3    H1  936   5.630   5.541   4.698
  310TIP3    H2  937   5.690   5.457   4.587
  311TIP3   OH2  938   5.553   0.773   2.561
  311TIP3    H1  939   5.621   0.706   2.561
  311TIP3    H2  940   5.586   0.841   2.504
  312TIP3   OH2  941   1.448   3.845   3.927
  312TIP3    H1  942   1.368   3.896   3.931
  312TIP3    H2  943   1.498   3.873   4.004
  313TIP3   OH2  944   5.384   2.923   1.769
  313TIP3    H1  945   5.347   2.962   1.689
  313TIP3    H2  946   5.471   2.894   1.743
  314TIP3   OH2  947   4.229   5.853   3.146
  314TIP3    H1  948   4.224   5.948   3.132
  314TIP3    H2  949   4.303   5.825   3.093
  315TIP3   OH2  950   1.698   5.994   3.442
  315TIP3    H1  951   1.690   5.907   3.403
  315TIP3    H2  952   1.610   6.014   3.475
  316TIP3   OH2  953   4.223   4.568   0.691
  316TIP3    H1  954   4.229   4.561   0.595
  316TIP3    H2  955   4.168   4.494   0.717
  317TIP3   OH2  956   0.650   3.874   3.383
  317TIP3    H1  957   0.706   3.858   3.459
  317TIP3    H2  958   0.565   3.836   3.407
  318TIP3   OH2  959   2.727   5.718   2.845
  318TIP3    H1  960   2.716   5.802   2.801
  318TIP3    H2  961   2.639   5.683   2.853
  319TIP3   OH2  962   3.496   4.737   2.760
  319TIP3    H1  963   3.566   4.734   2.694
  319TIP3    H2  964   3.447   4.656   2.745
  320TIP3   OH2  965   3.313   3.087   0.922
  320TIP3    H1  966   3.371   3.061   0.994
  320TIP3    H2  967   3.342   3.174   0.898
  321TIP3   OH2  968   1.150   1.613   0.347
  321TIP3    H1  969   1.183   1.587   0.261
  321TIP3    H2  970   1.203   1.689   0.371
  322TIP3   OH2  971   5.653   2.503   3.641
  322TIP3    H1  972   5.662   2.565   3.568
  322TIP3    H2  973   5.740   2.503   3.682
  323TIP3   OH2  974   4.793   1.623   2.125
  323TIP3    H1  975   4.866   1.679   2.152
  323TIP3    H2  976   4.821   1.585   2.042
  324TIP3   OH2  977   4.913   1.604   1.603
  324TIP3    H1  978   4.865   1.536   1.556
  324TIP3    H2  979   4.856   1.681   1.601
  325TIP3   OH2  980   4.555   3.542   0.711
  325TIP3    H1  981   4.492   3.499   0.653
  325TIP3    H2  982   4.518   3.531   0.798
  326TIP3   OH2  983   3.700   1.699   2.455
  326TIP3    H1  984   3.773   1.747   2.494
  326TIP3    H2  985   3.650   1.767   2.409
  327TIP3   OH2  986   4.477   4.548   0.246
  327TIP3    H1  987   4.407   4.548   0.180
  327TIP3    H2  988   4.553   4.514   0.200
  328TIP3   OH2  989   5.416   2.078   1.465
  328TIP3    H1  990   5.468   2.090   1.386
  328TIP3    H2  991   5.463   2.012   1.515
  329TIP3   OH2  992   4.840   4.575   4.804
  329TIP3    H1  993   4.801   4.646   4.855
  329TIP3    H2  994   4.766   4.527   4.768
  330TIP3   OH2  995   3.759   1.895   3.887
  330TIP3    H1  996   3.738   1.968   3.829
  330TIP3    H2  997   3.845   1.918   3.923
  331TIP3   OH2  998   2.864   2.296   3.554
  331TIP3    H1  999   2.851   2.318   3.646
  331TIP3    H2 1000   2.784   2.324   3.510
  332TIP3   OH2 1001   2.104   2.577   0.928
  332TIP3    H1 1002   2.049   2.547   1.001
  332TIP3    H2 1003   2.165   2.504   0.913
  333TIP3   OH2 1004   3.321   2.108   2.386
  333TIP3    H1 1005   3.296   2.041   2.449
  333TIP3    H2 1006   3.355   2.180   2.439
  334TIP3   OH2 1007   5.954   4.748   0.181
  334TIP3    H1 1008   5.901   4.709   0.112
  334TIP3    H2 1009   6.036   4.774   0.137
  335TIP3   OH2 1010   1.500   1.618   4.222
  335TIP3    H1 1011   1.590   1.623   4.256
  335TIP3    H2 1012   1.445   1.617   4.300
  336TIP3   OH2 1013   4.430   0.077   2.279
  336TIP3    H1 1014   4.505   0.064   2.221
  336TIP3    H2 1015   4.358   0.033   2.235
  337TIP3   OH2 1016   0.616   3.351   1.253
  337TIP3    H1 1017   0.564   3.425   1.284
  337TIP3    H2 1018   0.694   3.391   1.215
  338TIP3   OH2 1019   5.145   2.586   4.894
  338TIP3    H1 1020   5.094   2.589   4.974
  338TIP3    H2 1021   5.083   2.612   4.825
  339TIP3   OH2 1022   3.729   1.750   3.451
  339TIP3    H1 1023   3.669   1.821   3.474
  339TIP3    H2 1024   3.711   1.681   3.514
  340TIP3   OH2 1025   2.870   4.443   4.983
  340TIP3    H1 1026   2.920   4.364   5.005
  340TIP3    H2 1027   2.893   4.506   5.051
  341TIP3   OH2 1028   3.426   1.200   3.143
  341TIP3    H1 1029   3.370   1.267   3.105
  341TIP3    H2 1030   3.515   1.227   3.119
  342TIP3   OH2 1031   3.147   0.885  -0.029
  342TIP3    H1 1032   3.177   0.957   0.027
  342TIP3    H2 1033   3.227   0.838  -0.053
  343TIP3   OH2 1034   6.222   3.993   2.376
  343TIP3    H1 1035   6.277   3.932   2.425
  343TIP3    H2 1036   6.280   4.030   2.309
  344TIP3   OH2 1037   0.844   5.564   1.004
  344TIP3    H1 1038   0.930   5.602   1.019
  344TIP3    H2 1039   0.814   5.535   1.090
  345TIP3   OH2 1040   0.730   5.756   4.521
  345TIP3    H1 1041   0.765   5.827   4.467
  345TIP3    H2 1042   0.769   5.769   4.607
  346TIP3   OH2 1043   4.896   0.571   4.121
  346TIP3    H1 1044   4.919   0.554   4.030
  346TIP3    H2 1045   4.828   0.639   4.117
  347TIP3   OH2 1046   1.438   4.948   0.422
  347TIP3    H1 1047   1.380   4.887   0.376
  347TIP3    H2 1048   1.476   4.895   0.493
  348TIP3   OH2 1049   5.946   1.576   1.281
  348TIP3    H1 1050   5.860   1.606   1.253
  348TIP3    H2 1051   5.955   1.489   1.242
  349TIP3   OH2 1052   5.021   4.418   1.734
  349TIP3    H1 1053   4.939   4.433   1.688
  349TIP3    H2 1054   5.084   4.398   1.665
  350TIP3   OH2 1055   2.603   5.579   0.800
  350TIP3    H1 1056   2.599   5.620   0.886
  350TIP3    H2 1057   2.557   5.639   0.741
  351TIP3   OH2 1058   0.474   0.247   2.825
  351TIP3    H1 1059   0.438   0.191   2.756
  351TIP3    H2 1060   0.565   0.221   2.833
  352TIP3   OH2 1061   2.670   0.891   3.251
  352TIP3    H1 1062   2.674   0.942   3.170
  352TIP3    H2 1063   2.632   0.950   3.315
  353TIP3   OH2 1064   4.239   3.689   2.409
  353TIP3    H1 1065   4.245   3.768   2.462
  353TIP3    H2 1066   4.225   3.721   2.320
  354TIP3   OH2 1067   4.821   4.913   4.030
  354TIP3    H1 1068   4.826   4.838   4.090
  354TIP3    H2 1069   4.729   4.918   4.005
  355TIP3   OH2 1070   1.248   4.481   2.293
  355TIP3    H1 1071   1.207   4.403   2.330
  355TIP3    H2 1072   1.342   4.464   2.300
  356TIP3   OH2 1073   5.059   2.658   3.875
  356TIP3    H1 1074   4.996   2.642   3.945
  356TIP3    H2 1075   5.051   2.752   3.857
  357TIP3   OH2 1076   2.682   2.401   4.270
  357TIP3    H1 1077   2.729   2.431   4.348
  357TIP3    H2 1078   2.598   2.445   4.274
  358TIP3   OH2 1079   2.178   1.018   4.848
  358TIP3    H1 1080   2.107   0.979   4.797
  358TIP3    H2 1081   2.220   0.943   4.891
  359TIP3   OH2 1082   5.299   4.757   0.286
  359TIP3    H1 1083   5.212   4.792   0.304
  359TIP3    H2 1084   5.282   4.670   0.248
  360TIP3   OH2 1085   5.815   0.349   2.306
  360TIP3    H1 1086   5.828   0.310   2.219
  360TIP3    H2 1087   5.898   0.336   2.351
  361TIP3   OH2 1088   2.577   0.953   0.282
  361TIP3    H1 1089   2.611   0.936   0.194
  361TIP3    H2 1090   2.598   1.044   0.299
  362TIP3   OH2 1091   3.901   1.929   1.541
  362TIP3    H1 1092   3.978   1.875   1.559
  362TIP3    H2 1093   3.929   1.991   1.474
  363TIP3   OH2 1094   1.147   0.392   0.014
  363TIP3    H1 1095   1.080   0.397   0.083
  363TIP3    H2 1096   1.120   0.458  -0.050
  364TIP3   OH2 1097   1.712   1.132   2.479
  364TIP3    H1 1098   1.674   1.045   2.465
  364TIP3    H2 1099   1.639   1.193   2.464
  365TIP3   OH2 1100   6.121   0.592   4.629
  365TIP3    H1 1101   6.097   0.619   4.541
  365TIP3    H2 1102   6.137   0.673   4.676
  366TIP3   OH2 1103   1.525   0.621   0.065
  366TIP3    H1 1104   1.476   0.680   0.007
  366TIP3    H2 1105   1.597   0.590   0.011
  367TIP3   OH2 1106   0.590   1.027   3.597
  367TIP3    H1 1107   0.610   1.052   3.506
  367TIP3    H2 1108   0.563   1.109   3.639
  368TIP3   OH2 1109   2.620   4.555   2.612
  368TIP3    H1 1110   2.670   4.561   2.530
  368TIP3    H2 1111   2.530   4.541   2.584
  369TIP3   OH2 1112   0.826   4.822   0.364
  369TIP3    H1 1113   0.901   4.879   0.379
  369TIP3    H2 1114   0.764   4.845   0.433
  370TIP3   OH2 1115   6.223   3.769   4.134
  370TIP3    H1 1116   6.254   3.814   4.212
  370TIP3    H2 1117   6.284   3.795   4.065
  371TIP3   OH2 1118   1.427   0.166   3.066
  371TIP3    H1 1119   1.341   0.125   3.054
  371TIP3    H2 1120   1.488   0.092   3.075
  372TIP3   OH2 1121   4.224   2.696   2.778
  372TIP3    H1 1122   4.262   2.727   2.860
  372TIP3    H2 1123   4.130   2.687   2.797
  373TIP3   OH2 1124   4.051   1.793   0.741
  373TIP3    H1 1125   4.072   1.772   0.650
  373TIP3    H2 1126   4.050   1.708   0.786
  374TIP3   OH2 1127   3.784   2.207   1.591
  374TIP3    H1 1128   3.830   2.124   1.579
  374TIP3    H2 1129   3.700   2.182   1.628
  375TIP3   OH2 1130   1.561   2.801   4.924
  375TIP3    H1 1131   1.536   2.739   4.993
  375TIP3    H2 1132   1.650   2.829   4.947
  376TIP3   OH2 1133   5.578   3.319   4.773
  376TIP3    H1 1134   5.620   3.294   4.691
  376TIP3    H2 1135   5.608   3.254   4.836
  377TIP3   OH2 1136   3.236   0.315   0.079
  377TIP3    H1 1137   3.171   0.278   0.139
  377TIP3    H2 1138   3.238   0.253   0.006
  378TIP3   OH2 1139   0.485   0.617   3.886
  378TIP3    H1 1140   0.459   0.586   3.799
  378TIP3    H2 1141   0.580   0.618   3.883
  379TIP3   OH2 1142   5.764   0.375   1.574
  379TIP3    H1 1143   5.846   0.348   1.616
  379TIP3    H2 1144   5.702   0.306   1.594
  380TIP3   OH2 1145   2.964   4.949   4.507
  380TIP3    H1 1146   2.923   4.863   4.504
  380TIP3    H2 1147   2.908   5.001   4.564
  381TIP3   OH2 1148   2.768   2.012   5.053
  381TIP3    H1 1149   2.690   2.023   5.106
  381TIP3    H2 1150   2.757   1.927   5.011
  382TIP3   OH2 1151   1.464   1.084   2.710
  382TIP3    H1 1152   1.475   1.080   2.615
  382TIP3    H2 1153   1.495   0.999   2.741
  383TIP3   OH2 1154   2.810   0.542   5.045
  383TIP3    H1 1155   2.825   0.458   5.000
  383TIP3    H2 1156   2.891   0.558   5.093
  384TIP3   OH2 1157   6.015   1.618   2.688
  384TIP3    H1 1158   5.995   1.548   2.626
  384TIP3    H2 1159   6.040   1.692   2.632
  385TIP3   OH2 1160   1.440   2.191   1.701
  385TIP3    H1 1161   1.361   2.137   1.702
  385TIP3    H2 1162   1.424   2.255   1.631
  386TIP3   OH2 1163   4.268   1.793   1.221
  386TIP3    H1 1164   4.239   1.703   1.206
  386TIP3    H2 1165   4.201   1.847   1.179
  387TIP3   OH2 1166   3.488   4.058   4.018
  387TIP3    H1 1167   3.508   4.092   4.105
  387TIP3    H2 1168   3.507   3.964   4.023
  388TIP3   OH2 1169   4.454   4.668   3.432
  388TIP3    H1 1170   4.438   4.698   3.522
  388TIP3    H2 1171   4.518   4.729   3.398
  389TIP3   OH2 1172   5.909   5.083   1.558
  389TIP3    H1 1173   5.914   4.989   1.542
  389TIP3    H2 1174   5.885   5.090   1.650
  390TIP3   OH2 1175   6.142   0.063   3.806
  390TIP3    H1 1176   6.152  -0.031   3.822
  390TIP3    H2 1177   6.077   0.092   3.870
  391TIP3   OH2 1178   3.012   5.801   2.547
  391TIP3    H1 1179   3.033   5.742   2.619
  391TIP3    H2 1180   3.088   5.794   2.488
  392TIP3   OH2 1181   2.769   1.916   2.232
  392TIP3    H1 1182   2.765   1.872   2.317
  392TIP3    H2 1183   2.678   1.938   2.212
  393TIP3   OH2 1184   1.861   5.673   4.890
  393TIP3    H1 1185   1.872   5.721   4.807
  393TIP3    H2 1186   1.844   5.583   4.863
  394TIP3   OH2 1187   6.061   2.310   2.735
  394TIP3    H1 1188   6.109   2.289   2.655
  394TIP3    H2 1189   5.991   2.368   2.707
  395TIP3   OH2 1190   4.765   2.203   4.133
  395TIP3    H1 1191   4.813   2.138   4.083
  395TIP3    H2 1192   4.680   2.162   4.150
  396TIP3   OH2 1193   1.006   3.411   1.891
  396TIP3    H1 1194   1.095   3.444   1.882
  396TIP3    H2 1195   0.973   3.405   1.801
  397TIP3   OH2 1196   3.531   5.196   3.575
  397TIP3    H1 1197   3.584   5.158   3.504
  397TIP3    H2 1198   3.441   5.180   3.548
  398TIP3   OH2 1199   0.046   4.351   2.644
  398TIP3    H1 1200   0.116   4.316   2.589
  398TIP3    H2 1201   0.016   4.430   2.599
  399TIP3   OH2 1202   2.902   2.261   3.026
  399TIP3    H1 1203   2.838   2.329   3.049
  399TIP3    H2 1204   2.856   2.179   3.041
  400TIP3   OH2 1205   3.313   3.234   3.678
  400TIP3    H1 1206   3.283   3.153   3.636
  400TIP3    H2 1207   3.237   3.265   3.728
  401TIP3   OH2 1208   3.237   2.502   1.157
  401TIP3    H1 1209   3.326   2.526   1.184
  401TIP3    H2 1210   3.193   2.479   1.239
  402TIP3   OH2 1211   4.310   0.307   0.566
  402TIP3    H1 1212   4.286   0.281   0.477
  402TIP3    H2 1213   4.244   0.265   0.622
  403TIP3   OH2 1214   3.191   1.627   2.776
  403TIP3    H1 1215   3.230   1.641   2.690
  403TIP3    H2 1216   3.238   1.688   2.834
  404TIP3   OH2 1217   5.785   1.243   3.538
  404TIP3    H1 1218   5.707   1.194   3.510
  404TIP3    H2 1219   5.750   1.315   3.590
  405TIP3   OH2 1220   3.763   0.478   1.329
  405TIP3    H1 1221   3.703   0.425   1.382
  405TIP3    H2 1222   3.758   0.439   1.241
  406TIP3   OH2 1223   0.067   0.124   3.342
  406TIP3    H1 1224   0.101   0.196   3.396
  406TIP3    H2 1225   0.072   0.158   3.253
  407TIP3   OH2 1226   5.489   4.294   5.048
  407TIP3    H1 1227   5.498   4.230   4.977
  407TIP3    H2 1228   5.570   4.345   5.045
  408TIP3   OH2 1229   1.610   1.671   2.796
  408TIP3    H1 1230   1.540   1.606   2.796
  408TIP3    H2 1231   1.564   1.755   2.794
  409TIP3   OH2 1232   2.028   3.506   0.825
  409TIP3    H1 1233   1.938   3.481   0.843
  409TIP3    H2 1234   2.079   3.426   0.838
  410TIP3   OH2 1235   2.381   3.452   3.650
  410TIP3    H1 1236   2.312   3.392   3.622
  410TIP3    H2 1237   2.449   3.394   3.686
  411TIP3   OH2 1238   5.289   0.471   4.236
  411TIP3    H1 1239   5.220   0.480   4.302
  411TIP3    H2 1240   5.256   0.404   4.176
  412TIP3   OH2 1241   0.671   1.862   2.577
  412TIP3    H1 1242   0.734   1.810   2.628
  412TIP3    H2 1243   0.721   1.890   2.501
  413TIP3   OH2 1244   4.886   5.000   3.226
  413TIP3    H1 1245   4.900   5.070   3.162
  413TIP3    H2 1246   4.959   5.008   3.286
  414TIP3   OH2 1247   1.249   1.367   3.361
  414TIP3    H1 1248   1.231   1.322   3.278
  414TIP3    H2 1249   1.171   1.420   3.377
  415TIP3   OH2 1250   0.289   3.103   3.720
  415TIP3    H1 1251   0.215   3.112   3.780
  415TIP3    H2 1252   0.366   3.118   3.775
  416TIP3   OH2 1253   6.064   1.816   4.272
  416TIP3    H1 1254   6.053   1.739   4.215
  416TIP3    H2 1255   6.156   1.812   4.299
  417TIP3   OH2 1256   1.271   5.295   4.765
  417TIP3    H1 1257   1.227   5.314   4.847
  417TIP3    H2 1258   1.257   5.202   4.750
  418TIP3   OH2 1259   2.300   0.989   0.244
  418TIP3    H1 1260   2.393   0.971   0.259
  418TIP3    H2 1261   2.281   0.948   0.160
  419TIP3   OH2 1262   3.857   2.240   4.042
  419TIP3    H1 1263   3.897   2.218   3.957
  419TIP3    H2 1264   3.916   2.306   4.079
  420TIP3   OH2 1265   2.338   3.840   1.699
  420TIP3    H1 1266   2.363   3.849   1.607
  420TIP3    H2 1267   2.404   3.890   1.747
  421TIP3   OH2 1268   4.556   1.235   4.130
  421TIP3    H1 1269   4.564   1.189   4.046
  421TIP3    H2 1270   4.552   1.165   4.195
  422TIP3   OH2 1271   2.034   2.353   1.099
  422TIP3    H1 1272   2.017   2.266   1.136
  422TIP3    H2 1273   2.105   2.388   1.153
  423TIP3   OH2 1274   5.862   1.705   0.549
  423TIP3    H1 1275   5.940   1.696   0.605
  423TIP3    H2 1276   5.795   1.654   0.594
  424TIP3   OH2 1277   3.627   3.544   2.128
  424TIP3    H1 1278   3.580   3.609   2.180
  424TIP3    H2 1279   3.707   3.527   2.177
  425TIP3   OH2 1280   3.291   4.861   0.167
  425TIP3    H1 1281   3.374   4.815   0.178
  425TIP3    H2 1282   3.235   4.800   0.119
  426TIP3   OH2 1283   5.499   1.425   5.090
  426TIP3    H1 1284   5.414   1.441   5.049
  426TIP3    H2 1285   5.534   1.513   5.106
  427TIP3   OH2 1286  -0.031   3.742   1.725
  427TIP3    H1 1287   0.064   3.734   1.718
  427TIP3    H2 1288  -0.047   3.835   1.738
  428TIP3   OH2 1289   3.963   4.558   4.162
  428TIP3    H1 1290   3.950   4.644   4.202
  428TIP3    H2 1291   3.890   4.505   4.193
  429TIP3   OH2 1292   0.227   3.996   3.765
  429TIP3    H1 1293   0.221   4.029   3.675
  429TIP3    H2 1294   0.272   3.912   3.756
  430TIP3   OH2 1295   4.224   4.443   1.624
  430TIP3    H1 1296   4.261   4.521   1.584
  430TIP3    H2 1297   4.156   4.415   1.564
  431TIP3   OH2 1298   5.020   1.068   4.789
  431TIP3    H1 1299   4.970   1.138   4.747
  431TIP3    H2 1300   5.058   1.019   4.716
  432TIP3   OH2 1301   4.367   5.929   5.119
  432TIP3    H1 1302   4.367   6.003   5.180
  432TIP3    H2 1303   4.445   5.878   5.142
  433TIP3   OH2 1304   1.723   1.841   1.307
  433TIP3    H1 1305   1.630   1.832   1.329
  433TIP3    H2 1306   1.723   1.889   1.224
  434TIP3   OH2 1307   4.703   4.184   4.967
  434TIP3    H1 1308   4.705   4.118   4.898
  434TIP3    H2 1309   4.658   4.142   5.040
  435TIP3   OH2 1310   0.956   4.912   2.459
  435TIP3    H1 1311   1.042   4.912   2.416
  435TIP3    H2 1312   0.975   4.941   2.549
  436TIP3   OH2 1313   4.204   4.222   4.772
  436TIP3    H1 1314   4.247   4.253   4.852
  436TIP3    H2 1315   4.123   4.273   4.766
  437TIP3   OH2 1316   1.851   2.134   2.367
  437TIP3    H1 1317   1.892   2.090   2.441
  437TIP3    H2 1318   1.914   2.124   2.296
  438TIP3   OH2 1319   5.484   5.118   2.318
  438TIP3    H1 1320   5.452   5.029   2.304
  438TIP3    H2 1321   5.479   5.160   2.232
  439TIP3   OH2 1322   2.285   4.561   4.332
  439TIP3    H1 1323   2.218   4.589   4.269
  439TIP3    H2 1324   2.249   4.481   4.371
  440TIP3   OH2 1325   2.565   5.246   0.288
  440TIP3    H1 1326   2.493   5.199   0.246
  440TIP3    H2 1327   2.578   5.323   0.233
  441TIP3   OH2 1328   0.157   0.308   2.415
  441TIP3    H1 1329   0.073   0.275   2.382
  441TIP3    H2 1330   0.153   0.293   2.510
  442TIP3   OH2 1331   4.352   3.080   4.338
  442TIP3    H1 1332   4.260   3.067   4.359
  442TIP3    H2 1333   4.351   3.118   4.250
  443TIP3   OH2 1334   5.211   3.582   4.102
  443TIP3    H1 1335   5.134   3.538   4.065
  443TIP3    H2 1336   5.285   3.550   4.050
  444TIP3   OH2 1337   3.123   2.381   1.380
  444TIP3    H1 1338   3.062   2.312   1.357
  444TIP3    H2 1339   3.186   2.339   1.439
  445TIP3   OH2 1340   0.324   2.889   1.220
  445TIP3    H1 1341   0.400   2.945   1.208
  445TIP3    H2 1342   0.288   2.876   1.132
  446TIP3   OH2 1343   3.979   0.105   0.388
  446TIP3    H1 1344   3.985   0.148   0.473
  446TIP3    H2 1345   4.049   0.144   0.336
  447TIP3   OH2 1346   0.844   5.728   2.378
  447TIP3    H1 1347   0.932   5.708   2.410
  447TIP3    H2 1348   0.859   5.779   2.298
  448TIP3   OH2 1349   0.290   3.799   4.658
  448TIP3    H1 1350   0.211   3.825   4.609
  448TIP3    H2 1351   0.359   3.857   4.625
  449TIP3   OH2 1352   4.116   0.873   4.941
  449TIP3    H1 1353   4.125   0.814   4.866
  449TIP3    H2 1354   4.107   0.960   4.903
  450TIP3   OH2 1355   0.371   2.576   4.296
  450TIP3    H1 1356   0.330   2.518   4.232
  450TIP3    H2 1357   0.384   2.520   4.373
  451TIP3   OH2 1358   2.524   2.243   1.342
  451TIP3    H1 1359   2.450   2.223   1.286
  451TIP3    H2 1360   2.582   2.167   1.333
  452TIP3   OH2 1361   0.933   3.184   1.561
  452TIP3    H1 1362   0.843   3.168   1.535
  452TIP3    H2 1363   0.978   3.208   1.480
  453TIP3   OH2 1364   0.338   2.725   0.664
  453TIP3    H1 1365   0.420   2.697   0.706
  453TIP3    H2 1366   0.353   2.817   0.642
  454TIP3   OH2 1367   1.008   5.060   3.284
  454TIP3    H1 1368   1.022   5.050   3.190
  454TIP3    H2 1369   0.913   5.048   3.295
  455TIP3   OH2 1370   4.360   6.008   4.629
  455TIP3    H1 1371   4.381   6.045   4.543
  455TIP3    H2 1372   4.385   5.916   4.622
  456TIP3   OH2 1373   2.800   4.109   2.586
  456TIP3    H1 1374   2.892   4.133   2.578
  456TIP3    H2 1375   2.796   4.019   2.555
  457TIP3   OH2 1376   4.742   4.984   0.497
  457TIP3    H1 1377   4.710   4.971   0.586
  457TIP3    H2 1378   4.822   5.035   0.508
  458TIP3   OH2 1379   0.461   5.523   1.885
  458TIP3    H1 1380   0.514   5.475   1.949
  458TIP3    H2 1381   0.423   5.455   1.829
  459TIP3   OH2 1382   2.023   3.886   4.973
  459TIP3    H1 1383   2.056   3.971   4.944
  459TIP3    H2 1384   2.049   3.826   4.903
  460TIP3   OH2 1385   2.707   1.317   2.902
  460TIP3    H1 1386   2.797   1.325   2.934
  460TIP3    H2 1387   2.699   1.386   2.836
  461TIP3   OH2 1388   5.178   5.599   4.722
  461TIP3    H1 1389   5.113   5.529   4.723
  461TIP3    H2 1390   5.181   5.628   4.631
  462TIP3   OH2 1391   3.772   2.797   0.211
  462TIP3    H1 1392   3.800   2.850   0.285
  462TIP3    H2 1393   3.853   2.782   0.161
  463TIP3   OH2 1394   4.501   1.591   4.947
  463TIP3    H1 1395   4.414   1.631   4.944
  463TIP3    H2 1396   4.494   1.526   5.017
  464TIP3   OH2 1397   3.320   3.313   1.088
  464TIP3    H1 1398   3.383   3.384   1.079
  464TIP3    H2 1399   3.312   3.299   1.183
  465TIP3   OH2 1400   6.175   1.592   0.026
  465TIP3    H1 1401   6.216   1.611  -0.058
  465TIP3    H2 1402   6.105   1.656   0.034
  466TIP3   OH2 1403   3.496   4.098   4.548
  466TIP3    H1 1404   3.451   4.157   4.609
  466TIP3    H2 1405   3.585   4.092   4.580
  467TIP3   OH2 1406   3.382   3.213   0.376
  467TIP3    H1 1407   3.310   3.154   0.353
  467TIP3    H2 1408   3.392   3.203   0.470
  468TIP3   OH2 1409   6.091   4.468   4.479
  468TIP3    H1 1410   6.183   4.478   4.503
  468TIP3    H2 1411   6.091   4.469   4.383
  469TIP3   OH2 1412   1.390   5.816   2.343
  469TIP3    H1 1413   1.352   5.813   2.255
  469TIP3    H2 1414   1.484   5.825   2.329
  470TIP3   OH2 1415   3.570   4.630   2.054
  470TIP3    H1 1416   3.562   4.646   1.960
  470TIP3    H2 1417   3.591   4.716   2.091
  471TIP3   OH2 1418   4.430   3.932   2.290
  471TIP3    H1 1419   4.356   3.883   2.255
  471TIP3    H2 1420   4.401   4.023   2.291
  472TIP3   OH2 1421   5.033   4.632   2.257
  472TIP3    H1 1422   5.070   4.596   2.176
  472TIP3    H2 1423   4.978   4.705   2.228
  473TIP3   OH2 1424   2.946   4.959   0.185
  473TIP3    H1 1425   3.024   4.945   0.238
  473TIP3    H2 1426   2.880   4.989   0.247
  474TIP3   OH2 1427   6.020   3.854   3.990
  474TIP3    H1 1428   6.000   3.770   3.949
  474TIP3    H2 1429   6.100   3.838   4.040
  475TIP3   OH2 1430   2.187   0.853   2.262
  475TIP3    H1 1431   2.217   0.902   2.338
  475TIP3    H2 1432   2.263   0.852   2.203
  476TIP3   OH2 1433   1.232   3.905   2.774
  476TIP3    H1 1434   1.316   3.933   2.810
  476TIP3    H2 1435   1.246   3.902   2.679
  477TIP3   OH2 1436   2.906   0.391   3.740
  477TIP3    H1 1437   2.949   0.356   3.818
  477TIP3    H2 1438   2.974   0.387   3.672
  478TIP3   OH2 1439   1.972   1.427   0.666
  478TIP3    H1 1440   2.005   1.363   0.602
  478TIP3    H2 1441   1.973   1.380   0.749
  479TIP3   OH2 1442   2.377   4.502   3.700
  479TIP3    H1 1443   2.370   4.597   3.692
  479TIP3    H2 1444   2.393   4.471   3.611
  480TIP3   OH2 1445   2.656   3.692   0.302
  480TIP3    H1 1446   2.740   3.650   0.283
  480TIP3    H2 1447   2.602   3.674   0.225
  481TIP3   OH2 1448   2.878   3.233   3.675
  481TIP3    H1 1449   2.795   3.274   3.702
  481TIP3    H2 1450   2.866   3.214   3.582
  482TIP3   OH2 1451   1.435   0.106   2.329
  482TIP3    H1 1452   1.449   0.196   2.359
  482TIP3    H2 1453   1.343   0.089   2.346
  483TIP3   OH2 1454   5.780   2.974   0.624
  483TIP3    H1 1455   5.694   2.935   0.633
  483TIP3    H2 1456   5.783   3.004   0.533
  484TIP3   OH2 1457   5.564   2.482   2.977
  484TIP3    H1 1458   5.474   2.467   2.948
  484TIP3    H2 1459   5.616   2.477   2.896
  485TIP3   OH2 1460   2.062   2.467   1.460
  485TIP3    H1 1461   2.123   2.466   1.387
  485TIP3    H2 1462   2.030   2.557   1.464
  486TIP3   OH2 1463   0.799   1.502   3.249
  486TIP3    H1 1464   0.741   1.489   3.323
  486TIP3    H2 1465   0.779   1.430   3.189
  487TIP3   OH2 1466   1.550   1.208   1.227
  487TIP3    H1 1467   1.582   1.153   1.299
  487TIP3    H2 1468   1.629   1.228   1.177
  488TIP3   OH2 1469   0.725   0.341   4.167
  488TIP3    H1 1470   0.789   0.411   4.160
  488TIP3    H2 1471   0.769   0.263   4.134
  489TIP3   OH2 1472   5.875   0.641   4.852
  489TIP3    H1 1473   5.892   0.675   4.940
  489TIP3    H2 1474   5.826   0.711   4.808
  490TIP3   OH2 1475   1.046   5.310   0.950
  490TIP3    H1 1476   1.039   5.344   1.040
  490TIP3    H2 1477   0.956   5.286   0.927
  491TIP3   OH2 1478   6.174   3.864   2.970
  491TIP3    H1 1479   6.114   3.909   2.911
  491TIP3    H2 1480   6.196   3.929   3.037
  492TIP3   OH2 1481   2.000   0.651   1.351
  492TIP3    H1 1482   1.941   0.647   1.276
  492TIP3    H2 1483   1.989   0.567   1.396
  493TIP3   OH2 1484   1.934   0.967   2.213
  493TIP3    H1 1485   1.877   0.891   2.223
  493TIP3    H2 1486   2.021   0.934   2.231
  494TIP3   OH2 1487   0.042   4.472   2.072
  494TIP3    H1 1488  -0.036   4.521   2.099
  494TIP3    H2 1489   0.018   4.435   1.987
  495TIP3   OH2 1490   0.708   1.058   0.060
  495TIP3    H1 1491   0.727   1.026  -0.029
  495TIP3    H2 1492   0.795   1.072   0.098
  496TIP3   OH2 1493   3.382   4.712   0.896
  496TIP3    H1 1494   3.401   4.656   0.821
  496TIP3    H2 1495   3.421   4.797   0.872
  497TIP3   OH2 1496   1.906   1.209   2.951
  497TIP3    H1 1497   1.876   1.198   2.861
  497TIP3    H2 1498   2.001   1.213   2.945
  498TIP3   OH2 1499   0.518   3.222   4.251
  498TIP3    H1 1500   0.607   3.254   4.233
  498TIP3    H2 1501   0.462   3.299   4.240
  499TIP3   OH2 1502   1.053   0.361   0.292
  499TIP3    H1 1503   1.140   0.400   0.293
  499TIP3    H2 1504   1.039   0.331   0.382
  500TIP3   OH2 1505   2.942   4.973   0.887
  500TIP3    H1 1506   2.988   5.045   0.930
  500TIP3    H2 1507   2.850   5.001   0.886
  501TIP3   OH2 1508   1.247   0.580   0.917
  501TIP3    H1 1509   1.249   0.549   0.827
  501TIP3    H2 1510   1.338   0.582   0.944
  502TIP3   OH2 1511   1.528   5.540   4.187
  502TIP3    H1 1512   1.574   5.504   4.264
  502TIP3    H2 1513   1.568   5.626   4.174
  503TIP3   OH2 1514   3.853   4.644   1.132
  503TIP3    H1 1515   3.793   4.621   1.203
  503TIP3    H2 1516   3.918   4.701   1.172
  504TIP3   OH2 1517   3.682   0.349   1.105
  504TIP3    H1 1518   3.685   0.254   1.121
  504TIP3    H2 1519   3.638   0.357   1.020
  505TIP3   OH2 1520   0.761   3.817   1.068
  505TIP3    H1 1521   0.731   3.770   1.145
  505TIP3    H2 1522   0.853   3.839   1.087
  506TIP3   OH2 1523   1.249   3.307   1.424
  506TIP3    H1 1524   1.317   3.273   1.366
  506TIP3    H2 1525   1.168   3.274   1.387
  507TIP3   OH2 1526   2.563   3.164   1.644
  507TIP3    H1 1527   2.603   3.127   1.722
  507TIP3    H2 1528   2.488   3.107   1.625
  508TIP3   OH2 1529   3.065   1.318   0.204
  508TIP3    H1 1530   3.023   1.382   0.147
  508TIP3    H2 1531   3.010   1.239   0.196
  509TIP3   OH2 1532   6.317   2.235   2.890
  509TIP3    H1 1533   6.229   2.229   2.854
  509TIP3    H2 1534   6.370   2.178   2.836
  510TIP3   OH2 1535   3.504   5.539   3.526
  510TIP3    H1 1536   3.552   5.616   3.496
  510TIP3    H2 1537   3.567   5.491   3.579
  511TIP3   OH2 1538   0.931   2.746   2.743
  511TIP3    H1 1539   0.932   2.655   2.714
  511TIP3    H2 1540   0.839   2.772   2.739
  512TIP3   OH2 1541   1.381   0.378   0.659
  512TIP3    H1 1542   1.411   0.320   0.588
  512TIP3    H2 1543   1.309   0.428   0.620
  513TIP3   OH2 1544   3.629   0.893   0.483
  513TIP3    H1 1545   3.639   0.811   0.435
  513TIP3    H2 1546   3.714   0.936   0.475
  514TIP3   OH2 1547   4.878   2.436   3.418
  514TIP3    H1 1548   4.969   2.431   3.389
  514TIP3    H2 1549   4.873   2.516   3.470
  515TIP3   OH2 1550   4.043   4.877   0.513
  515TIP3    H1 1551   4.011   4.949   0.460
  515TIP3    H2 1552   3.977   4.808   0.502
  516TIP3   OH2 1553   3.965   2.027   4.888
  516TIP3    H1 1554   4.019   1.985   4.821
  516TIP3    H2 1555   3.906   2.084   4.840
  517TIP3   OH2 1556   3.713   1.834   1.242
  517TIP3    H1 1557   3.623   1.858   1.267
  517TIP3    H2 1558   3.749   1.792   1.320
  518TIP3   OH2 1559   2.185   3.026   3.906
  518TIP3    H1 1560   2.187   2.968   3.830
  518TIP3    H2 1561   2.271   3.067   3.907
  519TIP3   OH2 1562   0.272   5.083   0.870
  519TIP3    H1 1563   0.237   5.166   0.835
  519TIP3    H2 1564   0.355   5.107   0.910
  520TIP3   OH2 1565   5.503   2.951   1.122
  520TIP3    H1 1566   5.448   2.915   1.052
  520TIP3    H2 1567   5.580   2.984   1.076
  521TIP3   OH2 1568   0.122   4.772   4.877
  521TIP3    H1 1569   0.027   4.764   4.886
  521TIP3    H2 1570   0.158   4.718   4.947
  522TIP3   OH2 1571   5.310   3.978   3.105
  522TIP3    H1 1572   5.403   3.958   3.107
  522TIP3    H2 1573   5.270   3.912   3.162
  523TIP3   OH2 1574   3.114   5.820   0.774
  523TIP3    H1 1575   3.112   5.879   0.698
  523TIP3    H2 1576   3.021   5.803   0.793
  524TIP3   OH2 1577   6.118   4.074   0.404
  524TIP3    H1 1578   6.196   4.043   0.359
  524TIP3    H2 1579   6.150   4.140   0.465
  525TIP3   OH2 1580   3.875   3.425   1.742
  525TIP3    H1 1581   3.782   3.424   1.764
  525TIP3    H2 1582   3.918   3.378   1.814
  526TIP3   OH2 1583   0.302   1.444   0.035
  526TIP3    H1 1584   0.345   1.442   0.121
  526TIP3    H2 1585   0.224   1.391   0.046
  527TIP3   OH2 1586   4.532   5.812   4.344
  527TIP3    H1 1587   4.579   5.779   4.267
  527TIP3    H2 1588   4.518   5.734   4.398
  528TIP3   OH2 1589   1.517   3.464   1.466
  528TIP3    H1 1590   1.537   3.515   1.544
  528TIP3    H2 1591   1.489   3.379   1.501
  529TIP3   OH2 1592   6.054   5.679   3.058
  529TIP3    H1 1593   6.123   5.683   2.992
  529TIP3    H2 1594   6.015   5.592   3.045
  530TIP3   OH2 1595   4.768   4.383   3.094
  530TIP3    H1 1596   4.697   4.414   3.149
  530TIP3    H2 1597   4.780   4.451   3.028
  531TIP3   OH2 1598   0.645   0.726   1.550
  531TIP3    H1 1599   0.735   0.694   1.555
  531TIP3    H2 1600   0.653   0.821   1.553
  532TIP3   OH2 1601   0.564   2.480   4.866
  532TIP3    H1 1602   0.545   2.417   4.936
  532TIP3    H2 1603   0.654   2.508   4.882
  533TIP3   OH2 1604   1.385   4.184   2.345
  533TIP3    H1 1605   1.337   4.188   2.428
  533TIP3    H2 1606   1.464   4.235   2.359
  534TIP3   OH2 1607   5.187   1.511   2.980
  534TIP3    H1 1608   5.175   1.461   3.062
  534TIP3    H2 1609   5.279   1.498   2.958
  535TIP3   OH2 1610   0.696   1.012   4.529
  535TIP3    H1 1611   0.649   1.086   4.566
  535TIP3    H2 1612   0.628   0.954   4.494
  536TIP3   OH2 1613   2.766   4.878   4.869
  536TIP3    H1 1614   2.811   4.796   4.851
  536TIP3    H2 1615   2.692   4.853   4.924
  537TIP3   OH2 1616   0.094   4.968   4.673
  537TIP3    H1 1617   0.108   4.888   4.723
  537TIP3    H2 1618   0.068   4.939   4.586
  538TIP3   OH2 1619   1.401   0.657   3.658
  538TIP3    H1 1620   1.351   0.603   3.597
  538TIP3    H2 1621   1.378   0.747   3.634
  539TIP3   OH2 1622   3.741   0.852   2.686
  539TIP3    H1 1623   3.764   0.772   2.733
  539TIP3    H2 1624   3.756   0.922   2.749
  540TIP3   OH2 1625   0.689   4.457   4.806
  540TIP3    H1 1626   0.603   4.499   4.804
  540TIP3    H2 1627   0.672   4.367   4.780
  541TIP3   OH2 1628   0.394   0.418   3.647
  541TIP3    H1 1629   0.301   0.408   3.625
  541TIP3    H2 1630   0.438   0.426   3.563
  542TIP3   OH2 1631   0.124   2.489   2.224
  542TIP3    H1 1632   0.090   2.537   2.148
  542TIP3    H2 1633   0.174   2.553   2.273
  543TIP3   OH2 1634   2.588   2.761   1.753
  543TIP3    H1 1635   2.495   2.741   1.741
  543TIP3    H2 1636   2.610   2.822   1.683
  544TIP3   OH2 1637   5.399   4.450   1.734
  544TIP3    H1 1638   5.452   4.384   1.689
  544TIP3    H2 1639   5.339   4.482   1.667
  545TIP3   OH2 1640   3.956   4.236   0.506
  545TIP3    H1 1641   3.962   4.295   0.582
  545TIP3    H2 1642   3.961   4.294   0.431
  546TIP3   OH2 1643   0.068   4.797   1.208
  546TIP3    H1 1644   0.132   4.779   1.139
  546TIP3    H2 1645   0.121   4.824   1.283
  547TIP3   OH2 1646   5.450   0.272   4.023
  547TIP3    H1 1647   5.442   0.176   4.024
  547TIP3    H2 1648   5.501   0.292   4.102
  548TIP3   OH2 1649   4.697   5.195   0.316
  548TIP3    H1 1650   4.607   5.210   0.345
  548TIP3    H2 1651   4.711   5.101   0.327
  549TIP3   OH2 1652   5.274   4.570   3.594
  549TIP3    H1 1653   5.264   4.542   3.685
  549TIP3    H2 1654   5.345   4.634   3.597
  550TIP3   OH2 1655   5.929   0.048   2.257
  550TIP3    H1 1656   5.839   0.026   2.234
  550TIP3    H2 1657   5.976   0.046   2.174
  551TIP3   OH2 1658   4.706   3.700   0.223
  551TIP3    H1 1659   4.670   3.615   0.247
  551TIP3    H2 1660   4.801   3.688   0.229
  552TIP3   OH2 1661   3.481   2.559   0.500
  552TIP3    H1 1662   3.557   2.587   0.449
  552TIP3    H2 1663   3.518   2.516   0.577
  553TIP3   OH2 1664   5.555   5.718   1.630
  553TIP3    H1 1665   5.631   5.666   1.656
  553TIP3    H2 1666   5.489   5.699   1.697
  554TIP3   OH2 1667   5.569   0.459   4.270
  554TIP3    H1 1668   5.587   0.546   4.305
  554TIP3    H2 1669   5.474   0.451   4.271
  555TIP3   OH2 1670   3.548   1.194   2.164
  555TIP3    H1 1671   3.563   1.276   2.116
  555TIP3    H2 1672   3.615   1.134   2.131
  556TIP3   OH2 1673   0.635   2.665   0.682
  556TIP3    H1 1674   0.716   2.705   0.715
  556TIP3    H2 1675   0.639   2.574   0.713
  557TIP3   OH2 1676   5.860   2.895   1.368
  557TIP3    H1 1677   5.939   2.849   1.395
  557TIP3    H2 1678   5.790   2.855   1.419
  558TIP3   OH2 1679   5.335   3.742   4.814
  558TIP3    H1 1680   5.247   3.716   4.787
  558TIP3    H2 1681   5.361   3.675   4.877
  559TIP3   OH2 1682   3.167   1.246   2.225
  559TIP3    H1 1683   3.207   1.299   2.293
  559TIP3    H2 1684   3.181   1.296   2.144
  560TIP3   OH2 1685   4.638   2.021   3.877
  560TIP3    H1 1686   4.626   1.964   3.800
  560TIP3    H2 1687   4.701   1.974   3.932
  561TIP3   OH2 1688   5.768   4.863   2.074
  561TIP3    H1 1689   5.830   4.800   2.036
  561TIP3    H2 1690   5.707   4.808   2.123
  562TIP3   OH2 1691   1.605   5.856   5.063
  562TIP3    H1 1692   1.575   5.848   5.153
  562TIP3    H2 1693   1.697   5.832   5.065
  563TIP3   OH2 1694   0.918   0.898   3.269
  563TIP3    H1 1695   0.978   0.951   3.320
  563TIP3    H2 1696   0.960   0.890   3.183
  564TIP3   OH2 1697   0.569   0.490   1.715
  564TIP3    H1 1698   0.598   0.543   1.642
  564TIP3    H2 1699   0.509   0.547   1.764
  565TIP3   OH2 1700   2.224   2.297   1.751
  565TIP3    H1 1701   2.304   2.303   1.698
  565TIP3    H2 1702   2.153   2.291   1.687
  566TIP3   OH2 1703   0.968   3.774   4.768
  566TIP3    H1 1704   0.945   3.723   4.845
  566TIP3    H2 1705   0.897   3.838   4.760
  567TIP3   OH2 1706   4.166   5.281   2.855
  567TIP3    H1 1707   4.115   5.204   2.880
  567TIP3    H2 1708   4.224   5.250   2.786
  568TIP3   OH2 1709   5.405   4.164   0.631
  568TIP3    H1 1710   5.323   4.160   0.582
  568TIP3    H2 1711   5.432   4.256   0.625
  569TIP3   OH2 1712   0.486   5.257   2.895
  569TIP3    H1 1713   0.478   5.219   2.808
  569TIP3    H2 1714   0.415   5.321   2.900
  570TIP3   OH2 1715   2.297   0.731   3.389
  570TIP3    H1 1716   2.222   0.752   3.332
  570TIP3    H2 1717   2.318   0.640   3.367
  571TIP3   OH2 1718   4.171   5.083   3.868
  571TIP3    H1 1719   4.158   4.991   3.893
  571TIP3    H2 1720   4.188   5.128   3.951
  572TIP3   OH2 1721   5.210   4.623   1.037
  572TIP3    H1 1722   5.212   4.705   0.988
  572TIP3    H2 1723   5.124   4.586   1.019
  573TIP3   OH2 1724   2.536   2.672   3.083
  573TIP3    H1 1725   2.571   2.757   3.057
  573TIP3    H2 1726   2.444   2.690   3.105
  574TIP3   OH2 1727   2.586   0.254   2.872
  574TIP3    H1 1728   2.603   0.218   2.785
  574TIP3    H2 1729   2.664   0.306   2.892
  575TIP3   OH2 1730   6.139   4.157   1.453
  575TIP3    H1 1731   6.059   4.108   1.472
  575TIP3    H2 1732   6.134   4.177   1.360
  576TIP3   OH2 1733   4.948   4.490   1.454
  576TIP3    H1 1734   5.010   4.561   1.437
  576TIP3    H2 1735   4.862   4.533   1.456
  577TIP3   OH2 1736   0.558   4.133   1.559
  577TIP3    H1 1737   0.633   4.155   1.504
  577TIP3    H2 1738   0.585   4.053   1.604
  578TIP3   OH2 1739   5.287   0.204   4.373
  578TIP3    H1 1740   5.309   0.126   4.423
  578TIP3    H2 1741   5.259   0.268   4.439
  579TIP3   OH2 1742   1.470   2.496   2.786
  579TIP3    H1 1743   1.523   2.450   2.722
  579TIP3    H2 1744   1.435   2.427   2.843
  580TIP3   OH2 1745   5.264   5.440   2.505
  580TIP3    H1 1746   5.173   5.452   2.533
  580TIP3    H2 1747   5.258   5.408   2.415
  581TIP3   OH2 1748   3.659   0.348   0.569
  581TIP3    H1 1749   3.573   0.306   0.573
  581TIP3    H2 1750   3.660   0.393   0.485
  582TIP3   OH2 1751   5.650   4.184   2.784
  582TIP3    H1 1752   5.706   4.236   2.842
  582TIP3    H2 1753   5.600   4.128   2.843
  583TIP3   OH2 1754   4.032   0.054   2.365
  583TIP3    H1 1755   4.047   0.145   2.341
  583TIP3    H2 1756   3.939   0.040   2.348
  584TIP3   OH2 1757   5.190   0.689   0.713
  584TIP3    H1 1758   5.167   0.717   0.802
  584TIP3    H2 1759   5.226   0.601   0.724
  585TIP3   OH2 1760   4.942   0.015   4.110
  585TIP3    H1 1761   4.858  -0.030   4.099
  585TIP3    H2 1762   4.923   0.107   4.093
  586TIP3   OH2 1763   0.061   2.051   1.148
  586TIP3    H1 1764   0.045   1.961   1.174
  586TIP3    H2 1765  -0.018   2.099   1.174
  587TIP3   OH2 1766   4.557   3.477   2.791
  587TIP3    H1 1767   4.622   3.497   2.858
  587TIP3    H2 1768   4.567   3.383   2.775
  588TIP3   OH2 1769   4.927   2.470   2.148
  588TIP3    H1 1770   4.839   2.443   2.171
  588TIP3    H2 1771   4.928   2.470   2.053
  589TIP3   OH2 1772   0.196   1.084   1.770
  589TIP3    H1 1773   0.134   1.012   1.784
  589TIP3    H2 1774   0.201   1.092   1.675
  590TIP3   OH2 1775   0.487   5.548   1.215
  590TIP3    H1 1776   0.519   5.544   1.124
  590TIP3    H2 1777   0.396   5.519   1.209
  591TIP3   OH2 1778   0.399   1.033   0.958
  591TIP3    H1 1779   0.465   0.971   0.926
  591TIP3    H2 1780   0.442   1.118   0.950
  592TIP3   OH2 1781   2.887   3.601   0.227
  592TIP3    H1 1782   2.936   3.683   0.225
  592TIP3    H2 1783   2.941   3.540   0.176
  593TIP3   OH2 1784   0.599   5.850   1.141
  593TIP3    H1 1785   0.675   5.862   1.198
  593TIP3    H2 1786   0.537   5.917   1.168
  594TIP3   OH2 1787   4.053   1.939   0.439
  594TIP3    H1 1788   4.130   1.992   0.417
  594TIP3    H2 1789   4.020   1.977   0.521
  595TIP3   OH2 1790   3.104   1.779   1.082
  595TIP3    H1 1791   3.014   1.751   1.064
  595TIP3    H2 1792   3.124   1.742   1.168
  596TIP3   OH2 1793   0.443   2.880   0.368
  596TIP3    H1 1794   0.481   2.967   0.363
  596TIP3    H2 1795   0.445   2.847   0.278
  597TIP3   OH2 1796   1.515   1.321   0.037
  597TIP3    H1 1797   1.550   1.329  -0.052
  597TIP3    H2 1798   1.492   1.410   0.062
  598TIP3   OH2 1799   0.428   5.542   3.003
  598TIP3    H1 1800   0.477   5.527   3.084
  598TIP3    H2 1801   0.336   5.539   3.030
  599TIP3   OH2 1802   3.708   2.620   0.384
  599TIP3    H1 1803   3.732   2.701   0.339
  599TIP3    H2 1804   3.693   2.556   0.314
  600TIP3   OH2 1805   1.309   5.931   4.291
  600TIP3    H1 1806   1.230   5.961   4.247
  600TIP3    H2 1807   1.312   5.980   4.373
  601TIP3   OH2 1808   1.039   4.359   0.423
  601TIP3    H1 1809   0.945   4.379   0.421
  601TIP3    H2 1810   1.074   4.402   0.345
  602TIP3   OH2 1811   0.433   4.010   2.198
  602TIP3    H1 1812   0.404   4.036   2.111
  602TIP3    H2 1813   0.529   4.007   2.191
  603TIP3   OH2 1814   4.041   0.513   1.695
  603TIP3    H1 1815   4.121   0.554   1.727
  603TIP3    H2 1816   3.971   0.554   1.747
  604TIP3   OH2 1817   3.232   1.376   3.526
  604TIP3    H1 1818   3.207   1.359   3.435
  604TIP3    H2 1819   3.206   1.298   3.574
  605TIP3   OH2 1820   5.720   1.669   2.510
  605TIP3    H1 1821   5.713   1.625   2.426
  605TIP3    H2 1822   5.708   1.762   2.490
  606TIP3   OH2 1823   6.121   2.405   5.140
  606TIP3    H1 1824   6.057   2.473   5.122
  606TIP3    H2 1825   6.074   2.341   5.194
  607TIP3   OH2 1826   0.328   3.542   0.197
  607TIP3    H1 1827   0.267   3.603   0.157
  607TIP3    H2 1828   0.327   3.465   0.140
  608TIP3   OH2 1829   2.757   5.054   0.343
  608TIP3    H1 1830   2.683   5.114   0.335
  608TIP3    H2 1831   2.767   5.040   0.437
  609TIP3   OH2 1832   6.188   4.737   4.129
  609TIP3    H1 1833   6.209   4.646   4.150
  609TIP3    H2 1834   6.212   4.747   4.037
  610TIP3   OH2 1835   4.485   5.260   0.636
  610TIP3    H1 1836   4.430   5.304   0.701
  610TIP3    H2 1837   4.465   5.167   0.646
  611TIP3   OH2 1838   1.110   3.070   4.246
  611TIP3    H1 1839   1.090   3.134   4.314
  611TIP3    H2 1840   1.060   3.100   4.170
  612TIP3   OH2 1841   4.844   3.309   2.014
  612TIP3    H1 1842   4.932   3.348   2.006
  612TIP3    H2 1843   4.811   3.305   1.925
  613TIP3   OH2 1844   5.463   6.014   4.688
  613TIP3    H1 1845   5.377   5.978   4.708
  613TIP3    H2 1846   5.514   5.938   4.658
  614TIP3   OH2 1847   4.751   1.238   3.336
  614TIP3    H1 1848   4.679   1.266   3.280
  614TIP3    H2 1849   4.804   1.181   3.280
  615TIP3   OH2 1850   5.400   3.327   4.576
  615TIP3    H1 1851   5.444   3.317   4.661
  615TIP3    H2 1852   5.445   3.264   4.519
  616TIP3   OH2 1853   4.550   0.377   4.143
  616TIP3    H1 1854   4.530   0.471   4.152
  616TIP3    H2 1855   4.481   0.333   4.192
  617TIP3   OH2 1856   6.091   4.863   1.213
  617TIP3    H1 1857   6.138   4.929   1.263
  617TIP3    H2 1858   6.139   4.782   1.228
  618TIP3   OH2 1859   1.511   3.903   2.765
  618TIP3    H1 1860   1.540   3.880   2.677
  618TIP3    H2 1861   1.584   3.953   2.803
  619TIP3   OH2 1862   2.422   3.465   0.889
  619TIP3    H1 1863   2.424   3.557   0.917
  619TIP3    H2 1864   2.486   3.460   0.819
  620TIP3   OH2 1865   1.541   5.264   0.700
  620TIP3    H1 1866   1.604   5.315   0.749
  620TIP3    H2 1867   1.498   5.209   0.766
  621TIP3   OH2 1868   6.155   5.289   0.513
  621TIP3    H1 1869   6.171   5.362   0.573
  621TIP3    H2 1870   6.111   5.329   0.438
  622TIP3   OH2 1871   2.561   1.099   3.360
  622TIP3    H1 1872   2.482   1.077   3.310
  622TIP3    H2 1873   2.599   1.174   3.314
  623TIP3   OH2 1874   3.296   2.469   4.321
  623TIP3    H1 1875   3.309   2.453   4.415
  623TIP3    H2 1876   3.302   2.564   4.312
  624TIP3   OH2 1877   1.764   5.869   2.036
  624TIP3    H1 1878   1.838   5.929   2.030
  624TIP3    H2 1879   1.693   5.922   2.071
  625TIP3   OH2 1880   1.787   5.768   1.515
  625TIP3    H1 1881   1.846   5.843   1.516
  625TIP3    H2 1882   1.732   5.781   1.438
  626TIP3   OH2 1883   3.900   2.810   1.920
  626TIP3    H1 1884   3.835   2.770   1.977
  626TIP3    H2 1885   3.922   2.741   1.857
  627TIP3   OH2 1886   1.681   3.717   2.235
  627TIP3    H1 1887   1.768   3.717   2.276
  627TIP3    H2 1888   1.694   3.674   2.151
  628TIP3   OH2 1889   4.923   4.577   3.288
  628TIP3    H1 1890   4.913   4.618   3.202
  628TIP3    H2 1891   4.887   4.489   3.278
  629TIP3   OH2 1892   2.475   4.467   3.170
  629TIP3    H1 1893   2.451   4.538   3.230
  629TIP3    H2 1894   2.564   4.489   3.141
  630TIP3   OH2 1895   5.465   5.860   0.983
  630TIP3    H1 1896   5.475   5.938   0.929
  630TIP3    H2 1897   5.541   5.806   0.963
  631TIP3   OH2 1898   1.171   0.232   4.418
  631TIP3    H1 1899   1.171   0.220   4.513
  631TIP3    H2 1900   1.107   0.169   4.385
  632TIP3   OH2 1901   3.635   0.628   3.813
  632TIP3    H1 1902   3.639   0.629   3.909
  632TIP3    H2 1903   3.643   0.720   3.788
  633TIP3   OH2 1904   2.875   5.463   4.488
  633TIP3    H1 1905   2.810   5.397   4.513
  633TIP3    H2 1906   2.933   5.470   4.564
  634TIP3   OH2 1907   4.801   3.778   0.873
  634TIP3    H1 1908   4.783   3.690   0.907
  634TIP3    H2 1909   4.864   3.815   0.934
  635TIP3   OH2 1910   5.134   1.189   0.881
  635TIP3    H1 1911   5.142   1.264   0.822
  635TIP3    H2 1912   5.126   1.227   0.968
  636TIP3   OH2 1913   4.469   3.103   2.158
  636TIP3    H1 1914   4.525   3.134   2.229
  636TIP3    H2 1915   4.522   3.038   2.112
  637TIP3   OH2 1916   2.361   4.937   1.248
  637TIP3    H1 1917   2.267   4.920   1.245
  637TIP3    H2 1918   2.376   4.973   1.335
  638TIP3   OH2 1919   1.009   1.349   0.181
  638TIP3    H1 1920   0.979   1.377   0.095
  638TIP3    H2 1921   1.097   1.385   0.189
  639TIP3   OH2 1922   1.226   4.011   0.946
  639TIP3    H1 1923   1.223   4.090   0.893
  639TIP3    H2 1924   1.315   4.009   0.981
  640TIP3   OH2 1925   5.778   3.005   2.570
  640TIP3    H1 1926   5.739   3.093   2.574
  640TIP3    H2 1927   5.848   3.007   2.636
  641TIP3   OH2 1928   0.717   1.739   4.315
  641TIP3    H1 1929   0.789   1.790   4.279
  641TIP3    H2 1930   0.700   1.778   4.401
  642TIP3   OH2 1931   5.022   4.800   0.361
  642TIP3    H1 1932   4.942   4.828   0.406
  642TIP3    H2 1933   4.995   4.787   0.270
  643TIP3   OH2 1934   4.428   4.681   4.329
  643TIP3    H1 1935   4.403   4.612   4.268
  643TIP3    H2 1936   4.522   4.691   4.316
  644TIP3   OH2 1937   3.804   1.356   2.836
  644TIP3    H1 1938   3.738   1.376   2.769
  644TIP3    H2 1939   3.888   1.366   2.789
  645TIP3   OH2 1940   3.781   2.135   1.906
  645TIP3    H1 1941   3.738   2.213   1.940
  645TIP3    H2 1942   3.744   2.124   1.819
  646TIP3   OH2 1943   5.385   3.162   2.316
  646TIP3    H1 1944   5.331   3.209   2.252
  646TIP3    H2 1945   5.392   3.223   2.390
  647TIP3   OH2 1946   3.681   4.774   1.392
  647TIP3    H1 1947   3.633   4.757   1.311
  647TIP3    H2 1948   3.765   4.810   1.363
  648TIP3   OH2 1949   4.014   2.664   2.964
  648TIP3    H1 1950   4.081   2.616   3.012
  648TIP3    H2 1951   3.951   2.597   2.937
  649TIP3   OH2 1952   2.279   3.886   2.702
  649TIP3    H1 1953   2.321   3.882   2.788
  649TIP3    H2 1954   2.206   3.824   2.708
  650TIP3   OH2 1955   5.271   4.371   2.550
  650TIP3    H1 1956   5.261   4.276   2.543
  650TIP3    H2 1957   5.355   4.384   2.594
  651TIP3   OH2 1958   6.120   0.012   4.399
  651TIP3    H1 1959   6.061   0.087   4.411
  651TIP3    H2 1960   6.140   0.013   4.306
  652TIP3   OH2 1961   2.877   5.784   4.709
  652TIP3    H1 1962   2.786   5.783   4.680
  652TIP3    H2 1963   2.918   5.712   4.662
  653TIP3   OH2 1964   3.555   2.527   2.792
  653TIP3    H1 1965   3.494   2.453   2.792
  653TIP3    H2 1966   3.583   2.535   2.883
  654TIP3   OH2 1967   3.489   1.794   4.497
  654TIP3    H1 1968   3.566   1.738   4.505
  654TIP3    H2 1969   3.490   1.823   4.406
  655TIP3   OH2 1970   6.308   5.731   4.079
  655TIP3    H1 1971   6.335   5.643   4.106
  655TIP3    H2 1972   6.389   5.783   4.080
  656TIP3   OH2 1973   3.963   1.492   2.214
  656TIP3    H1 1974   3.986   1.583   2.194
  656TIP3    H2 1975   4.029   1.464   2.278
  657TIP3   OH2 1976   2.657   2.433   3.025
  657TIP3    H1 1977   2.567   2.417   2.996
  657TIP3    H2 1978   2.658   2.526   3.050
  658TIP3   OH2 1979   1.470   1.692   1.293
  658TIP3    H1 1980   1.487   1.605   1.257
  658TIP3    H2 1981   1.411   1.677   1.366
  659TIP3   OH2 1982   4.366   1.935   2.801
  659TIP3    H1 1983   4.307   2.001   2.838
  659TIP3    H2 1984   4.366   1.864   2.865
  660TIP3   OH2 1985   3.819   1.262   1.383
  660TIP3    H1 1986   3.742   1.223   1.342
  660TIP3    H2 1987   3.876   1.285   1.309
  661TIP3   OH2 1988   2.198   1.630   2.165
  661TIP3    H1 1989   2.215   1.619   2.258
  661TIP3    H2 1990   2.154   1.716   2.159
  662TIP3   OH2 1991   3.478   3.566   1.000
  662TIP3    H1 1992   3.551   3.579   0.939
  662TIP3    H2 1993   3.400   3.572   0.946
  663TIP3   OH2 1994   4.073   4.586   2.249
  663TIP3    H1 1995   4.095   4.587   2.342
  663TIP3    H2 1996   4.089   4.496   2.222
  664TIP3   OH2 1997   6.061   5.065   1.805
  664TIP3    H1 1998   6.019   5.149   1.825
  664TIP3    H2 1999   6.155   5.084   1.809
  665TIP3   OH2 2000   3.552   0.594   1.522
  665TIP3    H1 2001   3.630   0.647   1.537
  665TIP3    H2 2002   3.546   0.587   1.427
  666TIP3   OH2 2003   4.552   4.023   1.981
  666TIP3    H1 2004   4.475   4.003   1.928
  666TIP3    H2 2005   4.576   3.940   2.021
  667TIP3   OH2 2006   5.097   3.923   1.842
  667TIP3    H1 2007   5.153   4.000   1.833
  667TIP3    H2 2008   5.094   3.885   1.755
  668TIP3   OH2 2009   2.814   5.620   2.492
  668TIP3    H1 2010   2.861   5.701   2.512
  668TIP3    H2 2011   2.807   5.619   2.397
  669TIP3   OH2 2012   3.271   0.718   4.402
  669TIP3    H1 2013   3.301   0.627   4.405
  669TIP3    H2 2014   3.176   0.712   4.388
  670TIP3   OH2 2015   5.933   1.042   4.633
  670TIP3    H1 2016   5.846   1.003   4.631
  670TIP3    H2 2017   5.951   1.054   4.727
  671TIP3   OH2 2018   5.145   5.301   0.398
  671TIP3    H1 2019   5.135   5.216   0.440
  671TIP3    H2 2020   5.212   5.288   0.331
  672TIP3   OH2 2021   1.223   3.378   3.872
  672TIP3    H1 2022   1.143   3.340   3.907
  672TIP3    H2 2023   1.273   3.405   3.949
  673TIP3   OH2 2024   1.173   0.689   0.185
  673TIP3    H1 2025   1.108   0.687   0.255
  673TIP3    H2 2026   1.202   0.781   0.182
  674TIP3   OH2 2027   6.005   5.987   0.340
  674TIP3    H1 2028   6.048   6.046   0.401
  674TIP3    H2 2029   6.060   5.909   0.340
  675TIP3   OH2 2030   0.736   0.376   1.029
  675TIP3    H1 2031   0.798   0.308   1.055
  675TIP3    H2 2032   0.783   0.458   1.042
  676TIP3   OH2 2033   2.905   1.424   1.866
  676TIP3    H1 2034   2.948   1.339   1.873
  676TIP3    H2 2035   2.976   1.485   1.845
  677TIP3   OH2 2036   4.142   5.106   3.154
  677TIP3    H1 2037   4.112   5.085   3.066
  677TIP3    H2 2038   4.200   5.034   3.179
  678TIP3   OH2 2039   3.349   3.449   0.265
  678TIP3    H1 2040   3.356   3.501   0.345
  678TIP3    H2 2041   3.375   3.361   0.291
  679TIP3   OH2 2042   2.141   0.262   1.718
  679TIP3    H1 2043   2.193   0.228   1.791
  679TIP3    H2 2044   2.138   0.357   1.733
  680TIP3   OH2 2045   6.261   4.556   1.014
  680TIP3    H1 2046   6.258   4.625   0.948
  680TIP3    H2 2047   6.173   4.553   1.051
  681TIP3   OH2 2048   2.356   4.732   2.262
  681TIP3    H1 2049   2.335   4.718   2.355
  681TIP3    H2 2050   2.354   4.645   2.224
  682TIP3   OH2 2051   1.422   2.342   4.186
  682TIP3    H1 2052   1.485   2.366   4.119
  682TIP3    H2 2053   1.471   2.287   4.247
  683TIP3   OH2 2054   1.207   2.941   3.173
  683TIP3    H1 2055   1.295   2.959   3.138
  683TIP3    H2 2056   1.164   2.891   3.104
  684TIP3   OH2 2057   2.447   0.640   1.248
  684TIP3    H1 2058   2.529   0.687   1.262
  684TIP3    H2 2059   2.397   0.698   1.189
  685TIP3   OH2 2060   3.069   3.789   1.081
  685TIP3    H1 2061   3.163   3.788   1.100
  685TIP3    H2 2062   3.035   3.710   1.125
  686TIP3   OH2 2063   5.190   5.065   0.507
  686TIP3    H1 2064   5.199   4.970   0.513
  686TIP3    H2 2065   5.102   5.083   0.540
  687TIP3   OH2 2066   1.526   3.865   1.365
  687TIP3    H1 2067   1.557   3.790   1.315
  687TIP3    H2 2068   1.434   3.875   1.339
  688TIP3   OH2 2069   0.954   2.853   4.222
  688TIP3    H1 2070   0.945   2.811   4.136
  688TIP3    H2 2071   1.032   2.907   4.214
  689TIP3   OH2 2072   1.402   4.151   3.146
  689TIP3    H1 2073   1.489   4.149   3.186
  689TIP3    H2 2074   1.371   4.061   3.150
  690TIP3   OH2 2075   2.881   5.377   5.152
  690TIP3    H1 2076   2.889   5.353   5.244
  690TIP3    H2 2077   2.895   5.471   5.151
  691TIP3   OH2 2078   4.453   5.285   0.375
  691TIP3    H1 2079   4.436   5.379   0.367
  691TIP3    H2 2080   4.442   5.267   0.469
  692TIP3   OH2 2081   4.318   1.696   1.952
  692TIP3    H1 2082   4.313   1.724   1.861
  692TIP3    H2 2083   4.410   1.674   1.966
  693TIP3   OH2 2084   1.011   5.365   3.215
  693TIP3    H1 2085   1.016   5.289   3.272
  693TIP3    H2 2086   1.096   5.408   3.225
  694TIP3   OH2 2087   5.571   3.720   1.070
  694TIP3    H1 2088   5.504   3.722   1.139
  694TIP3    H2 2089   5.573   3.809   1.036
  695TIP3   OH2 2090   1.012   1.593   1.388
  695TIP3    H1 2091   1.048   1.541   1.316
  695TIP3    H2 2092   0.975   1.529   1.448
  696TIP3   OH2 2093   2.561   5.289   0.790
  696TIP3    H1 2094   2.510   5.255   0.716
  696TIP3    H2 2095   2.553   5.384   0.782
  697TIP3   OH2 2096   2.604   3.122   4.905
  697TIP3    H1 2097   2.563   3.112   4.991
  697TIP3    H2 2098   2.621   3.215   4.897
  698TIP3   OH2 2099   3.312   1.013   2.572
  698TIP3    H1 2100   3.378   1.068   2.529
  698TIP3    H2 2101   3.363   0.950   2.623
  699TIP3   OH2 2102   5.844   3.652   3.591
  699TIP3    H1 2103   5.916   3.658   3.528
  699TIP3    H2 2104   5.795   3.733   3.579
  700TIP3   OH2 2105   5.215   0.334   1.059
  700TIP3    H1 2106   5.244   0.422   1.082
  700TIP3    H2 2107   5.119   0.338   1.062
  701TIP3   OH2 2108   4.514   1.812   4.319
  701TIP3    H1 2109   4.602   1.811   4.356
  701TIP3    H2 2110   4.461   1.763   4.382
  702TIP3   OH2 2111   2.176   1.614   3.279
  702TIP3    H1 2112   2.108   1.550   3.305
  702TIP3    H2 2113   2.126   1.691   3.252
  703TIP3   OH2 2114   2.073   2.867   0.698
  703TIP3    H1 2115   2.115   2.939   0.744
  703TIP3    H2 2116   1.986   2.860   0.737
  704TIP3   OH2 2117   5.366   0.429   1.700
  704TIP3    H1 2118   5.295   0.385   1.746
  704TIP3    H2 2119   5.360   0.397   1.610
  705TIP3   OH2 2120   4.941   4.461   4.506
  705TIP3    H1 2121   4.926   4.470   4.600
  705TIP3    H2 2122   4.860   4.423   4.472
  706TIP3   OH2 2123   5.912   3.056   3.417
  706TIP3    H1 2124   5.847   3.093   3.476
  706TIP3    H2 2125   5.861   3.012   3.349
  707TIP3   OH2 2126   4.205   1.511   4.684
  707TIP3    H1 2127   4.116   1.475   4.680
  707TIP3    H2 2128   4.195   1.591   4.735
  708TIP3   OH2 2129   3.979   0.715   3.972
  708TIP3    H1 2130   3.898   0.738   4.017
  708TIP3    H2 2131   3.954   0.711   3.879
  709TIP3   OH2 2132   5.084   2.744   4.265
  709TIP3    H1 2133   5.052   2.809   4.201
  709TIP3    H2 2134   5.052   2.660   4.232
  710TIP3   OH2 2135   4.205   4.975   0.719
  710TIP3    H1 2136   4.191   4.909   0.787
  710TIP3    H2 2137   4.163   4.938   0.641
  711TIP3   OH2 2138   0.823   5.542   4.823
  711TIP3    H1 2139   0.836   5.537   4.918
  711TIP3    H2 2140   0.845   5.633   4.801
  712TIP3   OH2 2141   2.257   4.193   1.826
  712TIP3    H1 2142   2.329   4.135   1.853
  712TIP3    H2 2143   2.187   4.174   1.889
  713TIP3   OH2 2144   5.875   0.126   4.649
  713TIP3    H1 2145   5.858   0.079   4.730
  713TIP3    H2 2146   5.967   0.111   4.630
  714TIP3   OH2 2147   2.337   3.139   3.371
  714TIP3    H1 2148   2.287   3.197   3.429
  714TIP3    H2 2149   2.415   3.116   3.421
  715TIP3   OH2 2150   0.925   0.139   0.777
  715TIP3    H1 2151   0.867   0.064   0.791
  715TIP3    H2 2152   1.009   0.099   0.753
  716TIP3   OH2 2153   1.865   5.392   4.821
  716TIP3    H1 2154   1.859   5.372   4.915
  716TIP3    H2 2155   1.774   5.406   4.794
  717TIP3   OH2 2156   1.378   2.469   4.460
  717TIP3    H1 2157   1.416   2.404   4.402
  717TIP3    H2 2158   1.446   2.535   4.470
  718TIP3   OH2 2159   4.631   3.006   0.135
  718TIP3    H1 2160   4.707   2.951   0.153
  718TIP3    H2 2161   4.568   2.985   0.204
  719TIP3   OH2 2162   0.035   4.125   2.193
  719TIP3    H1 2163   0.072   4.130   2.105
  719TIP3    H2 2164  -0.051   4.166   2.185
  720TIP3   OH2 2165   4.102   3.529   1.449
  720TIP3    H1 2166   4.120   3.562   1.537
  720TIP3    H2 2167   4.024   3.577   1.421
  721TIP3   OH2 2168   5.634   4.005   0.980
  721TIP3    H1 2169   5.716   3.995   0.932
  721TIP3    H2 2170   5.566   3.976   0.919
  722TIP3   OH2 2171   0.221   2.142   3.364
  722TIP3    H1 2172   0.216   2.229   3.403
  722TIP3    H2 2173   0.164   2.146   3.288
  723TIP3   OH2 2174   5.147   1.872   0.802
  723TIP3    H1 2175   5.198   1.793   0.788
  723TIP3    H2 2176   5.063   1.841   0.835
  724TIP3   OH2 2177   4.311   5.501   2.851
  724TIP3    H1 2178   4.243   5.555   2.809
  724TIP3    H2 2179   4.262   5.433   2.896
  725TIP3   OH2 2180   2.019   4.603   1.397
  725TIP3    H1 2181   2.056   4.582   1.311
  725TIP3    H2 2182   1.999   4.696   1.392
  726TIP3   OH2 2183   2.728   5.375   1.736
  726TIP3    H1 2184   2.638   5.391   1.765
  726TIP3    H2 2185   2.775   5.455   1.757
  727TIP3   OH2 2186   5.923   5.878   1.006
  727TIP3    H1 2187   5.950   5.793   0.972
  727TIP3    H2 2188   5.945   5.873   1.100
  728TIP3   OH2 2189   5.789   1.913   2.890
  728TIP3    H1 2190   5.735   1.924   2.968
  728TIP3    H2 2191   5.796   1.818   2.879
  729TIP3   OH2 2192   1.099   0.690   3.304
  729TIP3    H1 2193   1.064   0.656   3.386
  729TIP3    H2 2194   1.022   0.726   3.259
  730TIP3   OH2 2195   5.993   5.305   2.702
  730TIP3    H1 2196   5.913   5.324   2.652
  730TIP3    H2 2197   6.053   5.268   2.638
  731TIP3   OH2 2198   2.080   4.483   1.619
  731TIP3    H1 2199   2.172   4.459   1.620
  731TIP3    H2 2200   2.063   4.513   1.529
  732TIP3   OH2 2201   0.603   0.711   2.852
  732TIP3    H1 2202   0.573   0.800   2.872
  732TIP3    H2 2203   0.643   0.718   2.765
  733TIP3   OH2 2204   6.352   4.887   1.530
  733TIP3    H1 2205   6.291   4.814   1.544
  733TIP3    H2 2206   6.297   4.965   1.534
  734TIP3   OH2 2207   1.339   5.486   3.509
  734TIP3    H1 2208   1.315   5.570   3.549
  734TIP3    H2 2209   1.409   5.452   3.564
  735TIP3   OH2 2210   4.523   1.632   2.201
  735TIP3    H1 2211   4.605   1.632   2.151
  735TIP3    H2 2212   4.545   1.677   2.283
  736TIP3   OH2 2213   3.885   4.834   3.523
  736TIP3    H1 2214   3.974   4.837   3.558
  736TIP3    H2 2215   3.876   4.746   3.486
  737TIP3   OH2 2216   4.177   3.923   2.834
  737TIP3    H1 2217   4.254   3.910   2.889
  737TIP3    H2 2218   4.208   3.904   2.745
  738TIP3   OH2 2219   2.703   0.972   5.028
  738TIP3    H1 2220   2.637   0.931   5.083
  738TIP3    H2 2221   2.653   1.023   4.964
  739TIP3   OH2 2222   0.854   2.241   4.853
  739TIP3    H1 2223   0.934   2.190   4.846
  739TIP3    H2 2224   0.784   2.176   4.861
  740TIP3   OH2 2225   1.016   3.175   1.300
  740TIP3    H1 2226   1.036   3.081   1.300
  740TIP3    H2 2227   0.965   3.189   1.221
  741TIP3   OH2 2228   4.074   1.696   2.659
  741TIP3    H1 2229   4.099   1.776   2.705
  741TIP3    H2 2230   4.037   1.727   2.576
  742TIP3   OH2 2231   4.361   0.739   4.558
  742TIP3    H1 2232   4.321   0.823   4.580
  742TIP3    H2 2233   4.315   0.675   4.614
  743TIP3   OH2 2234   2.204   0.188   3.138
  743TIP3    H1 2235   2.295   0.216   3.134
  743TIP3    H2 2236   2.188   0.169   3.230
  744TIP3   OH2 2237   5.698   1.171   1.516
  744TIP3    H1 2238   5.790   1.145   1.506
  744TIP3    H2 2239   5.653   1.092   1.545
  745TIP3   OH2 2240   0.294   1.975   1.918
  745TIP3    H1 2241   0.228   1.908   1.937
  745TIP3    H2 2242   0.252   2.058   1.940
  746TIP3   OH2 2243   4.185   2.292   4.334
  746TIP3    H1 2244   4.281   2.291   4.329
  746TIP3    H2 2245   4.165   2.263   4.423
  747TIP3   OH2 2246   1.783   5.500   2.608
  747TIP3    H1 2247   1.705   5.480   2.556
  747TIP3    H2 2248   1.773   5.593   2.630
  748TIP3   OH2 2249   0.897   1.155   3.726
  748TIP3    H1 2250   0.809   1.186   3.703
  748TIP3    H2 2251   0.955   1.228   3.704
  749TIP3   OH2 2252   2.783   5.109   0.612
  749TIP3    H1 2253   2.706   5.130   0.665
  749TIP3    H2 2254   2.848   5.175   0.636
  750TIP3   OH2 2255   4.019   3.571   2.619
  750TIP3    H1 2256   3.948   3.517   2.584
  750TIP3    H2 2257   3.985   3.604   2.702
  751TIP3   OH2 2258   5.926   3.607   3.882
  751TIP3    H1 2259   5.992   3.538   3.887
  751TIP3    H2 2260   5.902   3.612   3.790
  752TIP3   OH2 2261   5.639   5.416   0.957
  752TIP3    H1 2262   5.669   5.376   0.875
  752TIP3    H2 2263   5.573   5.355   0.991
  753TIP3   OH2 2264   5.962   5.854   1.551
  753TIP3    H1 2265   5.913   5.876   1.631
  753TIP3    H2 2266   6.033   5.918   1.548
  754TIP3   OH2 2267   1.442   4.562   2.604
  754TIP3    H1 2268   1.445   4.651   2.639
  754TIP3    H2 2269   1.533   4.534   2.603
  755TIP3   OH2 2270   4.387   2.557   1.941
  755TIP3    H1 2271   4.469   2.518   1.911
  755TIP3    H2 2272   4.413   2.615   2.012
  756TIP3   OH2 2273   2.059   1.820   1.418
  756TIP3    H1 2274   1.998   1.837   1.490
  756TIP3    H2 2275   2.017   1.752   1.366
  757TIP3   OH2 2276   3.249   5.334   4.328
  757TIP3    H1 2277   3.217   5.374   4.247
  757TIP3    H2 2278   3.342   5.317   4.311
  758TIP3   OH2 2279   6.130   0.341   2.457
  758TIP3    H1 2280   6.177   0.324   2.376
  758TIP3    H2 2281   6.147   0.265   2.512
  759TIP3   OH2 2282   0.473   0.961   2.846
  759TIP3    H1 2283   0.448   0.970   2.937
  759TIP3    H2 2284   0.481   1.051   2.814
  760TIP3   OH2 2285   1.106   5.500   3.970
  760TIP3    H1 2286   1.090   5.593   3.955
  760TIP3    H2 2287   1.201   5.490   3.963
  761TIP3   OH2 2288   1.011   2.217   2.568
  761TIP3    H1 2289   1.095   2.176   2.545
  761TIP3    H2 2290   0.976   2.247   2.484
  762TIP3   OH2 2291   3.705   5.094   2.453
  762TIP3    H1 2292   3.724   5.186   2.436
  762TIP3    H2 2293   3.771   5.046   2.402
  763TIP3   OH2 2294   2.698   2.875   4.550
  763TIP3    H1 2295   2.624   2.821   4.580
  763TIP3    H2 2296   2.657   2.952   4.512
  764TIP3   OH2 2297   3.733   4.071   0.340
  764TIP3    H1 2298   3.679   4.124   0.399
  764TIP3    H2 2299   3.676   4.054   0.265
  765TIP3   OH2 2300   4.640   0.307   0.995
  765TIP3    H1 2301   4.580   0.359   0.942
  765TIP3    H2 2302   4.586   0.236   1.030
  766TIP3   OH2 2303   5.940   1.378   0.817
  766TIP3    H1 2304   5.886   1.306   0.783
  766TIP3    H2 2305   6.011   1.334   0.863
  767TIP3   OH2 2306   5.949   3.783   2.696
  767TIP3    H1 2307   5.889   3.848   2.660
  767TIP3    H2 2308   6.034   3.827   2.697
  768TIP3   OH2 2309   4.361   4.145   1.757
  768TIP3    H1 2310   4.305   4.130   1.680
  768TIP3    H2 2311   4.447   4.113   1.731
  769TIP3   OH2 2312   0.879   3.019   4.469
  769TIP3    H1 2313   0.864   2.964   4.392
  769TIP3    H2 2314   0.933   2.964   4.527
  770TIP3   OH2 2315   0.715   1.058   3.344
  770TIP3    H1 2316   0.778   0.992   3.316
  770TIP3    H2 2317   0.738   1.137   3.295
  771TIP3   OH2 2318   1.232   5.032   4.663
  771TIP3    H1 2319   1.186   4.961   4.618
  771TIP3    H2 2320   1.283   4.988   4.731
  772TIP3   OH2 2321   3.617   4.408   4.531
  772TIP3    H1 2322   3.580   4.454   4.456
  772TIP3    H2 2323   3.710   4.398   4.509
  773TIP3   OH2 2324   0.122   0.260   2.675
  773TIP3    H1 2325   0.029   0.248   2.692
  773TIP3    H2 2326   0.159   0.285   2.760
  774TIP3   OH2 2327   1.961   2.175   0.892
  774TIP3    H1 2328   1.868   2.196   0.879
  774TIP3    H2 2329   1.995   2.250   0.941
  775TIP3   OH2 2330   5.462   3.458   3.469
  775TIP3    H1 2331   5.409   3.385   3.435
  775TIP3    H2 2332   5.535   3.415   3.513
  776TIP3   OH2 2333   2.191   5.506   0.257
  776TIP3    H1 2334   2.242   5.460   0.191
  776TIP3    H2 2335   2.143   5.437   0.303
  777TIP3   OH2 2336   1.978   1.006   3.967
  777TIP3    H1 2337   1.930   0.924   3.967
  777TIP3    H2 2338   2.030   1.003   3.887
  778TIP3   OH2 2339   0.116   4.342   5.020
  778TIP3    H1 2340   0.069   4.346   4.937
  778TIP3    H2 2341   0.117   4.432   5.052
  779TIP3   OH2 2342   5.721   5.179   4.776
  779TIP3    H1 2343   5.747   5.162   4.866
  779TIP3    H2 2344   5.668   5.259   4.781
  780TIP3   OH2 2345   3.731   4.334   2.333
  780TIP3    H1 2346   3.776   4.333   2.249
  780TIP3    H2 2347   3.640   4.355   2.312
  781TIP3   OH2 2348   1.191   4.525   3.482
  781TIP3    H1 2349   1.102   4.559   3.468
  781TIP3    H2 2350   1.212   4.478   3.402
  782TIP3   OH2 2351   1.289   4.600   2.877
  782TIP3    H1 2352   1.378   4.627   2.899
  782TIP3    H2 2353   1.249   4.578   2.962
  783TIP3   OH2 2354   2.400   2.341   2.948
  783TIP3    H1 2355   2.452   2.360   2.870
  783TIP3    H2 2356   2.323   2.295   2.915
  784TIP3   OH2 2357   2.412   3.487   2.348
  784TIP3    H1 2358   2.453   3.400   2.343
  784TIP3    H2 2359   2.395   3.500   2.441
  785TIP3   OH2 2360   0.928   0.698   0.317
  785TIP3    H1 2361   0.868   0.767   0.289
  785TIP3    H2 2362   0.896   0.673   0.404
  786TIP3   OH2 2363   3.451   4.042   5.077
  786TIP3    H1 2364   3.396   3.997   5.142
  786TIP3    H2 2365   3.459   4.131   5.111
  787TIP3   OH2 2366   3.164   2.179   0.472
  787TIP3    H1 2367   3.214   2.119   0.528
  787TIP3    H2 2368   3.165   2.262   0.519
  788TIP3   OH2 2369   1.672   3.165   3.432
  788TIP3    H1 2370   1.731   3.224   3.386
  788TIP3    H2 2371   1.607   3.223   3.472
  789TIP3   OH2 2372   0.786   3.760   4.195
  789TIP3    H1 2373   0.846   3.689   4.172
  789TIP3    H2 2374   0.820   3.836   4.148
  790TIP3   OH2 2375   2.273   4.694   4.677
  790TIP3    H1 2376   2.314   4.686   4.764
  790TIP3    H2 2377   2.244   4.605   4.656
  791TIP3   OH2 2378   2.549   4.111   0.177
  791TIP3    H1 2379   2.577   4.043   0.116
  791TIP3    H2 2380   2.570   4.193   0.133
  792TIP3   OH2 2381   6.037   2.202   1.574
  792TIP3    H1 2382   5.970   2.179   1.509
  792TIP3    H2 2383   6.118   2.167   1.538
  793TIP3   OH2 2384   0.294   1.017   0.461
  793TIP3    H1 2385   0.390   1.016   0.464
  793TIP3    H2 2386   0.267   1.048   0.547
  794TIP3   OH2 2387   0.781   4.901   4.477
  794TIP3    H1 2388   0.706   4.955   4.504
  794TIP3    H2 2389   0.784   4.831   4.541
  795TIP3   OH2 2390   2.693   1.391   2.323
  795TIP3    H1 2391   2.751   1.435   2.262
  795TIP3    H2 2392   2.721   1.299   2.322
  796TIP3   OH2 2393   5.091   3.523   1.183
  796TIP3    H1 2394   5.052   3.484   1.104
  796TIP3    H2 2395   5.182   3.493   1.182
  797TIP3   OH2 2396   0.148   5.270   2.966
  797TIP3    H1 2397   0.137   5.211   3.040
  797TIP3    H2 2398   0.150   5.213   2.889
  798TIP3   OH2 2399   2.847   2.789   3.758
  798TIP3    H1 2400   2.825   2.703   3.795
  798TIP3    H2 2401   2.899   2.832   3.825
  799TIP3   OH2 2402   3.323   3.711   1.197
  799TIP3    H1 2403   3.371   3.647   1.144
  799TIP3    H2 2404   3.389   3.774   1.225
  800TIP3   OH2 2405   4.645   0.697   4.228
  800TIP3    H1 2406   4.687   0.747   4.298
  800TIP3    H2 2407   4.569   0.656   4.269
  801TIP3   OH2 2408   5.956   2.362   1.253
  801TIP3    H1 2409   5.961   2.366   1.157
  801TIP3    H2 2410   5.916   2.277   1.271
  802TIP3   OH2 2411   3.264   5.970   4.528
  802TIP3    H1 2412   3.344   6.007   4.567
  802TIP3    H2 2413   3.199   5.976   4.597
  803TIP3   OH2 2414   2.319   2.143   4.572
  803TIP3    H1 2415   2.286   2.113   4.487
  803TIP3    H2 2416   2.399   2.091   4.587
  804TIP3   OH2 2417   0.503   3.851   1.894
  804TIP3    H1 2418   0.584   3.822   1.933
  804TIP3    H2 2419   0.525   3.866   1.802
  805TIP3   OH2 2420   3.252   0.630   2.291
  805TIP3    H1 2421   3.291   0.583   2.364
  805TIP3    H2 2422   3.298   0.714   2.289
  806TIP3   OH2 2423   0.118   0.795   0.553
  806TIP3    H1 2424   0.055   0.867   0.556
  806TIP3    H2 2425   0.147   0.784   0.644
  807TIP3   OH2 2426   4.151   1.572   3.745
  807TIP3    H1 2427   4.091   1.510   3.788
  807TIP3    H2 2428   4.094   1.624   3.689
  808TIP3   OH2 2429   2.996   3.264   4.682
  808TIP3    H1 2430   3.067   3.319   4.651
  808TIP3    H2 2431   3.021   3.242   4.772
  809TIP3   OH2 2432   3.364   1.862   2.783
  809TIP3    H1 2433   3.326   1.908   2.858
  809TIP3    H2 2434   3.454   1.842   2.811
  810TIP3   OH2 2435   2.288   1.569   1.371
  810TIP3    H1 2436   2.339   1.579   1.451
  810TIP3    H2 2437   2.215   1.630   1.381
  811TIP3   OH2 2438   4.291   2.249   0.586
  811TIP3    H1 2439   4.208   2.242   0.634
  811TIP3    H2 2440   4.352   2.286   0.650
  812TIP3   OH2 2441   2.429   2.784   4.245
  812TIP3    H1 2442   2.436   2.879   4.241
  812TIP3    H2 2443   2.408   2.757   4.155
  813TIP3   OH2 2444   0.208   5.325   4.058
  813TIP3    H1 2445   0.242   5.302   4.145
  813TIP3    H2 2446   0.253   5.265   3.998
  814TIP3   OH2 2447   3.961   3.495   1.143
  814TIP3    H1 2448   3.871   3.482   1.175
  814TIP3    H2 2449   3.990   3.576   1.186
  815TIP3   OH2 2450   3.396   4.307   4.676
  815TIP3    H1 2451   3.464   4.364   4.642
  815TIP3    H2 2452   3.314   4.355   4.659
  816TIP3   OH2 2453   4.746   2.389   3.945
  816TIP3    H1 2454   4.769   2.340   4.024
  816TIP3    H2 2455   4.781   2.336   3.873
  817TIP3   OH2 2456   2.238   5.462   2.977
  817TIP3    H1 2457   2.170   5.398   2.956
  817TIP3    H2 2458   2.225   5.532   2.913
  818TIP3   OH2 2459   5.997   4.285   0.654
  818TIP3    H1 2460   6.065   4.314   0.594
  818TIP3    H2 2461   5.969   4.200   0.620
  819TIP3   OH2 2462   3.934   5.263   4.963
  819TIP3    H1 2463   3.871   5.334   4.949
  819TIP3    H2 2464   3.881   5.183   4.956
  820TIP3   OH2 2465   0.006   3.822   2.538
  820TIP3    H1 2466   0.100   3.815   2.520
  820TIP3    H2 2467  -0.009   3.763   2.611
  821TIP3   OH2 2468   5.919   4.016   0.583
  821TIP3    H1 2469   6.000   4.008   0.533
  821TIP3    H2 2470   5.879   3.929   0.578
  822TIP3   OH2 2471   1.891   1.513   1.074
  822TIP3    H1 2472   1.983   1.507   1.049
  822TIP3    H2 2473   1.893   1.551   1.162
  823TIP3   OH2 2474   2.245   5.393   2.359
  823TIP3    H1 2475   2.179   5.396   2.290
  823TIP3    H2 2476   2.243   5.480   2.399
  824TIP3   OH2 2477   1.027   3.851   1.096
  824TIP3    H1 2478   1.084   3.775   1.083
  824TIP3    H2 2479   1.061   3.916   1.035
  825TIP3   OH2 2480   0.787   4.644   1.186
  825TIP3    H1 2481   0.780   4.596   1.268
  825TIP3    H2 2482   0.853   4.596   1.135
  826TIP3   OH2 2483   3.483   0.942   3.774
  826TIP3    H1 2484   3.536   0.907   3.702
  826TIP3    H2 2485   3.482   1.037   3.759
  827TIP3   OH2 2486   4.960   4.250   4.856
  827TIP3    H1 2487   4.985   4.192   4.927
  827TIP3    H2 2488   4.865   4.257   4.864
  828TIP3   OH2 2489   3.501   2.178   3.027
  828TIP3    H1 2490   3.466   2.211   3.110
  828TIP3    H2 2491   3.478   2.085   3.027
  829TIP3   OH2 2492   0.126   2.622   4.811
  829TIP3    H1 2493   0.216   2.641   4.785
  829TIP3    H2 2494   0.096   2.703   4.853
  830TIP3   OH2 2495   0.589   2.327   1.906
  830TIP3    H1 2496   0.519   2.380   1.942
  830TIP3    H2 2497   0.628   2.283   1.982
  831TIP3   OH2 2498   6.230   4.880   2.491
  831TIP3    H1 2499   6.212   4.966   2.452
  831TIP3    H2 2500   6.249   4.824   2.415
  832TIP3   OH2 2501   0.165   5.249   5.065
  832TIP3    H1 2502   0.118   5.192   5.004
  832TIP3    H2 2503   0.231   5.293   5.012
  833TIP3   OH2 2504   2.009   1.997   0.257
  833TIP3    H1 2505   1.961   2.000   0.174
  833TIP3    H2 2506   1.953   2.044   0.318
  834TIP3   OH2 2507   1.972   2.169   2.122
  834TIP3    H1 2508   2.009   2.257   2.115
  834TIP3    H2 2509   2.049   2.111   2.119
  835TIP3   OH2 2510   3.813   5.675   2.941
  835TIP3    H1 2511   3.865   5.596   2.927
  835TIP3    H2 2512   3.740   5.667   2.880
  836TIP3   OH2 2513   2.061   4.606   0.349
  836TIP3    H1 2514   2.121   4.617   0.276
  836TIP3    H2 2515   2.041   4.513   0.351
  837TIP3   OH2 2516   5.252   1.140   1.848
  837TIP3    H1 2517   5.219   1.222   1.812
  837TIP3    H2 2518   5.206   1.130   1.931
  838TIP3   OH2 2519  -0.010   5.204   2.296
  838TIP3    H1 2520   0.069   5.162   2.331
  838TIP3    H2 2521  -0.011   5.291   2.336
  839TIP3   OH2 2522   5.379   0.234   3.109
  839TIP3    H1 2523   5.393   0.204   3.199
  839TIP3    H2 2524   5.387   0.330   3.115
  840TIP3   OH2 2525   3.096   1.151   2.715
  840TIP3    H1 2526   3.142   1.212   2.771
  840TIP3    H2 2527   3.165   1.104   2.668
  841TIP3   OH2 2528   1.157   1.354   0.495
  841TIP3    H1 2529   1.129   1.424   0.437
  841TIP3    H2 2530   1.253   1.358   0.493
  842TIP3   OH2 2531   1.543   4.615   0.903
  842TIP3    H1 2532   1.637   4.603   0.907
  842TIP3    H2 2533   1.530   4.708   0.921
  843TIP3   OH2 2534   4.604   2.610   4.961
  843TIP3    H1 2535   4.626   2.582   4.872
  843TIP3    H2 2536   4.513   2.638   4.956
  844TIP3   OH2 2537   1.901   1.886   1.662
  844TIP3    H1 2538   1.812   1.859   1.687
  844TIP3    H2 2539   1.902   1.980   1.680
  845TIP3   OH2 2540   3.490   0.133   4.476
  845TIP3    H1 2541   3.461   0.224   4.464
  845TIP3    H2 2542   3.574   0.128   4.431
  846TIP3   OH2 2543   0.142   5.185   1.268
  846TIP3    H1 2544   0.110   5.225   1.349
  846TIP3    H2 2545   0.104   5.097   1.268
  847TIP3   OH2 2546   0.903   0.150   4.784
  847TIP3    H1 2547   0.954   0.070   4.770
  847TIP3    H2 2548   0.812   0.118   4.792
  848TIP3   OH2 2549   1.367   4.519   1.733
  848TIP3    H1 2550   1.458   4.544   1.748
  848TIP3    H2 2551   1.357   4.521   1.638
  849TIP3   OH2 2552   0.485   5.624   0.437
  849TIP3    H1 2553   0.439   5.697   0.396
  849TIP3    H2 2554   0.508   5.656   0.524
  850TIP3   OH2 2555   3.233   1.323   4.571
  850TIP3    H1 2556   3.306   1.327   4.509
  850TIP3    H2 2557   3.200   1.234   4.563
  851TIP3   OH2 2558   0.392   3.068   2.246
  851TIP3    H1 2559   0.457   3.135   2.263
  851TIP3    H2 2560   0.314   3.117   2.219
  852TIP3   OH2 2561   5.738   0.371   1.055
  852TIP3    H1 2562   5.829   0.348   1.075
  852TIP3    H2 2563   5.688   0.331   1.126
  853TIP3   OH2 2564   1.654   1.584   1.757
  853TIP3    H1 2565   1.592   1.530   1.709
  853TIP3    H2 2566   1.616   1.672   1.755
  854TIP3   OH2 2567   6.158   0.023   3.390
  854TIP3    H1 2568   6.129   0.063   3.307
  854TIP3    H2 2569   6.252   0.042   3.393
  855TIP3   OH2 2570   1.376   2.381   4.977
  855TIP3    H1 2571   1.421   2.372   4.893
  855TIP3    H2 2572   1.338   2.295   4.994
  856TIP3   OH2 2573   2.525   2.336   4.744
  856TIP3    H1 2574   2.481   2.319   4.827
  856TIP3    H2 2575   2.491   2.421   4.716
  857TIP3   OH2 2576   5.696   3.490   4.024
  857TIP3    H1 2577   5.778   3.522   3.985
  857TIP3    H2 2578   5.722   3.414   4.076
  858TIP3   OH2 2579   5.941   1.664   2.272
  858TIP3    H1 2580   5.868   1.606   2.294
  858TIP3    H2 2581   5.959   1.647   2.180
  859TIP3   OH2 2582   1.217   1.326   0.988
  859TIP3    H1 2583   1.226   1.232   0.972
  859TIP3    H2 2584   1.199   1.364   0.902
  860TIP3   OH2 2585   0.751   3.980   4.550
  860TIP3    H1 2586   0.811   3.914   4.514
  860TIP3    H2 2587   0.743   3.957   4.642
  861TIP3   OH2 2588   2.152   4.639   3.128
  861TIP3    H1 2589   2.220   4.616   3.191
  861TIP3    H2 2590   2.073   4.594   3.158
  862TIP3   OH2 2591   0.460   4.471   0.551
  862TIP3    H1 2592   0.464   4.492   0.458
  862TIP3    H2 2593   0.377   4.509   0.581
  863TIP3   OH2 2594   3.407   2.279   3.291
  863TIP3    H1 2595   3.389   2.349   3.354
  863TIP3    H2 2596   3.323   2.233   3.282
  864TIP3   OH2 2597   4.467   2.342   4.299
  864TIP3    H1 2598   4.523   2.267   4.319
  864TIP3    H2 2599   4.492   2.409   4.362
  865TIP3   OH2 2600   1.155   0.690   4.914
  865TIP3    H1 2601   1.145   0.622   4.981
  865TIP3    H2 2602   1.068   0.701   4.877
  866TIP3   OH2 2603   2.198   2.988   2.351
  866TIP3    H1 2604   2.123   2.930   2.335
  866TIP3    H2 2605   2.272   2.943   2.309
  867TIP3   OH2 2606   3.614   1.597   3.690
  867TIP3    H1 2607   3.530   1.599   3.645
  867TIP3    H2 2608   3.617   1.681   3.737
  868TIP3   OH2 2609   0.296   3.001   0.578
  868TIP3    H1 2610   0.370   2.962   0.532
  868TIP3    H2 2611   0.276   3.080   0.527
  869TIP3   OH2 2612   1.841   2.876   5.011
  869TIP3    H1 2613   1.909   2.936   4.983
  869TIP3    H2 2614   1.884   2.816   5.071
  870TIP3   OH2 2615   3.169   3.025   0.383
  870TIP3    H1 2616   3.229   2.950   0.383
  870TIP3    H2 2617   3.098   2.998   0.442
  871TIP3   OH2 2618   5.698   0.822   4.723
  871TIP3    H1 2619   5.653   0.751   4.677
  871TIP3    H2 2620   5.627   0.873   4.763
  872TIP3   OH2 2621   0.989   4.362   1.529
  872TIP3    H1 2622   0.989   4.270   1.555
  872TIP3    H2 2623   0.987   4.410   1.612
  873TIP3   OH2 2624   6.127   5.773   3.872
  873TIP3    H1 2625   6.094   5.688   3.843
  873TIP3    H2 2626   6.190   5.753   3.941
  874TIP3   OH2 2627   0.209   5.898   3.104
  874TIP3    H1 2628   0.244   5.908   3.016
  874TIP3    H2 2629   0.124   5.943   3.102
  875TIP3   OH2 2630   5.168   5.743   3.627
  875TIP3    H1 2631   5.083   5.740   3.672
  875TIP3    H2 2632   5.188   5.651   3.609
  876TIP3   OH2 2633   1.466   3.075   0.813
  876TIP3    H1 2634   1.472   3.036   0.726
  876TIP3    H2 2635   1.495   3.165   0.801
  877TIP3   OH2 2636   5.658   4.189   0.078
  877TIP3    H1 2637   5.686   4.130   0.008
  877TIP3    H2 2638   5.730   4.188   0.140
  878TIP3   OH2 2639   1.975   4.333   2.151
  878TIP3    H1 2640   1.956   4.427   2.150
  878TIP3    H2 2641   1.939   4.300   2.069
  879TIP3   OH2 2642   5.265   5.173   0.181
  879TIP3    H1 2643   5.306   5.091   0.154
  879TIP3    H2 2644   5.186   5.179   0.127
  880TIP3   OH2 2645   2.852   0.772   4.460
  880TIP3    H1 2646   2.848   0.723   4.542
  880TIP3    H2 2647   2.771   0.823   4.458
  881TIP3   OH2 2648   1.756   5.722   1.789
  881TIP3    H1 2649   1.749   5.742   1.695
  881TIP3    H2 2650   1.749   5.807   1.832
  882TIP3   OH2 2651   5.523   1.790   0.949
  882TIP3    H1 2652   5.457   1.738   0.904
  882TIP3    H2 2653   5.581   1.726   0.991
  883TIP3   OH2 2654   4.061   1.854   4.682
  883TIP3    H1 2655   4.054   1.878   4.590
  883TIP3    H2 2656   3.971   1.850   4.713
  884TIP3   OH2 2657   2.301   0.281   4.578
  884TIP3    H1 2658   2.248   0.217   4.626
  884TIP3    H2 2659   2.361   0.316   4.644
  885TIP3   OH2 2660   4.022   5.903   2.907
  885TIP3    H1 2661   4.001   5.893   3.000
  885TIP3    H2 2662   3.937   5.895   2.863
  886TIP3   OH2 2663   2.608   3.017   3.091
  886TIP3    H1 2664   2.523   3.008   3.135
  886TIP3    H2 2665   2.607   3.106   3.056
  887TIP3   OH2 2666   2.668   1.434   2.640
  887TIP3    H1 2667   2.711   1.397   2.563
  887TIP3    H2 2668   2.583   1.464   2.607
  888TIP3   OH2 2669   5.951   4.573   3.755
  888TIP3    H1 2670   5.956   4.668   3.752
  888TIP3    H2 2671   5.878   4.555   3.814
  889TIP3   OH2 2672   3.372   4.941   3.764
  889TIP3    H1 2673   3.301   4.919   3.704
  889TIP3    H2 2674   3.444   4.884   3.739
  890TIP3   OH2 2675   4.545   0.380   5.164
  890TIP3    H1 2676   4.585   0.373   5.078
  890TIP3    H2 2677   4.467   0.324   5.160
  891TIP3   OH2 2678   4.083   4.202   2.643
  891TIP3    H1 2679   4.046   4.279   2.600
  891TIP3    H2 2680   4.140   4.238   2.711
  892TIP3   OH2 2681   2.013   1.282   0.909
  892TIP3    H1 2682   1.994   1.217   0.977
  892TIP3    H2 2683   2.045   1.358   0.957
  893TIP3   OH2 2684   1.198   5.893   1.772
  893TIP3    H1 2685   1.259   5.962   1.799
  893TIP3    H2 2686   1.176   5.915   1.681
  894TIP3   OH2 2687   5.850   1.136   0.303
  894TIP3    H1 2688   5.895   1.179   0.230
  894TIP3    H2 2689   5.889   1.049   0.306
  895TIP3   OH2 2690   0.430   2.379   0.594
  895TIP3    H1 2691   0.470   2.434   0.526
  895TIP3    H2 2692   0.340   2.366   0.564
  896TIP3   OH2 2693   5.799   3.713   0.163
  896TIP3    H1 2694   5.873   3.729   0.222
  896TIP3    H2 2695   5.811   3.623   0.133
  897TIP3   OH2 2696   2.481   2.488   2.117
  897TIP3    H1 2697   2.484   2.452   2.028
  897TIP3    H2 2698   2.394   2.526   2.125
  898TIP3   OH2 2699   1.402   5.535   3.953
  898TIP3    H1 2700   1.449   5.484   3.886
  898TIP3    H2 2701   1.461   5.535   4.028
  899TIP3   OH2 2702   4.097   0.315   2.332
  899TIP3    H1 2703   4.145   0.349   2.256
  899TIP3    H2 2704   4.157   0.327   2.405
  900TIP3   OH2 2705   2.176   4.913   0.369
  900TIP3    H1 2706   2.138   4.879   0.288
  900TIP3    H2 2707   2.102   4.926   0.428
  901TIP3   OH2 2708   2.902   3.423   2.110
  901TIP3    H1 2709   2.866   3.511   2.103
  901TIP3    H2 2710   2.873   3.391   2.196
  902TIP3   OH2 2711   2.417   0.474   4.807
  902TIP3    H1 2712   2.330   0.446   4.836
  902TIP3    H2 2713   2.455   0.517   4.884
  903TIP3   OH2 2714   3.776   3.027   4.275
  903TIP3    H1 2715   3.836   2.978   4.219
  903TIP3    H2 2716   3.728   3.084   4.216
  904TIP3   OH2 2717   6.288   2.954   3.107
  904TIP3    H1 2718   6.297   3.041   3.067
  904TIP3    H2 2719   6.206   2.959   3.156
  905TIP3   OH2 2720   5.649   2.638   2.018
  905TIP3    H1 2721   5.722   2.687   2.055
  905TIP3    H2 2722   5.571   2.686   2.045
  906TIP3   OH2 2723   2.562   5.939   1.238
  906TIP3    H1 2724   2.637   5.948   1.178
  906TIP3    H2 2725   2.587   5.990   1.315
  907TIP3   OH2 2726   4.732   2.856   4.125
  907TIP3    H1 2727   4.799   2.789   4.108
  907TIP3    H2 2728   4.767   2.936   4.086
  908TIP3   OH2 2729   5.245   5.493   3.541
  908TIP3    H1 2730   5.255   5.407   3.581
  908TIP3    H2 2731   5.241   5.476   3.447
  909TIP3   OH2 2732   3.902   2.007   2.179
  909TIP3    H1 2733   3.840   2.076   2.204
  909TIP3    H2 2734   3.979   2.054   2.147
  910TIP3   OH2 2735   0.177   5.334   0.762
  910TIP3    H1 2736   0.239   5.398   0.796
  910TIP3    H2 2737   0.093   5.380   0.761
  911TIP3   OH2 2738   1.881   3.246   1.959
  911TIP3    H1 2739   1.961   3.295   1.980
  911TIP3    H2 2740   1.845   3.289   1.882
  912TIP3   OH2 2741   5.930   5.155   0.609
  912TIP3    H1 2742   5.906   5.214   0.537
  912TIP3    H2 2743   6.026   5.151   0.605
  913TIP3   OH2 2744   0.021   5.233   1.508
  913TIP3    H1 2745  -0.042   5.299   1.480
  913TIP3    H2 2746  -0.015   5.197   1.588
  914TIP3   OH2 2747   4.534   0.322   1.680
  914TIP3    H1 2748   4.480   0.248   1.709
  914TIP3    H2 2749   4.471   0.381   1.637
  915TIP3   OH2 2750   2.626   1.099   1.061
  915TIP3    H1 2751   2.688   1.046   1.010
  915TIP3    H2 2752   2.646   1.079   1.152
  916TIP3   OH2 2753   4.926   1.078   0.738
  916TIP3    H1 2754   5.001   1.113   0.786
  916TIP3    H2 2755   4.894   1.152   0.685
  917TIP3   OH2 2756   4.051   1.775   2.132
  917TIP3    H1 2757   3.996   1.853   2.122
  917TIP3    H2 2758   4.105   1.773   2.053
  918TIP3   OH2 2759   5.848   5.494   2.994
  918TIP3    H1 2760   5.788   5.508   2.921
  918TIP3    H2 2761   5.891   5.411   2.974
  919TIP3   OH2 2762   2.082   0.742   4.204
  919TIP3    H1 2763   2.129   0.781   4.131
  919TIP3    H2 2764   2.045   0.661   4.169
  920TIP3   OH2 2765   0.021   1.715   3.155
  920TIP3    H1 2766   0.005   1.808   3.173
  920TIP3    H2 2767   0.008   1.706   3.061
  921TIP3   OH2 2768   5.554   0.871   0.304
  921TIP3    H1 2769   5.647   0.886   0.319
  921TIP3    H2 2770   5.551   0.818   0.224
  922TIP3   OH2 2771   5.055   2.251   5.089
  922TIP3    H1 2772   4.981   2.215   5.040
  922TIP3    H2 2773   5.079   2.331   5.042
  923TIP3   OH2 2774   4.410   4.080   2.681
  923TIP3    H1 2775   4.382   4.035   2.761
  923TIP3    H2 2776   4.473   4.021   2.641
  924TIP3   OH2 2777   5.495   4.273   1.935
  924TIP3    H1 2778   5.491   4.365   1.908
  924TIP3    H2 2779   5.407   4.239   1.914
  925TIP3   OH2 2780   3.172   5.149   0.070
  925TIP3    H1 2781   3.078   5.169   0.073
  925TIP3    H2 2782   3.183   5.078   0.133
  926TIP3   OH2 2783   5.761   4.106   3.053
  926TIP3    H1 2784   5.848   4.126   3.088
  926TIP3    H2 2785   5.704   4.174   3.090
  927TIP3   OH2 2786   3.980   3.819   1.990
  927TIP3    H1 2787   3.912   3.882   2.012
  927TIP3    H2 2788   3.933   3.741   1.960
  928TIP3   OH2 2789   5.709   4.619   2.622
  928TIP3    H1 2790   5.690   4.677   2.549
  928TIP3    H2 2791   5.803   4.633   2.639
  929TIP3   OH2 2792   0.155   3.354   1.724
  929TIP3    H1 2793   0.061   3.341   1.712
  929TIP3    H2 2794   0.196   3.301   1.655
  930TIP3   OH2 2795   4.522   2.044   2.224
  930TIP3    H1 2796   4.581   2.019   2.295
  930TIP3    H2 2797   4.465   1.969   2.212
  931TIP3   OH2 2798   3.650   5.469   3.247
  931TIP3    H1 2799   3.709   5.405   3.288
  931TIP3    H2 2800   3.645   5.540   3.311
  932TIP3   OH2 2801   5.057   2.610   2.379
  932TIP3    H1 2802   5.021   2.551   2.313
  932TIP3    H2 2803   5.019   2.581   2.461
  933TIP3   OH2 2804   3.877   0.461   0.199
  933TIP3    H1 2805   3.798   0.457   0.254
  933TIP3    H2 2806   3.886   0.554   0.178
  934TIP3   OH2 2807   3.037   4.991   2.393
  934TIP3    H1 2808   2.964   5.052   2.402
  934TIP3    H2 2809   3.032   4.936   2.471
  935TIP3   OH2 2810   2.417   3.132   4.702
  935TIP3    H1 2811   2.470   3.180   4.766
  935TIP3    H2 2812   2.367   3.070   4.755
  936TIP3   OH2 2813   4.490   0.948   1.320
  936TIP3    H1 2814   4.418   0.887   1.339
  936TIP3    H2 2815   4.484   1.013   1.390
  937TIP3   OH2 2816   6.159   2.031   5.030
  937TIP3    H1 2817   6.097   2.088   4.985
  937TIP3    H2 2818   6.106   1.983   5.094
  938TIP3   OH2 2819   3.899   3.749   0.540
  938TIP3    H1 2820   3.932   3.799   0.465
  938TIP3    H2 2821   3.873   3.815   0.603
  939TIP3   OH2 2822   4.300   0.124   4.543
  939TIP3    H1 2823   4.260   0.173   4.614
  939TIP3    H2 2824   4.227   0.086   4.495
  940TIP3   OH2 2825   5.800   2.714   2.781
  940TIP3    H1 2826   5.796   2.618   2.783
  940TIP3    H2 2827   5.788   2.736   2.689
  941TIP3   OH2 2828   3.316   5.143   3.456
  941TIP3    H1 2829   3.348   5.086   3.385
  941TIP3    H2 2830   3.249   5.197   3.414
  942TIP3   OH2 2831   6.294   3.986   4.985
  942TIP3    H1 2832   6.271   3.977   4.893
  942TIP3    H2 2833   6.372   3.931   4.996
  943TIP3   OH2 2834   3.862   2.024   2.738
  943TIP3    H1 2835   3.841   2.021   2.645
  943TIP3    H2 2836   3.957   2.013   2.741
  944TIP3   OH2 2837   3.073   5.161   2.644
  944TIP3    H1 2838   3.110   5.073   2.649
  944TIP3    H2 2839   3.016   5.159   2.567
  945TIP3   OH2 2840   3.159   3.647   0.568
  945TIP3    H1 2841   3.104   3.614   0.497
  945TIP3    H2 2842   3.117   3.729   0.595
  946TIP3   OH2 2843   4.991   4.779   2.828
  946TIP3    H1 2844   4.998   4.863   2.782
  946TIP3    H2 2845   5.050   4.721   2.780
  947TIP3   OH2 2846   0.356   3.449   3.657
  947TIP3    H1 2847   0.304   3.386   3.606
  947TIP3    H2 2848   0.362   3.409   3.744
  948TIP3   OH2 2849   3.930   1.054   3.126
  948TIP3    H1 2850   4.023   1.070   3.117
  948TIP3    H2 2851   3.917   1.037   3.220
  949TIP3   OH2 2852   5.992   0.228   4.080
  949TIP3    H1 2853   5.933   0.242   4.155
  949TIP3    H2 2854   5.947   0.269   4.006
  950TIP3   OH2 2855   0.939   0.544   4.120
  950TIP3    H1 2856   0.929   0.613   4.186
  950TIP3    H2 2857   1.021   0.566   4.076
  951TIP3   OH2 2858   4.381   3.858   4.534
  951TIP3    H1 2859   4.296   3.839   4.495
  951TIP3    H2 2860   4.360   3.893   4.621
  952TIP3   OH2 2861   5.031   3.926   4.448
  952TIP3    H1 2862   5.091   3.852   4.433
  952TIP3    H2 2863   5.071   3.974   4.520
  953TIP3   OH2 2864   6.220   2.610   3.352
  953TIP3    H1 2865   6.168   2.673   3.300
  953TIP3    H2 2866   6.197   2.525   3.316
  954TIP3   OH2 2867   5.742   4.827   3.583
  954TIP3    H1 2868   5.774   4.909   3.544
  954TIP3    H2 2869   5.795   4.816   3.662
  955TIP3   OH2 2870   5.983   2.222   3.636
  955TIP3    H1 2871   5.903   2.273   3.650
  955TIP3    H2 2872   5.953   2.137   3.605
  956TIP3   OH2 2873   5.715   0.516   0.550
  956TIP3    H1 2874   5.620   0.528   0.550
  956TIP3    H2 2875   5.741   0.529   0.459
  957TIP3   OH2 2876   2.290   0.717   0.060
  957TIP3    H1 2877   2.231   0.642   0.050
  957TIP3    H2 2878   2.377   0.678   0.066
  958TIP3   OH2 2879   4.027   1.046   3.770
  958TIP3    H1 2880   4.102   1.034   3.828
  958TIP3    H2 2881   4.059   1.020   3.683
  959TIP3   OH2 2882   4.428   3.915   2.932
  959TIP3    H1 2883   4.497   3.857   2.902
  959TIP3    H2 2884   4.449   3.933   3.023
  960TIP3   OH2 2885   5.504   1.396   2.145
  960TIP3    H1 2886   5.526   1.303   2.145
  960TIP3    H2 2887   5.532   1.428   2.059
  961TIP3   OH2 2888   4.786   1.088   3.701
  961TIP3    H1 2889   4.741   1.035   3.635
  961TIP3    H2 2890   4.879   1.070   3.686
  962TIP3   OH2 2891   0.834   1.924   2.369
  962TIP3    H1 2892   0.863   1.977   2.295
  962TIP3    H2 2893   0.911   1.873   2.394
  963TIP3   OH2 2894   4.313   5.524   5.048
  963TIP3    H1 2895   4.358   5.466   5.109
  963TIP3    H2 2896   4.237   5.555   5.096
  964TIP3   OH2 2897   5.182   5.947   1.067
  964TIP3    H1 2898   5.254   5.884   1.068
  964TIP3    H2 2899   5.107   5.897   1.036
  965TIP3   OH2 2900   3.612   4.476   0.055
  965TIP3    H1 2901   3.556   4.445   0.127
  965TIP3    H2 2902   3.552   4.524  -0.002
  966TIP3   OH2 2903   0.013   4.522   1.258
  966TIP3    H1 2904   0.028   4.616   1.248
  966TIP3    H2 2905  -0.002   4.490   1.170
  967TIP3   OH2 2906   4.913   0.513   3.520
  967TIP3    H1 2907   4.849   0.514   3.449
  967TIP3    H2 2908   4.978   0.578   3.494
  968TIP3   OH2 2909   2.340   3.039   4.233
  968TIP3    H1 2910   2.361   3.096   4.160
  968TIP3    H2 2911   2.262   3.077   4.273
  969TIP3   OH2 2912   4.972   4.436   3.751
  969TIP3    H1 2913   4.904   4.482   3.701
  969TIP3    H2 2914   4.994   4.496   3.822
  970TIP3   OH2 2915   5.719   3.501   4.462
  970TIP3    H1 2916   5.811   3.522   4.481
  970TIP3    H2 2917   5.670   3.564   4.514
  971TIP3   OH2 2918   4.864   0.819   0.587
  971TIP3    H1 2919   4.892   0.894   0.640
  971TIP3    H2 2920   4.940   0.799   0.532
  972TIP3   OH2 2921   4.867   1.314   2.016
  972TIP3    H1 2922   4.787   1.320   2.068
  972TIP3    H2 2923   4.935   1.292   2.080
  973TIP3   OH2 2924   1.636   2.918   1.567
  973TIP3    H1 2925   1.594   2.962   1.641
  973TIP3    H2 2926   1.564   2.889   1.511
  974TIP3   OH2 2927   2.436   4.170   1.585
  974TIP3    H1 2928   2.386   4.139   1.660
  974TIP3    H2 2929   2.504   4.105   1.572
  975TIP3   OH2 2930   3.848   1.364   0.303
  975TIP3    H1 2931   3.904   1.330   0.373
  975TIP3    H2 2932   3.900   1.434   0.264
  976TIP3   OH2 2933   3.857   2.300   3.539
  976TIP3    H1 2934   3.836   2.274   3.629
  976TIP3    H2 2935   3.795   2.251   3.485
  977TIP3   OH2 2936   2.299   0.785   0.951
  977TIP3    H1 2937   2.237   0.851   0.918
  977TIP3    H2 2938   2.333   0.823   1.032
  978TIP3   OH2 2939   4.986   3.733   2.294
  978TIP3    H1 2940   4.966   3.708   2.204
  978TIP3    H2 2941   5.080   3.752   2.293
  979TIP3   OH2 2942   5.952   4.843   3.765
  979TIP3    H1 2943   6.036   4.887   3.771
  979TIP3    H2 2944   5.898   4.886   3.831
  980TIP3   OH2 2945   5.632   1.574   2.761
  980TIP3    H1 2946   5.711   1.529   2.789
  980TIP3    H2 2947   5.648   1.596   2.669
  981TIP3   OH2 2948   3.434   4.358   0.228
  981TIP3    H1 2949   3.455   4.416   0.301
  981TIP3    H2 2950   3.351   4.392   0.193
  982TIP3   OH2 2951   3.467   5.152   1.026
  982TIP3    H1 2952   3.465   5.105   1.109
  982TIP3    H2 2953   3.532   5.221   1.039
  983TIP3   OH2 2954   6.228   3.320   1.846
  983TIP3    H1 2955   6.209   3.400   1.796
  983TIP3    H2 2956   6.145   3.273   1.848
  984TIP3   OH2 2957   4.042   1.441   2.707
  984TIP3    H1 2958   4.116   1.404   2.660
  984TIP3    H2 2959   4.042   1.534   2.684
  985TIP3   OH2 2960   5.465   3.425   0.372
  985TIP3    H1 2961   5.520   3.362   0.326
  985TIP3    H2 2962   5.507   3.510   0.355
  986TIP3   OH2 2963   5.321   2.057   4.811
  986TIP3    H1 2964   5.308   2.151   4.800
  986TIP3    H2 2965   5.263   2.017   4.746
  987TIP3   OH2 2966   4.090   3.975   4.317
  987TIP3    H1 2967   4.143   3.896   4.303
  987TIP3    H2 2968   4.151   4.038   4.355
  988TIP3   OH2 2969   3.968   4.537   0.109
  988TIP3    H1 2970   3.966   4.455   0.157
  988TIP3    H2 2971   3.923   4.519   0.027
  989TIP3   OH2 2972   0.499   5.201   0.964
  989TIP3    H1 2973   0.556   5.252   0.908
  989TIP3    H2 2974   0.528   5.222   1.053
  990TIP3   OH2 2975   4.434   5.004   0.597
  990TIP3    H1 2976   4.353   4.980   0.641
  990TIP3    H2 2977   4.457   4.927   0.545
  991TIP3   OH2 2978   4.727   4.457   2.022
  991TIP3    H1 2979   4.743   4.446   2.116
  991TIP3    H2 2980   4.750   4.372   1.984
  992TIP3   OH2 2981   2.431   2.233   1.961
  992TIP3    H1 2982   2.345   2.191   1.966
  992TIP3    H2 2983   2.417   2.308   1.903
  993TIP3   OH2 2984   2.305   1.342   2.550
  993TIP3    H1 2985   2.310   1.312   2.459
  993TIP3    H2 2986   2.362   1.419   2.553
  994TIP3   OH2 2987   0.937   2.226   2.313
  994TIP3    H1 2988   0.958   2.160   2.247
  994TIP3    H2 2989   0.855   2.265   2.282
  995TIP3   OH2 2990   3.787   2.110   2.988
  995TIP3    H1 2991   3.809   2.055   2.913
  995TIP3    H2 2992   3.692   2.113   2.989
  996TIP3   OH2 2993   2.388   0.041   3.340
  996TIP3    H1 2994   2.410   0.093   3.416
  996TIP3    H2 2995   2.404   0.099   3.265
  997TIP3   OH2 2996   3.825   2.443   5.129
  997TIP3    H1 2997   3.823   2.398   5.045
  997TIP3    H2 2998   3.739   2.485   5.136
  998TIP3   OH2 2999   5.585   2.150   1.244
  998TIP3    H1 3000   5.534   2.219   1.286
  998TIP3    H2 3001   5.561   2.156   1.151
  999TIP3   OH2 3002   3.572   2.344   4.114
  999TIP3    H1 3003   3.621   2.382   4.041
  999TIP3    H2 3004   3.631   2.279   4.151
 1000TIP3   OH2 3005   1.781   3.133   2.887
 1000TIP3    H1 3006   1.873   3.153   2.869
 1000TIP3    H2 3007   1.779   3.108   2.979
 1001TIP3   OH2 3008   4.159   2.827   0.803
 1001TIP3    H1 3009   4.069   2.861   0.798
 1001TIP3    H2 3010   4.214   2.905   0.812
 1002TIP3   OH2 3011   1.024   4.476   0.911
 1002TIP3    H1 3012   0.934   4.458   0.884
 1002TIP3    H2 3013   1.054   4.544   0.850
 1003TIP3   OH2 3014   4.555   2.583   0.396
 1003TIP3    H1 3015   4.512   2.581   0.481
 1003TIP3    H2 3016   4.485   2.574   0.332
 1004TIP3   OH2 3017   4.172   5.006   1.595
 1004TIP3    H1 3018   4.092   4.960   1.623
 1004TIP3    H2 3019   4.180   4.986   1.502
 1005TIP3   OH2 3020   2.399   3.925   2.432
 1005TIP3    H1 3021   2.394   3.880   2.517
 1005TIP3    H2 3022   2.424   3.856   2.371
 1006TIP3   OH2 3023   4.853   4.773   1.171
 1006TIP3    H1 3024   4.855   4.814   1.085
 1006TIP3    H2 3025   4.874   4.681   1.154
 1007TIP3   OH2 3026   3.795   4.073   2.395
 1007TIP3    H1 3027   3.792   4.042   2.305
 1007TIP3    H2 3028   3.780   4.167   2.389
 1008TIP3   OH2 3029   2.158   5.298   0.033
 1008TIP3    H1 3030   2.067   5.320   0.011
 1008TIP3    H2 3031   2.209   5.369  -0.005
 1009TIP3   OH2 3032   1.549   1.839   3.312
 1009TIP3    H1 3033   1.636   1.798   3.311
 1009TIP3    H2 3034   1.492   1.775   3.268
 1010TIP3   OH2 3035   2.546   2.629   2.739
 1010TIP3    H1 3036   2.506   2.660   2.658
 1010TIP3    H2 3037   2.528   2.535   2.740
 1011TIP3   OH2 3038   4.793   0.583   1.057
 1011TIP3    H1 3039   4.865   0.601   1.117
 1011TIP3    H2 3040   4.820   0.504   1.010
 1012TIP3   OH2 3041   1.694   4.263   0.432
 1012TIP3    H1 3042   1.634   4.193   0.461
 1012TIP3    H2 3043   1.703   4.320   0.509
 1013TIP3   OH2 3044   4.503   2.977   2.987
 1013TIP3    H1 3045   4.460   2.939   2.911
 1013TIP3    H2 3046   4.535   2.902   3.037
 1014TIP3   OH2 3047   2.837   2.851   2.060
 1014TIP3    H1 3048   2.796   2.882   1.979
 1014TIP3    H2 3049   2.778   2.784   2.093
 1015TIP3   OH2 3050   0.970   5.052   0.042
 1015TIP3    H1 3051   0.952   4.984  -0.023
 1015TIP3    H2 3052   0.933   5.132   0.005
 1016TIP3   OH2 3053   2.711   4.225   1.836
 1016TIP3    H1 3054   2.785   4.164   1.837
 1016TIP3    H2 3055   2.735   4.291   1.772
 1017TIP3   OH2 3056   4.416   0.592   4.303
 1017TIP3    H1 3057   4.438   0.615   4.394
 1017TIP3    H2 3058   4.321   0.596   4.300
 1018TIP3   OH2 3059   0.173   1.514   3.266
 1018TIP3    H1 3060   0.207   1.540   3.351
 1018TIP3    H2 3061   0.119   1.589   3.239
 1019TIP3   OH2 3062   2.612   3.603   4.145
 1019TIP3    H1 3063   2.689   3.655   4.167
 1019TIP3    H2 3064   2.637   3.553   4.068
 1020TIP3   OH2 3065   1.593   3.934   4.130
 1020TIP3    H1 3066   1.610   4.029   4.129
 1020TIP3    H2 3067   1.680   3.895   4.120
 1021TIP3   OH2 3068   6.150   1.420   0.261
 1021TIP3    H1 3069   6.167   1.456   0.174
 1021TIP3    H2 3070   6.086   1.351   0.245
 1022TIP3   OH2 3071   2.551   1.897   0.037
 1022TIP3    H1 3072   2.578   1.891   0.129
 1022TIP3    H2 3073   2.487   1.968   0.035
 1023TIP3   OH2 3074   4.261   3.817   0.596
 1023TIP3    H1 3075   4.288   3.799   0.506
 1023TIP3    H2 3076   4.185   3.874   0.587
 1024TIP3   OH2 3077   3.533   4.718   4.510
 1024TIP3    H1 3078   3.499   4.802   4.479
 1024TIP3    H2 3079   3.503   4.654   4.445
 1025TIP3   OH2 3080   5.353   2.384   4.558
 1025TIP3    H1 3081   5.437   2.338   4.546
 1025TIP3    H2 3082   5.336   2.378   4.652
 1026TIP3   OH2 3083   1.703   2.447   2.543
 1026TIP3    H1 3084   1.653   2.516   2.501
 1026TIP3    H2 3085   1.731   2.389   2.472
 1027TIP3   OH2 3086   3.880   3.247   4.515
 1027TIP3    H1 3087   3.786   3.231   4.506
 1027TIP3    H2 3088   3.896   3.236   4.609
 1028TIP3   OH2 3089   2.957   2.568   1.514
 1028TIP3    H1 3090   2.996   2.647   1.476
 1028TIP3    H2 3091   3.008   2.496   1.475
 1029TIP3   OH2 3092   5.794   0.635   2.590
 1029TIP3    H1 3093   5.784   0.547   2.552
 1029TIP3    H2 3094   5.807   0.619   2.684
 1030TIP3   OH2 3095   6.005   4.140   1.006
 1030TIP3    H1 3096   5.974   4.049   1.002
 1030TIP3    H2 3097   6.044   4.156   0.920
 1031TIP3   OH2 3098   4.183   5.794   3.628
 1031TIP3    H1 3099   4.244   5.868   3.634
 1031TIP3    H2 3100   4.214   5.743   3.553
 1032TIP3   OH2 3101   1.693   5.845   4.453
 1032TIP3    H1 3102   1.704   5.825   4.360
 1032TIP3    H2 3103   1.630   5.781   4.484
 1033TIP3   OH2 3104   2.516   5.510   2.083
 1033TIP3    H1 3105   2.489   5.481   1.996
 1033TIP3    H2 3106   2.542   5.602   2.071
 1034TIP3   OH2 3107   6.326   4.473   0.110
 1034TIP3    H1 3108   6.239   4.440   0.086
 1034TIP3    H2 3109   6.325   4.475   0.206
 1035TIP3   OH2 3110   0.339   2.241   4.032
 1035TIP3    H1 3111   0.384   2.325   4.022
 1035TIP3    H2 3112   0.256   2.252   3.984
 1036TIP3   OH2 3113   1.588   5.339   3.481
 1036TIP3    H1 3114   1.588   5.280   3.406
 1036TIP3    H2 3115   1.672   5.386   3.474
 1037TIP3   OH2 3116   1.767   4.856   4.865
 1037TIP3    H1 3117   1.833   4.864   4.796
 1037TIP3    H2 3118   1.758   4.761   4.879
 1038TIP3   OH2 3119   1.058   3.509  -0.010
 1038TIP3    H1 3120   1.129   3.444  -0.009
 1038TIP3    H2 3121   1.009   3.493   0.070
 1039TIP3   OH2 3122   6.214   3.680   1.181
 1039TIP3    H1 3123   6.159   3.665   1.258
 1039TIP3    H2 3124   6.218   3.594   1.138
 1040TIP3   OH2 3125   0.385   5.957   1.253
 1040TIP3    H1 3126   0.315   6.004   1.208
 1040TIP3    H2 3127   0.402   6.009   1.332
 1041TIP3   OH2 3128   5.976   5.360   5.102
 1041TIP3    H1 3129   5.910   5.399   5.160
 1041TIP3    H2 3130   6.039   5.319   5.162
 1042TIP3   OH2 3131   4.302   3.482   2.664
 1042TIP3    H1 3132   4.252   3.422   2.719
 1042TIP3    H2 3133   4.381   3.502   2.715
 1043TIP3   OH2 3134   2.404   2.150   3.159
 1043TIP3    H1 3135   2.410   2.062   3.120
 1043TIP3    H2 3136   2.471   2.200   3.113
 1044TIP3   OH2 3137   2.209   2.178   2.832
 1044TIP3    H1 3138   2.168   2.094   2.852
 1044TIP3    H2 3139   2.136   2.239   2.827
 1045TIP3   OH2 3140   5.639   1.658   5.140
 1045TIP3    H1 3141   5.654   1.726   5.075
 1045TIP3    H2 3142   5.703   1.676   5.209
 1046TIP3   OH2 3143   6.035   1.429   4.041
 1046TIP3    H1 3144   6.057   1.416   3.949
 1046TIP3    H2 3145   6.029   1.524   4.051
 1047TIP3   OH2 3146   2.167   3.234   1.636
 1047TIP3    H1 3147   2.147   3.140   1.642
 1047TIP3    H2 3148   2.227   3.250   1.708
 1048TIP3   OH2 3149   0.688   0.459   2.040
 1048TIP3    H1 3150   0.680   0.412   2.123
 1048TIP3    H2 3151   0.674   0.392   1.973
 1049TIP3   OH2 3152   5.462   1.783   3.056
 1049TIP3    H1 3153   5.380   1.772   3.103
 1049TIP3    H2 3154   5.510   1.849   3.105
 1050TIP3   OH2 3155   1.128   4.817   1.119
 1050TIP3    H1 3156   1.123   4.805   1.024
 1050TIP3    H2 3157   1.104   4.909   1.133
 1051TIP3   OH2 3158   3.210   1.358   2.856
 1051TIP3    H1 3159   3.175   1.427   2.801
 1051TIP3    H2 3160   3.273   1.402   2.913
 1052TIP3   OH2 3161   5.206   5.692   1.796
 1052TIP3    H1 3162   5.148   5.710   1.870
 1052TIP3    H2 3163   5.283   5.651   1.834
 1053TIP3   OH2 3164   2.224   5.065   2.080
 1053TIP3    H1 3165   2.226   5.160   2.079
 1053TIP3    H2 3166   2.142   5.042   2.037
 1054TIP3   OH2 3167   3.659   5.741   4.375
 1054TIP3    H1 3168   3.582   5.699   4.338
 1054TIP3    H2 3169   3.638   5.754   4.467
 1055TIP3   OH2 3170   5.426   2.745   1.508
 1055TIP3    H1 3171   5.508   2.707   1.539
 1055TIP3    H2 3172   5.360   2.676   1.522
 1056TIP3   OH2 3173   4.309   5.943   1.810
 1056TIP3    H1 3174   4.297   5.927   1.904
 1056TIP3    H2 3175   4.400   5.918   1.793
 1057TIP3   OH2 3176   1.084   0.894   3.756
 1057TIP3    H1 3177   0.996   0.930   3.743
 1057TIP3    H2 3178   1.131   0.916   3.675
 1058TIP3   OH2 3179   2.727   3.523   1.361
 1058TIP3    H1 3180   2.662   3.522   1.292
 1058TIP3    H2 3181   2.710   3.444   1.412
 1059TIP3   OH2 3182   3.299   2.188   1.751
 1059TIP3    H1 3183   3.284   2.274   1.791
 1059TIP3    H2 3184   3.268   2.125   1.815
 1060TIP3   OH2 3185   5.767   3.039   1.799
 1060TIP3    H1 3186   5.697   3.055   1.862
 1060TIP3    H2 3187   5.840   3.007   1.852
 1061TIP3   OH2 3188   4.602   5.322   3.419
 1061TIP3    H1 3189   4.657   5.314   3.341
 1061TIP3    H2 3190   4.528   5.376   3.391
 1062TIP3   OH2 3191   4.445   2.502   3.208
 1062TIP3    H1 3192   4.481   2.414   3.196
 1062TIP3    H2 3193   4.510   2.547   3.262
 1063TIP3   OH2 3194   0.285   5.049   1.664
 1063TIP3    H1 3195   0.337   4.974   1.692
 1063TIP3    H2 3196   0.217   5.011   1.607
 1064TIP3   OH2 3197   3.773   0.052   4.843
 1064TIP3    H1 3198   3.686   0.049   4.805
 1064TIP3    H2 3199   3.759   0.068   4.937
 1065TIP3   OH2 3200   4.672   4.216   1.662
 1065TIP3    H1 3201   4.723   4.293   1.635
 1065TIP3    H2 3202   4.738   4.152   1.687
 1066TIP3   OH2 3203   4.406   2.573   2.375
 1066TIP3    H1 3204   4.380   2.481   2.375
 1066TIP3    H2 3205   4.413   2.596   2.468
 1067TIP3   OH2 3206   5.701   5.163   0.382
 1067TIP3    H1 3207   5.711   5.114   0.300
 1067TIP3    H2 3208   5.690   5.096   0.449
 1068TIP3   OH2 3209   1.695   1.603   0.910
 1068TIP3    H1 3210   1.686   1.555   0.828
 1068TIP3    H2 3211   1.764   1.556   0.957
 1069TIP3   OH2 3212   5.455   1.945   3.668
 1069TIP3    H1 3213   5.419   1.951   3.580
 1069TIP3    H2 3214   5.379   1.928   3.724
 1070TIP3   OH2 3215   5.198   3.056   3.543
 1070TIP3    H1 3216   5.118   3.096   3.509
 1070TIP3    H2 3217   5.208   3.094   3.630
 1071TIP3   OH2 3218   1.928   1.318   2.588
 1071TIP3    H1 3219   1.938   1.229   2.554
 1071TIP3    H2 3220   1.837   1.324   2.615
 1072TIP3   OH2 3221   4.498   0.131   3.316
 1072TIP3    H1 3222   4.513   0.222   3.343
 1072TIP3    H2 3223   4.466   0.137   3.226
 1073TIP3   OH2 3224   1.897   1.118   4.419
 1073TIP3    H1 3225   1.840   1.188   4.452
 1073TIP3    H2 3226   1.852   1.086   4.340
 1074TIP3   OH2 3227   1.612   4.529   3.995
 1074TIP3    H1 3228   1.677   4.548   4.063
 1074TIP3    H2 3229   1.602   4.434   3.997
 1075TIP3   OH2 3230   3.614   4.261   1.433
 1075TIP3    H1 3231   3.526   4.239   1.403
 1075TIP3    H2 3232   3.635   4.343   1.388
 1076TIP3   OH2 3233   3.335   4.637   3.205
 1076TIP3    H1 3234   3.309   4.664   3.117
 1076TIP3    H2 3235   3.420   4.595   3.194
 1077TIP3   OH2 3236   1.962   0.535   0.200
 1077TIP3    H1 3237   2.013   0.528   0.119
 1077TIP3    H2 3238   1.937   0.445   0.221
 1078TIP3   OH2 3239   5.009   1.740   1.324
 1078TIP3    H1 3240   5.090   1.692   1.302
 1078TIP3    H2 3241   4.957   1.678   1.374
 1079TIP3   OH2 3242   2.142   2.105   1.359
 1079TIP3    H1 3243   2.112   2.068   1.276
 1079TIP3    H2 3244   2.222   2.057   1.380
 1080TIP3   OH2 3245   5.735   5.921   0.362
 1080TIP3    H1 3246   5.830   5.932   0.361
 1080TIP3    H2 3247   5.718   5.867   0.440
 1081TIP3   OH2 3248   3.722   2.554   3.430
 1081TIP3    H1 3249   3.763   2.468   3.433
 1081TIP3    H2 3250   3.657   2.547   3.359
 1082TIP3   OH2 3251   3.428   1.497   2.145
 1082TIP3    H1 3252   3.440   1.565   2.212
 1082TIP3    H2 3253   3.481   1.528   2.071
 1083TIP3   OH2 3254   2.285   5.319   2.085
 1083TIP3    H1 3255   2.352   5.382   2.111
 1083TIP3    H2 3256   2.207   5.372   2.071
 1084TIP3   OH2 3257   3.904   4.280   0.232
 1084TIP3    H1 3258   3.869   4.208   0.285
 1084TIP3    H2 3259   3.849   4.279   0.153
 1085TIP3   OH2 3260   5.353   4.628   2.074
 1085TIP3    H1 3261   5.437   4.630   2.027
 1085TIP3    H2 3262   5.350   4.541   2.113
 1086TIP3   OH2 3263   0.520   3.694   2.498
 1086TIP3    H1 3264   0.593   3.754   2.483
 1086TIP3    H2 3265   0.555   3.608   2.472
 1087TIP3   OH2 3266   0.069   0.335   1.434
 1087TIP3    H1 3267   0.054   0.241   1.429
 1087TIP3    H2 3268  -0.018   0.373   1.445
 1088TIP3   OH2 3269   0.708   1.474   3.509
 1088TIP3    H1 3270   0.647   1.522   3.564
 1088TIP3    H2 3271   0.763   1.424   3.570
 1089TIP3   OH2 3272   4.945   0.127   3.765
 1089TIP3    H1 3273   4.888   0.174   3.703
 1089TIP3    H2 3274   4.885   0.073   3.817
 1090TIP3   OH2 3275   2.986   1.513   4.605
 1090TIP3    H1 3276   3.071   1.542   4.571
 1090TIP3    H2 3277   2.949   1.591   4.648
 1091TIP3   OH2 3278   2.050   1.838   3.116
 1091TIP3    H1 3279   2.045   1.875   3.204
 1091TIP3    H2 3280   1.958   1.823   3.091
 1092TIP3   OH2 3281   0.216   3.118   4.344
 1092TIP3    H1 3282   0.260   3.034   4.357
 1092TIP3    H2 3283   0.269   3.181   4.392
 1093TIP3   OH2 3284   3.223   0.792   3.898
 1093TIP3    H1 3285   3.146   0.774   3.843
 1093TIP3    H2 3286   3.292   0.814   3.836
 1094TIP3   OH2 3287   5.569   4.263   4.760
 1094TIP3    H1 3288   5.525   4.180   4.776
 1094TIP3    H2 3289   5.618   4.249   4.679
 1095TIP3   OH2 3290   6.307   3.445   3.420
 1095TIP3    H1 3291   6.384   3.397   3.450
 1095TIP3    H2 3292   6.279   3.495   3.497
 1096TIP3   OH2 3293   6.333   3.454   0.088
 1096TIP3    H1 3294   6.295   3.370   0.116
 1096TIP3    H2 3295   6.319   3.455  -0.007
 1097TIP3   OH2 3296   6.125   2.178   0.386
 1097TIP3    H1 3297   6.092   2.088   0.386
 1097TIP3    H2 3298   6.186   2.180   0.313
 1098TIP3   OH2 3299   3.181   0.220   1.934
 1098TIP3    H1 3300   3.162   0.299   1.883
 1098TIP3    H2 3301   3.254   0.179   1.888
 1099TIP3   OH2 3302   4.898   6.015   4.764
 1099TIP3    H1 3303   4.813   6.051   4.738
 1099TIP3    H2 3304   4.923   5.957   4.692
 1100TIP3   OH2 3305   5.387   1.864   4.350
 1100TIP3    H1 3306   5.444   1.817   4.411
 1100TIP3    H2 3307   5.372   1.802   4.279
 1101TIP3   OH2 3308   6.284   1.956   3.198
 1101TIP3    H1 3309   6.323   2.043   3.187
 1101TIP3    H2 3310   6.205   1.972   3.250
 1102TIP3   OH2 3311   2.583   4.638   0.885
 1102TIP3    H1 3312   2.602   4.692   0.962
 1102TIP3    H2 3313   2.666   4.633   0.838
 1103TIP3   OH2 3314   3.172   5.654   0.166
 1103TIP3    H1 3315   3.228   5.703   0.106
 1103TIP3    H2 3316   3.087   5.649   0.122
 1104TIP3   OH2 3317   5.999   2.570   2.462
 1104TIP3    H1 3318   5.913   2.611   2.456
 1104TIP3    H2 3319   5.985   2.480   2.431
 1105TIP3   OH2 3320   1.581   0.082   0.690
 1105TIP3    H1 3321   1.514   0.126   0.742
 1105TIP3    H2 3322   1.579   0.127   0.606
 1106TIP3   OH2 3323   1.896   2.685   2.557
 1106TIP3    H1 3324   1.846   2.605   2.571
 1106TIP3    H2 3325   1.845   2.753   2.602
 1107TIP3   OH2 3326   5.911   2.818   4.346
 1107TIP3    H1 3327   5.821   2.798   4.322
 1107TIP3    H2 3328   5.907   2.836   4.440
 1108TIP3   OH2 3329   6.193   5.459   4.150
 1108TIP3    H1 3330   6.150   5.395   4.094
 1108TIP3    H2 3331   6.133   5.534   4.152
 1109TIP3   OH2 3332   6.106   4.493   2.673
 1109TIP3    H1 3333   6.110   4.477   2.768
 1109TIP3    H2 3334   6.109   4.405   2.635
 1110TIP3   OH2 3335   5.830   4.440   5.151
 1110TIP3    H1 3336   5.920   4.472   5.152
 1110TIP3    H2 3337   5.803   4.448   5.060
 1111TIP3   OH2 3338   1.366   2.686   3.851
 1111TIP3    H1 3339   1.365   2.690   3.755
 1111TIP3    H2 3340   1.446   2.733   3.875
 1112TIP3   OH2 3341   3.677   1.866   3.141
 1112TIP3    H1 3342   3.753   1.911   3.178
 1112TIP3    H2 3343   3.668   1.787   3.194
 1113TIP3   OH2 3344   0.374   3.069   1.909
 1113TIP3    H1 3345   0.378   3.098   2.000
 1113TIP3    H2 3346   0.454   3.104   1.870
 1114TIP3   OH2 3347   2.299   1.399   1.774
 1114TIP3    H1 3348   2.292   1.372   1.683
 1114TIP3    H2 3349   2.328   1.320   1.820
 1115TIP3   OH2 3350   5.969   0.247   1.731
 1115TIP3    H1 3351   6.057   0.221   1.705
 1115TIP3    H2 3352   5.982   0.298   1.811
 1116TIP3   OH2 3353   3.801   1.212   3.696
 1116TIP3    H1 3354   3.790   1.301   3.731
 1116TIP3    H2 3355   3.888   1.186   3.725
 1117TIP3   OH2 3356   1.540   5.428   3.749
 1117TIP3    H1 3357   1.620   5.481   3.755
 1117TIP3    H2 3358   1.565   5.354   3.694
 1118TIP3   OH2 3359   4.725   0.849   0.079
 1118TIP3    H1 3360   4.636   0.815   0.065
 1118TIP3    H2 3361   4.767   0.785   0.137
 1119TIP3   OH2 3362   6.388   1.581   2.311
 1119TIP3    H1 3363   6.427   1.531   2.239
 1119TIP3    H2 3364   6.313   1.528   2.339
 1120TIP3   OH2 3365   5.108   4.370   2.036
 1120TIP3    H1 3366   5.104   4.362   2.131
 1120TIP3    H2 3367   5.019   4.351   2.006
 1121TIP3   OH2 3368   2.577   1.086   3.023
 1121TIP3    H1 3369   2.490   1.121   3.041
 1121TIP3    H2 3370   2.629   1.163   3.001
 1122TIP3   OH2 3371   1.494   0.371   3.490
 1122TIP3    H1 3372   1.446   0.450   3.466
 1122TIP3    H2 3373   1.462   0.305   3.429
 1123TIP3   OH2 3374   0.962   3.925   3.818
 1123TIP3    H1 3375   0.889   3.924   3.756
 1123TIP3    H2 3376   1.021   3.857   3.786
 1124TIP3   OH2 3377   6.244   2.874   1.147
 1124TIP3    H1 3378   6.267   2.804   1.207
 1124TIP3    H2 3379   6.173   2.838   1.093
 1125TIP3   OH2 3380   3.081   5.102   4.273
 1125TIP3    H1 3381   3.131   5.171   4.316
 1125TIP3    H2 3382   3.026   5.065   4.342
 1126TIP3   OH2 3383   5.798   1.759   1.471
 1126TIP3    H1 3384   5.767   1.670   1.488
 1126TIP3    H2 3385   5.874   1.748   1.414
 1127TIP3   OH2 3386   0.377   1.118   4.344
 1127TIP3    H1 3387   0.415   1.130   4.431
 1127TIP3    H2 3388   0.451   1.093   4.289
 1128TIP3   OH2 3389   1.793   0.422   4.300
 1128TIP3    H1 3390   1.752   0.351   4.251
 1128TIP3    H2 3391   1.795   0.391   4.390
 1129TIP3   OH2 3392   3.874   5.886   1.650
 1129TIP3    H1 3393   3.961   5.848   1.661
 1129TIP3    H2 3394   3.817   5.811   1.631
 1130TIP3   OH2 3395   0.469   5.364   3.648
 1130TIP3    H1 3396   0.536   5.311   3.691
 1130TIP3    H2 3397   0.504   5.453   3.647
 1131TIP3   OH2 3398   0.392   2.872   4.387
 1131TIP3    H1 3399   0.418   2.916   4.306
 1131TIP3    H2 3400   0.446   2.794   4.391
 1132TIP3   OH2 3401   5.396   2.510   2.746
 1132TIP3    H1 3402   5.387   2.488   2.653
 1132TIP3    H2 3403   5.428   2.600   2.746
 1133TIP3   OH2 3404   2.550   1.500   1.991
 1133TIP3    H1 3405   2.611   1.571   1.968
 1133TIP3    H2 3406   2.545   1.502   2.087
 1134TIP3   OH2 3407   5.720   2.227   0.112
 1134TIP3    H1 3408   5.711   2.202   0.020
 1134TIP3    H2 3409   5.632   2.215   0.148
 1135TIP3   OH2 3410   0.619   3.475   4.051
 1135TIP3    H1 3411   0.689   3.434   4.101
 1135TIP3    H2 3412   0.663   3.514   3.975
 1136TIP3   OH2 3413   5.228   0.232   3.782
 1136TIP3    H1 3414   5.138   0.226   3.750
 1136TIP3    H2 3415   5.219   0.223   3.877
 1137TIP3   OH2 3416   4.702   4.078   2.300
 1137TIP3    H1 3417   4.796   4.068   2.286
 1137TIP3    H2 3418   4.670   3.989   2.315
 1138TIP3   OH2 3419   3.652   3.379   1.915
 1138TIP3    H1 3420   3.658   3.435   1.993
 1138TIP3    H2 3421   3.582   3.317   1.935
 1139TIP3   OH2 3422   3.451   2.360   2.484
 1139TIP3    H1 3423   3.492   2.446   2.499
 1139TIP3    H2 3424   3.469   2.311   2.565
 1140TIP3   OH2 3425   3.535   2.568   3.208
 1140TIP3    H1 3426   3.474   2.625   3.255
 1140TIP3    H2 3427   3.496   2.481   3.213
 1141TIP3   OH2 3428   1.847   0.331   1.927
 1141TIP3    H1 3429   1.858   0.293   2.015
 1141TIP3    H2 3430   1.821   0.257   1.873
 1142TIP3   OH2 3431   3.885   5.540   1.767
 1142TIP3    H1 3432   3.954   5.602   1.792
 1142TIP3    H2 3433   3.918   5.499   1.687
 1143TIP3   OH2 3434   5.514   5.804   4.525
 1143TIP3    H1 3435   5.547   5.831   4.439
 1143TIP3    H2 3436   5.429   5.765   4.506
 1144TIP3   OH2 3437   3.855   4.089   3.843
 1144TIP3    H1 3438   3.892   4.081   3.932
 1144TIP3    H2 3439   3.854   3.999   3.810
 1145TIP3   OH2 3440   1.171   0.054   3.150
 1145TIP3    H1 3441   1.176   0.148   3.171
 1145TIP3    H2 3442   1.080   0.031   3.166
 1146TIP3   OH2 3443   5.450  -0.020   3.011
 1146TIP3    H1 3444   5.451   0.075   3.017
 1146TIP3    H2 3445   5.485  -0.050   3.095
 1147TIP3   OH2 3446   4.772   0.146   4.311
 1147TIP3    H1 3447   4.859   0.108   4.300
 1147TIP3    H2 3448   4.721   0.077   4.354
 1148TIP3   OH2 3449   1.126   2.481   2.794
 1148TIP3    H1 3450   1.168   2.413   2.847
 1148TIP3    H2 3451   1.063   2.433   2.740
 1149TIP3   OH2 3452   3.899   0.939   3.408
 1149TIP3    H1 3453   3.987   0.950   3.444
 1149TIP3    H2 3454   3.889   0.844   3.399
 1150TIP3   OH2 3455   5.651   4.002   4.377
 1150TIP3    H1 3456   5.682   4.028   4.290
 1150TIP3    H2 3457   5.640   4.085   4.424
 1151TIP3   OH2 3458   3.058   3.955   3.260
 1151TIP3    H1 3459   3.038   4.028   3.319
 1151TIP3    H2 3460   3.122   3.990   3.198
 1152TIP3   OH2 3461   4.911   0.586   4.659
 1152TIP3    H1 3462   4.981   0.638   4.698
 1152TIP3    H2 3463   4.918   0.500   4.701
 1153TIP3   OH2 3464   5.926   4.907   0.985
 1153TIP3    H1 3465   5.978   4.986   0.973
 1153TIP3    H2 3466   5.989   4.842   1.016
 1154TIP3   OH2 3467   4.245   2.108   0.350
 1154TIP3    H1 3468   4.250   2.183   0.291
 1154TIP3    H2 3469   4.251   2.146   0.438
 1155TIP3   OH2 3470   0.496   2.943   3.820
 1155TIP3    H1 3471   0.415   2.892   3.827
 1155TIP3    H2 3472   0.565   2.879   3.837
 1156TIP3   OH2 3473   2.832   3.430   4.351
 1156TIP3    H1 3474   2.795   3.342   4.338
 1156TIP3    H2 3475   2.804   3.455   4.438
 1157TIP3   OH2 3476   5.918   2.945   4.591
 1157TIP3    H1 3477   5.908   2.940   4.687
 1157TIP3    H2 3478   6.009   2.973   4.578
 1158TIP3   OH2 3479   4.036   5.245   0.746
 1158TIP3    H1 3480   4.106   5.186   0.773
 1158TIP3    H2 3481   4.049   5.324   0.799
 1159TIP3   OH2 3482   1.754   4.410   5.069
 1159TIP3    H1 3483   1.677   4.411   5.125
 1159TIP3    H2 3484   1.823   4.449   5.123
 1160TIP3   OH2 3485   1.282   5.296   0.484
 1160TIP3    H1 3486   1.322   5.236   0.546
 1160TIP3    H2 3487   1.314   5.382   0.509
 1161TIP3   OH2 3488   2.034   1.824   3.911
 1161TIP3    H1 3489   1.995   1.810   3.825
 1161TIP3    H2 3490   1.963   1.861   3.964
 1162TIP3   OH2 3491   1.374   3.587   1.901
 1162TIP3    H1 3492   1.413   3.542   1.976
 1162TIP3    H2 3493   1.325   3.519   1.855
 1163TIP3   OH2 3494   2.770   0.410   2.708
 1163TIP3    H1 3495   2.830   0.468   2.662
 1163TIP3    H2 3496   2.686   0.457   2.708
 1164TIP3   OH2 3497   0.435   1.894   3.880
 1164TIP3    H1 3498   0.408   1.899   3.972
 1164TIP3    H2 3499   0.368   1.945   3.833
 1165TIP3   OH2 3500   0.348   4.584   0.155
 1165TIP3    H1 3501   0.289   4.558   0.226
 1165TIP3    H2 3502   0.418   4.633   0.197
 1166TIP3   OH2 3503   1.746   2.332   0.836
 1166TIP3    H1 3504   1.779   2.420   0.818
 1166TIP3    H2 3505   1.651   2.339   0.830
 1167TIP3   OH2 3506   1.959   1.489   4.042
 1167TIP3    H1 3507   1.973   1.520   3.952
 1167TIP3    H2 3508   2.029   1.426   4.057
 1168TIP3   OH2 3509   3.766   5.020   4.945
 1168TIP3    H1 3510   3.686   5.030   4.894
 1168TIP3    H2 3511   3.737   5.022   5.036
 1169TIP3   OH2 3512   3.101   2.009   4.906
 1169TIP3    H1 3513   3.160   1.937   4.881
 1169TIP3    H2 3514   3.069   2.044   4.823
 1170TIP3   OH2 3515   6.140   1.385   1.474
 1170TIP3    H1 3516   6.045   1.371   1.469
 1170TIP3    H2 3517   6.167   1.334   1.550
 1171TIP3   OH2 3518   5.272   3.823   3.880
 1171TIP3    H1 3519   5.339   3.788   3.939
 1171TIP3    H2 3520   5.285   3.776   3.798
 1172TIP3   OH2 3521   6.183   1.469   3.480
 1172TIP3    H1 3522   6.110   1.444   3.424
 1172TIP3    H2 3523   6.181   1.565   3.481
 1173TIP3   OH2 3524   4.702   3.790   4.901
 1173TIP3    H1 3525   4.652   3.763   4.823
 1173TIP3    H2 3526   4.789   3.810   4.867
 1174TIP3   OH2 3527   0.693   5.136   2.607
 1174TIP3    H1 3528   0.714   5.046   2.581
 1174TIP3    H2 3529   0.616   5.127   2.664
 1175TIP3   OH2 3530   4.737   1.571   1.372
 1175TIP3    H1 3531   4.715   1.552   1.280
 1175TIP3    H2 3532   4.658   1.549   1.421
 1176TIP3   OH2 3533   2.047   2.754   2.340
 1176TIP3    H1 3534   1.967   2.729   2.385
 1176TIP3    H2 3535   2.056   2.690   2.269
 1177TIP3   OH2 3536   3.091   2.830   4.204
 1177TIP3    H1 3537   3.035   2.777   4.260
 1177TIP3    H2 3538   3.178   2.821   4.242
 1178TIP3   OH2 3539   0.934   2.564   3.364
 1178TIP3    H1 3540   0.846   2.582   3.397
 1178TIP3    H2 3541   0.984   2.643   3.386
 1179TIP3   OH2 3542   0.631   3.570   3.626
 1179TIP3    H1 3543   0.537   3.554   3.617
 1179TIP3    H2 3544   0.643   3.586   3.720
 1180TIP3   OH2 3545   1.688   5.394   0.292
 1180TIP3    H1 3546   1.712   5.326   0.229
 1180TIP3    H2 3547   1.752   5.463   0.278
 1181TIP3   OH2 3548   3.438   5.569   4.309
 1181TIP3    H1 3549   3.462   5.564   4.402
 1181TIP3    H2 3550   3.433   5.478   4.281
 1182TIP3   OH2 3551   2.507   5.660   2.994
 1182TIP3    H1 3552   2.421   5.699   3.008
 1182TIP3    H2 3553   2.492   5.566   3.003
 1183TIP3   OH2 3554   4.153   0.047   2.657
 1183TIP3    H1 3555   4.134   0.063   2.564
 1183TIP3    H2 3556   4.119   0.124   2.702
 1184TIP3   OH2 3557   1.518   4.345   1.385
 1184TIP3    H1 3558   1.449   4.392   1.431
 1184TIP3    H2 3559   1.474   4.308   1.308
 1185TIP3   OH2 3560   1.990   3.482   2.454
 1185TIP3    H1 3561   2.022   3.407   2.404
 1185TIP3    H2 3562   1.931   3.527   2.394
 1186TIP3   OH2 3563   1.162   2.540   3.563
 1186TIP3    H1 3564   1.257   2.545   3.566
 1186TIP3    H2 3565   1.135   2.628   3.535
 1187TIP3   OH2 3566   5.742   0.609   2.030
 1187TIP3    H1 3567   5.722   0.700   2.005
 1187TIP3    H2 3568   5.743   0.610   2.125
 1188TIP3   OH2 3569   2.317   4.329   0.982
 1188TIP3    H1 3570   2.225   4.336   1.008
 1188TIP3    H2 3571   2.344   4.419   0.966
 1189TIP3   OH2 3572   5.180   1.209   1.155
 1189TIP3    H1 3573   5.121   1.215   1.230
 1189TIP3    H2 3574   5.263   1.179   1.192
 1190TIP3   OH2 3575   3.739   4.715   1.668
 1190TIP3    H1 3576   3.664   4.750   1.717
 1190TIP3    H2 3577   3.722   4.739   1.577
 1191TIP3   OH2 3578   4.628   1.409   0.889
 1191TIP3    H1 3579   4.628   1.319   0.921
 1191TIP3    H2 3580   4.536   1.432   0.879
 1192TIP3   OH2 3581   2.625   4.682   2.862
 1192TIP3    H1 3582   2.539   4.709   2.896
 1192TIP3    H2 3583   2.605   4.635   2.781
 1193TIP3   OH2 3584   1.367   4.186   2.609
 1193TIP3    H1 3585   1.461   4.191   2.629
 1193TIP3    H2 3586   1.324   4.227   2.684
 1194TIP3   OH2 3587   5.760   5.339   4.244
 1194TIP3    H1 3588   5.738   5.378   4.159
 1194TIP3    H2 3589   5.783   5.248   4.224
 1195TIP3   OH2 3590   6.332   4.347   3.109
 1195TIP3    H1 3591   6.309   4.347   3.202
 1195TIP3    H2 3592   6.410   4.292   3.103
 1196TIP3   OH2 3593   5.831   1.323   3.118
 1196TIP3    H1 3594   5.751   1.373   3.102
 1196TIP3    H2 3595   5.868   1.310   3.031
 1197TIP3   OH2 3596   4.908   2.566   2.910
 1197TIP3    H1 3597   4.958   2.536   2.986
 1197TIP3    H2 3598   4.973   2.613   2.857
 1198TIP3   OH2 3599   5.890   5.813   2.137
 1198TIP3    H1 3600   5.821   5.871   2.104
 1198TIP3    H2 3601   5.847   5.760   2.204
 1199TIP3   OH2 3602   1.096   1.120   3.961
 1199TIP3    H1 3603   1.087   1.107   3.866
 1199TIP3    H2 3604   1.068   1.037   3.998
 1200TIP3   OH2 3605   4.608   5.105   5.005
 1200TIP3    H1 3606   4.659   5.156   5.067
 1200TIP3    H2 3607   4.524   5.090   5.050
 1201TIP3   OH2 3608   0.974   5.067   2.729
 1201TIP3    H1 3609   0.907   5.114   2.679
 1201TIP3    H2 3610   0.959   5.093   2.820
 1202TIP3   OH2 3611   5.724   0.624   2.301
 1202TIP3    H1 3612   5.774   0.684   2.357
 1202TIP3    H2 3613   5.754   0.537   2.326
 1203TIP3   OH2 3614   0.045   2.501   3.792
 1203TIP3    H1 3615   0.037   2.508   3.888
 1203TIP3    H2 3616  -0.011   2.428   3.768
 1204TIP3   OH2 3617   3.923   2.726   1.094
 1204TIP3    H1 3618   3.909   2.801   1.036
 1204TIP3    H2 3619   3.857   2.662   1.067
 1205TIP3   OH2 3620   3.070   1.607   0.562
 1205TIP3    H1 3621   3.022   1.545   0.507
 1205TIP3    H2 3622   3.007   1.630   0.631
 1206TIP3   OH2 3623   2.065   1.245   3.332
 1206TIP3    H1 3624   2.109   1.262   3.249
 1206TIP3    H2 3625   2.057   1.149   3.335
 1207TIP3   OH2 3626   4.849   3.489   3.450
 1207TIP3    H1 3627   4.873   3.402   3.420
 1207TIP3    H2 3628   4.864   3.488   3.544
 1208TIP3   OH2 3629   5.499   5.104   0.910
 1208TIP3    H1 3630   5.441   5.139   0.842
 1208TIP3    H2 3631   5.586   5.104   0.870
 1209TIP3   OH2 3632   1.829   0.928   3.670
 1209TIP3    H1 3633   1.859   0.925   3.579
 1209TIP3    H2 3634   1.890   0.986   3.714
 1210TIP3   OH2 3635   3.147   3.958   1.971
 1210TIP3    H1 3636   3.183   4.044   1.952
 1210TIP3    H2 3637   3.188   3.900   1.906
 1211TIP3   OH2 3638   0.128   0.587   3.833
 1211TIP3    H1 3639   0.154   0.512   3.886
 1211TIP3    H2 3640   0.060   0.552   3.775
 1212TIP3   OH2 3641   2.943   2.506   1.790
 1212TIP3    H1 3642   2.945   2.538   1.700
 1212TIP3    H2 3643   3.020   2.546   1.831
 1213TIP3   OH2 3644   1.064   4.948   0.589
 1213TIP3    H1 3645   1.075   5.006   0.515
 1213TIP3    H2 3646   1.123   4.875   0.571
 1214TIP3   OH2 3647   0.150   1.573   3.757
 1214TIP3    H1 3648   0.226   1.560   3.813
 1214TIP3    H2 3649   0.121   1.485   3.734
 1215TIP3   OH2 3650   6.011   4.778   5.169
 1215TIP3    H1 3651   5.926   4.800   5.208
 1215TIP3    H2 3652   6.059   4.861   5.166
 1216TIP3   OH2 3653   2.701   0.846   1.209
 1216TIP3    H1 3654   2.722   0.755   1.229
 1216TIP3    H2 3655   2.763   0.870   1.139
 1217TIP3   OH2 3656   0.755   3.916   3.148
 1217TIP3    H1 3657   0.845   3.885   3.138
 1217TIP3    H2 3658   0.732   3.895   3.238
 1218TIP3   OH2 3659   5.441   0.990   4.350
 1218TIP3    H1 3660   5.464   0.948   4.268
 1218TIP3    H2 3661   5.515   0.973   4.408
 1219TIP3   OH2 3662   2.021   1.540   2.728
 1219TIP3    H1 3663   1.987   1.454   2.701
 1219TIP3    H2 3664   2.000   1.545   2.821
 1220TIP3   OH2 3665   5.332   1.937   0.253
 1220TIP3    H1 3666   5.310   2.017   0.301
 1220TIP3    H2 3667   5.251   1.912   0.209
 1221TIP3   OH2 3668   5.683   5.054   2.486
 1221TIP3    H1 3669   5.627   5.021   2.557
 1221TIP3    H2 3670   5.622   5.089   2.422
 1222TIP3   OH2 3671   1.761   4.013   2.760
 1222TIP3    H1 3672   1.707   4.089   2.779
 1222TIP3    H2 3673   1.806   3.993   2.842
 1223TIP3   OH2 3674   1.484   1.655   4.627
 1223TIP3    H1 3675   1.478   1.661   4.722
 1223TIP3    H2 3676   1.578   1.658   4.608
 1224TIP3   OH2 3677   3.410   0.184   3.150
 1224TIP3    H1 3678   3.401   0.238   3.228
 1224TIP3    H2 3679   3.497   0.204   3.117
 1225TIP3   OH2 3680   1.246   0.916   2.826
 1225TIP3    H1 3681   1.194   0.914   2.746
 1225TIP3    H2 3682   1.312   0.984   2.809
 1226TIP3   OH2 3683   6.289   2.797   3.584
 1226TIP3    H1 3684   6.318   2.718   3.630
 1226TIP3    H2 3685   6.223   2.835   3.642
 1227TIP3   OH2 3686   4.267   4.795   0.381
 1227TIP3    H1 3687   4.187   4.812   0.430
 1227TIP3    H2 3688   4.245   4.816   0.290
 1228TIP3   OH2 3689   3.947   4.121   1.838
 1228TIP3    H1 3690   4.002   4.196   1.815
 1228TIP3    H2 3691   3.862   4.142   1.798
 1229TIP3   OH2 3692   0.235   1.300   2.686
 1229TIP3    H1 3693   0.175   1.256   2.747
 1229TIP3    H2 3694   0.184   1.313   2.607
 1230TIP3   OH2 3695   1.079   2.071   4.867
 1230TIP3    H1 3696   1.066   1.982   4.901
 1230TIP3    H2 3697   1.133   2.059   4.789
 1231TIP3   OH2 3698   5.109   2.219   4.177
 1231TIP3    H1 3699   5.145   2.258   4.256
 1231TIP3    H2 3700   5.149   2.269   4.105
 1232TIP3   OH2 3701   3.241   5.332   1.076
 1232TIP3    H1 3702   3.304   5.283   1.022
 1232TIP3    H2 3703   3.292   5.364   1.150
 1233TIP3   OH2 3704   3.840   1.089   0.491
 1233TIP3    H1 3705   3.847   1.151   0.564
 1233TIP3    H2 3706   3.928   1.051   0.484
 1234TIP3   OH2 3707   3.558   5.748   5.013
 1234TIP3    H1 3708   3.534   5.670   4.963
 1234TIP3    H2 3709   3.488   5.757   5.077
 1235TIP3   OH2 3710   3.921   0.436   5.000
 1235TIP3    H1 3711   3.869   0.454   4.922
 1235TIP3    H2 3712   3.933   0.522   5.041
 1236TIP3   OH2 3713   3.473   4.315   0.919
 1236TIP3    H1 3714   3.404   4.353   0.864
 1236TIP3    H2 3715   3.439   4.324   1.008
 1237TIP3   OH2 3716   3.010   5.439   2.640
 1237TIP3    H1 3717   3.003   5.361   2.695
 1237TIP3    H2 3718   2.919   5.463   2.622
 1238TIP3   OH2 3719   4.512   5.591   2.225
 1238TIP3    H1 3720   4.453   5.538   2.279
 1238TIP3    H2 3721   4.547   5.657   2.285
 1239TIP3   OH2 3722   2.301   2.056   3.992
 1239TIP3    H1 3723   2.386   2.030   4.027
 1239TIP3    H2 3724   2.261   1.974   3.962
 1240TIP3   OH2 3725   0.156   1.010   2.542
 1240TIP3    H1 3726   0.139   1.054   2.625
 1240TIP3    H2 3727   0.133   1.074   2.475
 1241TIP3   OH2 3728   2.034   0.827   1.588
 1241TIP3    H1 3729   2.036   0.754   1.527
 1241TIP3    H2 3730   1.949   0.819   1.633
 1242TIP3   OH2 3731   0.836   5.639   1.642
 1242TIP3    H1 3732   0.800   5.550   1.636
 1242TIP3    H2 3733   0.841   5.669   1.551
 1243TIP3   OH2 3734   3.981   2.414   0.176
 1243TIP3    H1 3735   3.993   2.509   0.168
 1243TIP3    H2 3736   4.066   2.377   0.152
 1244TIP3   OH2 3737   2.028   3.299   3.911
 1244TIP3    H1 3738   2.112   3.254   3.909
 1244TIP3    H2 3739   1.977   3.254   3.978
 1245TIP3   OH2 3740   4.933   0.048   1.690
 1245TIP3    H1 3741   4.954  -0.030   1.637
 1245TIP3    H2 3742   4.905   0.113   1.626
 1246TIP3   OH2 3743   5.830   2.186   3.305
 1246TIP3    H1 3744   5.850   2.133   3.382
 1246TIP3    H2 3745   5.857   2.275   3.328
 1247TIP3   OH2 3746   3.466   0.499   2.475
 1247TIP3    H1 3747   3.383   0.455   2.458
 1247TIP3    H2 3748   3.472   0.504   2.571
 1248TIP3   OH2 3749   3.060   3.479   2.686
 1248TIP3    H1 3750   2.979   3.453   2.730
 1248TIP3    H2 3751   3.033   3.550   2.628
 1249TIP3   OH2 3752   4.703   0.852   3.568
 1249TIP3    H1 3753   4.659   0.843   3.483
 1249TIP3    H2 3754   4.713   0.762   3.599
 1250TIP3   OH2 3755   4.186   0.432   4.389
 1250TIP3    H1 3756   4.255   0.381   4.346
 1250TIP3    H2 3757   4.190   0.406   4.481
 1251TIP3   OH2 3758   3.246   5.647   1.379
 1251TIP3    H1 3759   3.152   5.631   1.380
 1251TIP3    H2 3760   3.258   5.717   1.314
 1252TIP3   OH2 3761   5.123   0.325   2.561
 1252TIP3    H1 3762   5.218   0.327   2.565
 1252TIP3    H2 3763   5.099   0.236   2.586
 1253TIP3   OH2 3764   1.029   5.703   1.165
 1253TIP3    H1 3765   1.096   5.753   1.120
 1253TIP3    H2 3766   1.077   5.640   1.218
 1254TIP3   OH2 3767   0.140   1.466   1.017
 1254TIP3    H1 3768   0.224   1.512   1.017
 1254TIP3    H2 3769   0.151   1.396   1.081
 1255TIP3   OH2 3770   6.164   3.065   4.553
 1255TIP3    H1 3771   6.172   3.126   4.626
 1255TIP3    H2 3772   6.222   2.992   4.576
 1256TIP3   OH2 3773   2.197   0.053   1.561
 1256TIP3    H1 3774   2.167   0.135   1.601
 1256TIP3    H2 3775   2.164  -0.015   1.620
 1257TIP3   OH2 3776   1.176   1.419   3.019
 1257TIP3    H1 3777   1.217   1.352   2.963
 1257TIP3    H2 3778   1.186   1.501   2.970
 1258TIP3   OH2 3779   2.614   4.278   4.669
 1258TIP3    H1 3780   2.566   4.341   4.615
 1258TIP3    H2 3781   2.707   4.297   4.652
 1259TIP3   OH2 3782   5.844   3.442   0.120
 1259TIP3    H1 3783   5.819   3.351   0.107
 1259TIP3    H2 3784   5.919   3.438   0.180
 1260TIP3   OH2 3785   5.509   1.099   0.712
 1260TIP3    H1 3786   5.424   1.060   0.733
 1260TIP3    H2 3787   5.524   1.076   0.621
 1261TIP3   OH2 3788   0.814   5.917   5.125
 1261TIP3    H1 3789   0.870   5.841   5.111
 1261TIP3    H2 3790   0.860   5.989   5.082
 1262TIP3   OH2 3791   1.091   5.422   1.214
 1262TIP3    H1 3792   1.085   5.398   1.306
 1262TIP3    H2 3793   1.172   5.381   1.183
 1263TIP3   OH2 3794   3.098   3.418   0.143
 1263TIP3    H1 3795   3.052   3.344   0.185
 1263TIP3    H2 3796   3.187   3.414   0.179
 1264TIP3   OH2 3797   2.602   2.743   0.985
 1264TIP3    H1 3798   2.604   2.820   0.929
 1264TIP3    H2 3799   2.685   2.746   1.033
 1265TIP3   OH2 3800   1.942   2.122   1.859
 1265TIP3    H1 3801   1.901   2.204   1.832
 1265TIP3    H2 3802   1.908   2.106   1.947
 1266TIP3   OH2 3803   0.457   5.955   0.860
 1266TIP3    H1 3804   0.539   5.990   0.897
 1266TIP3    H2 3805   0.425   5.895   0.927
 1267TIP3   OH2 3806   3.487   0.790   1.193
 1267TIP3    H1 3807   3.477   0.695   1.201
 1267TIP3    H2 3808   3.552   0.802   1.124
 1268TIP3   OH2 3809   5.696   0.681   3.923
 1268TIP3    H1 3810   5.749   0.748   3.880
 1268TIP3    H2 3811   5.724   0.682   4.014
 1269TIP3   OH2 3812   1.249   4.319   5.051
 1269TIP3    H1 3813   1.267   4.245   5.108
 1269TIP3    H2 3814   1.189   4.374   5.101
 1270TIP3   OH2 3815   1.844   4.893   3.694
 1270TIP3    H1 3816   1.837   4.968   3.753
 1270TIP3    H2 3817   1.936   4.892   3.668
 1271TIP3   OH2 3818   3.789   1.968   2.459
 1271TIP3    H1 3819   3.771   1.960   2.365
 1271TIP3    H2 3820   3.716   2.021   2.493
 1272TIP3   OH2 3821   6.309   2.616   2.508
 1272TIP3    H1 3822   6.245   2.662   2.562
 1272TIP3    H2 3823   6.363   2.568   2.571
 1273TIP3   OH2 3824   0.902   5.326   2.228
 1273TIP3    H1 3825   0.854   5.309   2.310
 1273TIP3    H2 3826   0.834   5.327   2.161
 1274TIP3   OH2 3827   0.335   0.552   4.122
 1274TIP3    H1 3828   0.378   0.585   4.042
 1274TIP3    H2 3829   0.376   0.467   4.137
 1275TIP3   OH2 3830   3.297   1.699   0.897
 1275TIP3    H1 3831   3.239   1.746   0.957
 1275TIP3    H2 3832   3.381   1.695   0.942
 1276TIP3   OH2 3833   3.774   2.128   0.145
 1276TIP3    H1 3834   3.716   2.176   0.087
 1276TIP3    H2 3835   3.789   2.186   0.219
 1277TIP3   OH2 3836   5.969   3.871   2.308
 1277TIP3    H1 3837   6.042   3.911   2.355
 1277TIP3    H2 3838   5.999   3.865   2.217
 1278TIP3   OH2 3839   4.796   0.503   0.642
 1278TIP3    H1 3840   4.759   0.553   0.714
 1278TIP3    H2 3841   4.772   0.552   0.563
 1279TIP3   OH2 3842   2.736   0.504   4.413
 1279TIP3    H1 3843   2.683   0.491   4.491
 1279TIP3    H2 3844   2.760   0.597   4.416
 1280TIP3   OH2 3845   0.577   1.939   0.443
 1280TIP3    H1 3846   0.570   1.918   0.349
 1280TIP3    H2 3847   0.669   1.923   0.464
 1281TIP3   OH2 3848   5.332   0.569   3.897
 1281TIP3    H1 3849   5.337   0.503   3.967
 1281TIP3    H2 3850   5.390   0.537   3.829
 1282TIP3   OH2 3851   4.967   2.346   0.837
 1282TIP3    H1 3852   5.062   2.341   0.834
 1282TIP3    H2 3853   4.938   2.294   0.762
 1283TIP3   OH2 3854   5.320   0.145   2.099
 1283TIP3    H1 3855   5.338   0.206   2.170
 1283TIP3    H2 3856   5.406   0.124   2.062
 1284TIP3   OH2 3857   0.820   2.032   0.956
 1284TIP3    H1 3858   0.841   2.116   0.997
 1284TIP3    H2 3859   0.855   2.039   0.867
 1285TIP3   OH2 3860   3.099   0.545   2.069
 1285TIP3    H1 3861   3.161   0.550   2.142
 1285TIP3    H2 3862   3.107   0.456   2.035
 1286TIP3   OH2 3863   4.792   1.814   4.012
 1286TIP3    H1 3864   4.710   1.766   4.018
 1286TIP3    H2 3865   4.855   1.762   4.063
 1287TIP3   OH2 3866   3.110   1.133   3.604
 1287TIP3    H1 3867   3.040   1.100   3.547
 1287TIP3    H2 3868   3.066   1.155   3.686
 1288TIP3   OH2 3869   5.030   1.555   3.923
 1288TIP3    H1 3870   4.985   1.564   4.007
 1288TIP3    H2 3871   4.962   1.567   3.857
 1289TIP3   OH2 3872   5.606   1.168   0.419
 1289TIP3    H1 3873   5.594   1.256   0.384
 1289TIP3    H2 3874   5.691   1.140   0.383
 1290TIP3   OH2 3875   2.347   2.984   1.580
 1290TIP3    H1 3876   2.412   2.969   1.511
 1290TIP3    H2 3877   2.274   2.927   1.557
 1291TIP3   OH2 3878   5.072   5.684   1.048
 1291TIP3    H1 3879   5.158   5.656   1.017
 1291TIP3    H2 3880   5.063   5.644   1.135
 1292TIP3   OH2 3881   5.671   3.158   2.998
 1292TIP3    H1 3882   5.621   3.152   3.079
 1292TIP3    H2 3883   5.743   3.097   3.009
 1293TIP3   OH2 3884   4.265   2.424   2.175
 1293TIP3    H1 3885   4.229   2.513   2.182
 1293TIP3    H2 3886   4.296   2.418   2.085
 1294TIP3   OH2 3887   3.575   0.962   2.980
 1294TIP3    H1 3888   3.660   0.926   3.006
 1294TIP3    H2 3889   3.511   0.912   3.031
 1295TIP3   OH2 3890   4.150   0.179   3.537
 1295TIP3    H1 3891   4.199   0.257   3.514
 1295TIP3    H2 3892   4.205   0.106   3.507
 1296TIP3   OH2 3893   0.341   2.091   3.702
 1296TIP3    H1 3894   0.245   2.095   3.708
 1296TIP3    H2 3895   0.367   2.179   3.677
 1297TIP3   OH2 3896   5.016   3.159   2.868
 1297TIP3    H1 3897   5.083   3.139   2.803
 1297TIP3    H2 3898   4.933   3.150   2.821
 1298TIP3   OH2 3899   5.354   0.299   2.316
 1298TIP3    H1 3900   5.357   0.394   2.324
 1298TIP3    H2 3901   5.433   0.268   2.360
 1299TIP3   OH2 3902   5.545   2.959   0.777
 1299TIP3    H1 3903   5.473   2.922   0.828
 1299TIP3    H2 3904   5.502   3.004   0.704
 1300TIP3   OH2 3905   6.186   4.999   2.187
 1300TIP3    H1 3906   6.229   5.075   2.226
 1300TIP3    H2 3907   6.101   5.032   2.158
 1301TIP3   OH2 3908   1.188   3.354   1.032
 1301TIP3    H1 3909   1.123   3.376   0.965
 1301TIP3    H2 3910   1.160   3.405   1.109
 1302TIP3   OH2 3911   3.534   3.124   0.660
 1302TIP3    H1 3912   3.612   3.098   0.610
 1302TIP3    H2 3913   3.563   3.125   0.751
 1303TIP3   OH2 3914   3.967   5.756   1.200
 1303TIP3    H1 3915   3.921   5.708   1.269
 1303TIP3    H2 3916   3.912   5.744   1.123
 1304TIP3   OH2 3917   2.510   5.780   2.069
 1304TIP3    H1 3918   2.579   5.837   2.105
 1304TIP3    H2 3919   2.449   5.840   2.027
 1305TIP3   OH2 3920   0.220   1.582   1.410
 1305TIP3    H1 3921   0.288   1.620   1.353
 1305TIP3    H2 3922   0.251   1.599   1.499
 1306TIP3   OH2 3923   2.970   5.309   1.535
 1306TIP3    H1 3924   2.983   5.222   1.497
 1306TIP3    H2 3925   2.881   5.307   1.571
 1307TIP3   OH2 3926   0.348   2.900   3.324
 1307TIP3    H1 3927   0.385   2.827   3.274
 1307TIP3    H2 3928   0.328   2.966   3.258
 1308TIP3   OH2 3929   4.334   5.981   0.009
 1308TIP3    H1 3930   4.337   5.896   0.052
 1308TIP3    H2 3931   4.282   6.036   0.069
 1309TIP3   OH2 3932   4.834   4.813   0.084
 1309TIP3    H1 3933   4.762   4.823   0.146
 1309TIP3    H2 3934   4.807   4.741   0.026
 1310TIP3   OH2 3935   4.340   1.046   1.565
 1310TIP3    H1 3936   4.248   1.025   1.548
 1310TIP3    H2 3937   4.353   1.131   1.523
 1311TIP3   OH2 3938   2.873   4.424   2.617
 1311TIP3    H1 3939   2.950   4.412   2.562
 1311TIP3    H2 3940   2.814   4.478   2.565
 1312TIP3   OH2 3941   3.276   2.311   3.905
 1312TIP3    H1 3942   3.289   2.249   3.977
 1312TIP3    H2 3943   3.324   2.272   3.832
 1313TIP3   OH2 3944   1.998   5.789   0.629
 1313TIP3    H1 3945   2.040   5.708   0.598
 1313TIP3    H2 3946   1.984   5.773   0.722
 1314TIP3   OH2 3947   4.777   2.282   3.622
 1314TIP3    H1 3948   4.772   2.210   3.559
 1314TIP3    H2 3949   4.806   2.357   3.571
 1315TIP3   OH2 3950   5.894   3.283   2.114
 1315TIP3    H1 3951   5.947   3.205   2.133
 1315TIP3    H2 3952   5.952   3.357   2.135
 1316TIP3   OH2 3953   0.458   1.053   1.485
 1316TIP3    H1 3954   0.524   1.019   1.545
 1316TIP3    H2 3955   0.495   1.135   1.452
 1317TIP3   OH2 3956   6.241   2.369   0.820
 1317TIP3    H1 3957   6.237   2.274   0.811
 1317TIP3    H2 3958   6.332   2.392   0.798
 1318TIP3   OH2 3959   6.026   1.142   3.572
 1318TIP3    H1 3960   6.029   1.148   3.667
 1318TIP3    H2 3961   5.933   1.150   3.551
 1319TIP3   OH2 3962   6.290   3.226   2.252
 1319TIP3    H1 3963   6.294   3.181   2.337
 1319TIP3    H2 3964   6.216   3.185   2.207
 1320TIP3   OH2 3965   4.664   5.766   4.741
 1320TIP3    H1 3966   4.685   5.855   4.713
 1320TIP3    H2 3967   4.574   5.752   4.711
 1321TIP3   OH2 3968   0.618   2.418   1.628
 1321TIP3    H1 3969   0.604   2.413   1.722
 1321TIP3    H2 3970   0.545   2.370   1.590
 1322TIP3   OH2 3971   6.307   4.301   3.381
 1322TIP3    H1 3972   6.212   4.302   3.377
 1322TIP3    H2 3973   6.328   4.280   3.472
 1323TIP3   OH2 3974   5.478   1.799   1.351
 1323TIP3    H1 3975   5.464   1.706   1.371
 1323TIP3    H2 3976   5.541   1.828   1.417
 1324TIP3   OH2 3977   0.558   5.901   3.945
 1324TIP3    H1 3978   0.488   5.956   3.909
 1324TIP3    H2 3979   0.541   5.814   3.909
 1325TIP3   OH2 3980   1.201   2.233   4.356
 1325TIP3    H1 3981   1.267   2.265   4.295
 1325TIP3    H2 3982   1.251   2.192   4.427
 1326TIP3   OH2 3983   1.575   4.522   3.537
 1326TIP3    H1 3984   1.654   4.549   3.584
 1326TIP3    H2 3985   1.541   4.604   3.499
 1327TIP3   OH2 3986   5.999   2.605   4.652
 1327TIP3    H1 3987   5.960   2.693   4.657
 1327TIP3    H2 3988   6.071   2.607   4.715
 1328TIP3   OH2 3989   4.373   1.983   4.004
 1328TIP3    H1 3990   4.313   1.960   3.933
 1328TIP3    H2 3991   4.457   2.000   3.960
 1329TIP3   OH2 3992   4.694   4.765   2.758
 1329TIP3    H1 3993   4.785   4.738   2.747
 1329TIP3    H2 3994   4.643   4.691   2.724
 1330TIP3   OH2 3995   4.185   4.634   4.658
 1330TIP3    H1 3996   4.134   4.650   4.579
 1330TIP3    H2 3997   4.240   4.559   4.635
 1331TIP3   OH2 3998   1.277   3.890   1.499
 1331TIP3    H1 3999   1.274   3.984   1.516
 1331TIP3    H2 4000   1.206   3.875   1.436
 1332TIP3   OH2 4001   1.325   0.273   3.297
 1332TIP3    H1 4002   1.320   0.368   3.298
 1332TIP3    H2 4003   1.390   0.253   3.230
 1333TIP3   OH2 4004   2.912   5.554   2.986
 1333TIP3    H1 4005   2.848   5.577   3.053
 1333TIP3    H2 4006   2.895   5.615   2.915
 1334TIP3   OH2 4007   6.177   4.419   3.851
 1334TIP3    H1 4008   6.137   4.339   3.886
 1334TIP3    H2 4009   6.104   4.477   3.833
 1335TIP3   OH2 4010   0.242   4.428   1.813
 1335TIP3    H1 4011   0.228   4.417   1.719
 1335TIP3    H2 4012   0.200   4.512   1.833
 1336TIP3   OH2 4013   1.256   5.138   1.221
 1336TIP3    H1 4014   1.256   5.158   1.314
 1336TIP3    H2 4015   1.296   5.214   1.180
 1337TIP3   OH2 4016   0.275   5.379   1.166
 1337TIP3    H1 4017   0.322   5.329   1.100
 1337TIP3    H2 4018   0.218   5.315   1.208
 1338TIP3   OH2 4019   5.848   2.199   2.176
 1338TIP3    H1 4020   5.754   2.211   2.165
 1338TIP3    H2 4021   5.860   2.105   2.183
 1339TIP3   OH2 4022   0.218   0.728   5.027
 1339TIP3    H1 4023   0.165   0.659   5.068
 1339TIP3    H2 4024   0.201   0.805   5.080
 1340TIP3   OH2 4025   4.182   0.634   3.634
 1340TIP3    H1 4026   4.207   0.593   3.716
 1340TIP3    H2 4027   4.097   0.675   3.653
 1341TIP3   OH2 4028   3.508   1.440   0.650
 1341TIP3    H1 4029   3.545   1.448   0.562
 1341TIP3    H2 4030   3.430   1.496   0.649
 1342TIP3   OH2 4031   2.931   2.709   3.153
 1342TIP3    H1 4032   3.001   2.704   3.218
 1342TIP3    H2 4033   2.973   2.687   3.070
 1343TIP3   OH2 4034   0.884   0.610   4.857
 1343TIP3    H1 4035   0.841   0.525   4.852
 1343TIP3    H2 4036   0.830   0.668   4.803
 1344TIP3   OH2 4037   5.715   0.696   1.398
 1344TIP3    H1 4038   5.633   0.647   1.397
 1344TIP3    H2 4039   5.774   0.645   1.342
 1345TIP3   OH2 4040   0.379   0.584   0.232
 1345TIP3    H1 4041   0.365   0.548   0.320
 1345TIP3    H2 4042   0.334   0.668   0.234
 1346TIP3   OH2 4043   1.908   1.296   1.749
 1346TIP3    H1 4044   1.980   1.242   1.782
 1346TIP3    H2 4045   1.845   1.299   1.820
 1347TIP3   OH2 4046   0.925   4.975   1.954
 1347TIP3    H1 4047   0.931   4.955   2.048
 1347TIP3    H2 4048   0.931   4.890   1.911
 1348TIP3   OH2 4049   4.224   0.493   4.971
 1348TIP3    H1 4050   4.253   0.432   4.902
 1348TIP3    H2 4051   4.289   0.563   4.970
 1349TIP3   OH2 4052   3.793   1.679   4.901
 1349TIP3    H1 4053   3.803   1.765   4.860
 1349TIP3    H2 4054   3.699   1.661   4.894
 1350TIP3   OH2 4055   5.550   3.103   3.229
 1350TIP3    H1 4056   5.603   3.025   3.247
 1350TIP3    H2 4057   5.460   3.074   3.243
 1351TIP3   OH2 4058   1.119   1.045   2.597
 1351TIP3    H1 4059   1.196   1.047   2.541
 1351TIP3    H2 4060   1.050   1.006   2.543
 1352TIP3   OH2 4061   1.614   1.175   1.707
 1352TIP3    H1 4062   1.633   1.199   1.798
 1352TIP3    H2 4063   1.579   1.255   1.668
 1353TIP3   OH2 4064   1.229   5.226   0.214
 1353TIP3    H1 4065   1.193   5.138   0.222
 1353TIP3    H2 4066   1.224   5.263   0.303
 1354TIP3   OH2 4067   3.837   3.076   1.179
 1354TIP3    H1 4068   3.928   3.085   1.208
 1354TIP3    H2 4069   3.792   3.150   1.219
 1355TIP3   OH2 4070   2.535   0.630   3.058
 1355TIP3    H1 4071   2.467   0.576   3.098
 1355TIP3    H2 4072   2.613   0.614   3.111
 1356TIP3   OH2 4073   1.457   4.754   3.397
 1356TIP3    H1 4074   1.401   4.830   3.383
 1356TIP3    H2 4075   1.446   4.701   3.318
 1357TIP3   OH2 4076   3.918   2.366   2.998
 1357TIP3    H1 4077   3.999   2.347   3.046
 1357TIP3    H2 4078   3.888   2.281   2.967
 1358TIP3   OH2 4079   2.438   2.788   5.203
 1358TIP3    H1 4080   2.420   2.767   5.112
 1358TIP3    H2 4081   2.410   2.711   5.252
 1359TIP3   OH2 4082   3.478   5.720   4.077
 1359TIP3    H1 4083   3.444   5.652   4.020
 1359TIP3    H2 4084   3.449   5.696   4.165
 1360TIP3   OH2 4085   3.178   5.229   3.062
 1360TIP3    H1 4086   3.235   5.270   3.127
 1360TIP3    H2 4087   3.231   5.227   2.982
 1361TIP3   OH2 4088   2.623   5.232   2.322
 1361TIP3    H1 4089   2.577   5.306   2.362
 1361TIP3    H2 4090   2.556   5.165   2.311
 1362TIP3   OH2 4091   0.340   3.733   3.664
 1362TIP3    H1 4092   0.355   3.757   3.573
 1362TIP3    H2 4093   0.304   3.644   3.660
 1363TIP3   OH2 4094   4.497   4.226   3.880
 1363TIP3    H1 4095   4.587   4.228   3.912
 1363TIP3    H2 4096   4.457   4.152   3.925
 1364TIP3   OH2 4097   3.115   2.781   1.954
 1364TIP3    H1 4098   3.023   2.808   1.952
 1364TIP3    H2 4099   3.162   2.856   1.990
 1365TIP3   OH2 4100   4.581   2.632   3.393
 1365TIP3    H1 4101   4.582   2.728   3.399
 1365TIP3    H2 4102   4.605   2.603   3.481
 1366TIP3   OH2 4103   1.980   1.033   3.153
 1366TIP3    H1 4104   1.931   1.090   3.093
 1366TIP3    H2 4105   1.963   0.944   3.121
 1367TIP3   OH2 4106   5.583   3.419   1.712
 1367TIP3    H1 4107   5.509   3.360   1.699
 1367TIP3    H2 4108   5.640   3.403   1.636
 1368TIP3   OH2 4109   3.602   4.012   0.097
 1368TIP3    H1 4110   3.594   4.067   0.020
 1368TIP3    H2 4111   3.615   3.923   0.063
 1369TIP3   OH2 4112   5.664   5.450   4.000
 1369TIP3    H1 4113   5.720   5.491   3.934
 1369TIP3    H2 4114   5.575   5.457   3.964
 1370TIP3   OH2 4115   3.953   2.423   1.256
 1370TIP3    H1 4116   3.881   2.371   1.292
 1370TIP3    H2 4117   3.951   2.505   1.305
 1371TIP3   OH2 4118   4.525   1.171   0.167
 1371TIP3    H1 4119   4.433   1.198   0.162
 1371TIP3    H2 4120   4.530   1.118   0.246
 1372TIP3   OH2 4121   4.536   2.208   2.761
 1372TIP3    H1 4122   4.580   2.282   2.801
 1372TIP3    H2 4123   4.553   2.135   2.820
 1373TIP3   OH2 4124   5.460   4.845   1.006
 1373TIP3    H1 4125   5.394   4.838   1.076
 1373TIP3    H2 4126   5.464   4.939   0.988
 1374TIP3   OH2 4127   1.756   1.898   1.030
 1374TIP3    H1 4128   1.718   1.817   0.998
 1374TIP3    H2 4129   1.723   1.965   0.970
 1375TIP3   OH2 4130   1.005   2.509   3.865
 1375TIP3    H1 4131   1.012   2.473   3.777
 1375TIP3    H2 4132   1.091   2.494   3.904
 1376TIP3   OH2 4133   6.347   5.086   3.556
 1376TIP3    H1 4134   6.333   4.992   3.550
 1376TIP3    H2 4135   6.432   5.095   3.597
 1377TIP3   OH2 4136   6.110   4.451   5.117
 1377TIP3    H1 4137   6.150   4.364   5.118
 1377TIP3    H2 4138   6.184   4.511   5.124
 1378TIP3   OH2 4139   2.277   0.120   1.150
 1378TIP3    H1 4140   2.279   0.216   1.157
 1378TIP3    H2 4141   2.187   0.100   1.126
 1379TIP3   OH2 4142   0.551   4.229   4.745
 1379TIP3    H1 4143   0.470   4.191   4.781
 1379TIP3    H2 4144   0.621   4.186   4.794
 1380TIP3   OH2 4145   0.185   4.985   1.979
 1380TIP3    H1 4146   0.145   5.043   2.043
 1380TIP3    H2 4147   0.270   5.025   1.960
 1381TIP3   OH2 4148   3.523   0.385   0.105
 1381TIP3    H1 4149   3.431   0.377   0.081
 1381TIP3    H2 4150   3.562   0.435   0.033
 1382TIP3   OH2 4151   3.057   3.649   2.469
 1382TIP3    H1 4152   3.076   3.599   2.389
 1382TIP3    H2 4153   3.139   3.693   2.490
 1383TIP3   OH2 4154   4.431   3.426   4.453
 1383TIP3    H1 4155   4.369   3.440   4.381
 1383TIP3    H2 4156   4.516   3.415   4.410
 1384TIP3   OH2 4157   5.928   1.059   1.975
 1384TIP3    H1 4158   5.911   1.151   1.996
 1384TIP3    H2 4159   5.926   1.055   1.880
 1385TIP3   OH2 4160   1.612   4.374   2.117
 1385TIP3    H1 4161   1.626   4.309   2.186
 1385TIP3    H2 4162   1.601   4.457   2.163
 1386TIP3   OH2 4163   6.139   3.597   2.421
 1386TIP3    H1 4164   6.214   3.538   2.422
 1386TIP3    H2 4165   6.175   3.680   2.388
 1387TIP3   OH2 4166   1.781   2.735   3.136
 1387TIP3    H1 4167   1.837   2.724   3.059
 1387TIP3    H2 4168   1.708   2.675   3.120
 1388TIP3   OH2 4169   0.427   0.041   2.354
 1388TIP3    H1 4170   0.436  -0.052   2.375
 1388TIP3    H2 4171   0.348   0.047   2.301
 1389TIP3   OH2 4172   3.019   5.953   2.198
 1389TIP3    H1 4173   3.066   5.899   2.262
 1389TIP3    H2 4174   3.088   6.007   2.159
 1390TIP3   OH2 4175   5.863   3.307   4.750
 1390TIP3    H1 4176   5.812   3.271   4.677
 1390TIP3    H2 4177   5.856   3.402   4.739
 1391TIP3   OH2 4178   0.631   2.531   0.205
 1391TIP3    H1 4179   0.588   2.538   0.119
 1391TIP3    H2 4180   0.622   2.439   0.230
 1392TIP3   OH2 4181   5.231   4.855   4.883
 1392TIP3    H1 4182   5.217   4.918   4.954
 1392TIP3    H2 4183   5.192   4.774   4.915
 1393TIP3   OH2 4184   5.911   0.420   3.918
 1393TIP3    H1 4185   5.925   0.391   3.828
 1393TIP3    H2 4186   5.936   0.512   3.918
 1394TIP3   OH2 4187   1.887   4.120   3.563
 1394TIP3    H1 4188   1.852   4.157   3.482
 1394TIP3    H2 4189   1.852   4.176   3.632
 1395TIP3   OH2 4190   3.518   3.066   3.949
 1395TIP3    H1 4191   3.464   3.145   3.948
 1395TIP3    H2 4192   3.494   3.021   4.030
 1396TIP3   OH2 4193   2.098   5.176   4.120
 1396TIP3    H1 4194   2.098   5.085   4.148
 1396TIP3    H2 4195   2.088   5.173   4.025
 1397TIP3   OH2 4196   3.601   1.173   0.726
 1397TIP3    H1 4197   3.556   1.102   0.680
 1397TIP3    H2 4198   3.563   1.253   0.689
 1398TIP3   OH2 4199   5.369   4.186   2.887
 1398TIP3    H1 4200   5.352   4.179   2.981
 1398TIP3    H2 4201   5.371   4.280   2.869
 1399TIP3   OH2 4202   5.440   3.517   2.668
 1399TIP3    H1 4203   5.424   3.592   2.611
 1399TIP3    H2 4204   5.520   3.539   2.715
 1400TIP3   OH2 4205   4.926   1.159   4.373
 1400TIP3    H1 4206   4.835   1.188   4.372
 1400TIP3    H2 4207   4.943   1.129   4.284
 1401TIP3   OH2 4208   5.545   2.486   0.938
 1401TIP3    H1 4209   5.506   2.559   0.889
 1401TIP3    H2 4210   5.471   2.446   0.983
 1402TIP3   OH2 4211   3.561   2.497   1.229
 1402TIP3    H1 4212   3.636   2.476   1.285
 1402TIP3    H2 4213   3.529   2.581   1.262
 1403TIP3   OH2 4214   2.695   4.984   1.502
 1403TIP3    H1 4215   2.746   5.040   1.561
 1403TIP3    H2 4216   2.731   5.002   1.415
 1404TIP3   OH2 4217   0.359   3.462   4.253
 1404TIP3    H1 4218   0.444   3.506   4.247
 1404TIP3    H2 4219   0.316   3.504   4.328
 1405TIP3   OH2 4220   1.763   4.425   0.661
 1405TIP3    H1 4221   1.800   4.368   0.730
 1405TIP3    H2 4222   1.807   4.509   0.674
 1406TIP3   OH2 4223   4.969   5.910   0.814
 1406TIP3    H1 4224   4.906   5.869   0.755
 1406TIP3    H2 4225   5.036   5.843   0.828
 1407TIP3   OH2 4226   3.936   0.113   4.498
 1407TIP3    H1 4227   4.003   0.054   4.462
 1407TIP3    H2 4228   3.853   0.070   4.476
 1408TIP3   OH2 4229   3.431   0.862   2.270
 1408TIP3    H1 4230   3.494   0.896   2.333
 1408TIP3    H2 4231   3.485   0.832   2.196
 1409TIP3   OH2 4232   1.952   5.195   0.636
 1409TIP3    H1 4233   1.906   5.112   0.626
 1409TIP3    H2 4234   1.943   5.217   0.729
 1410TIP3   OH2 4235   4.962   1.103   4.105
 1410TIP3    H1 4236   4.956   1.164   4.032
 1410TIP3    H2 4237   5.019   1.033   4.073
 1411TIP3   OH2 4238   0.391   5.738   1.408
 1411TIP3    H1 4239   0.441   5.663   1.373
 1411TIP3    H2 4240   0.395   5.803   1.339
 1412TIP3   OH2 4241   1.227   1.867   4.681
 1412TIP3    H1 4242   1.302   1.858   4.739
 1412TIP3    H2 4243   1.164   1.802   4.713
 1413TIP3   OH2 4244   0.017   0.748   4.324
 1413TIP3    H1 4245   0.070   0.732   4.402
 1413TIP3    H2 4246   0.024   0.667   4.274
 1414TIP3   OH2 4247   3.440   5.633   1.923
 1414TIP3    H1 4248   3.396   5.657   1.842
 1414TIP3    H2 4249   3.496   5.708   1.943
 1415TIP3   OH2 4250   3.698   5.357   1.404
 1415TIP3    H1 4251   3.621   5.312   1.369
 1415TIP3    H2 4252   3.701   5.440   1.356
 1416TIP3   OH2 4253   0.197   2.494   5.101
 1416TIP3    H1 4254   0.208   2.478   5.008
 1416TIP3    H2 4255   0.197   2.590   5.109
 1417TIP3   OH2 4256   5.257   5.677   2.748
 1417TIP3    H1 4257   5.343   5.647   2.780
 1417TIP3    H2 4258   5.229   5.742   2.812
 1418TIP3   OH2 4259   6.044   4.134   3.924
 1418TIP3    H1 4260   6.077   4.044   3.931
 1418TIP3    H2 4261   6.001   4.137   3.839
 1419TIP3   OH2 4262   2.148   5.866   1.076
 1419TIP3    H1 4263   2.172   5.857   1.168
 1419TIP3    H2 4264   2.221   5.825   1.028
 1420TIP3   OH2 4265   3.491   4.454   3.422
 1420TIP3    H1 4266   3.489   4.462   3.517
 1420TIP3    H2 4267   3.430   4.383   3.402
 1421TIP3   OH2 4268   3.291   3.737   2.584
 1421TIP3    H1 4269   3.273   3.827   2.612
 1421TIP3    H2 4270   3.351   3.702   2.651
 1422TIP3   OH2 4271   2.595   2.843   3.381
 1422TIP3    H1 4272   2.671   2.815   3.329
 1422TIP3    H2 4273   2.531   2.868   3.315
 1423TIP3   OH2 4274   1.735   5.762   4.182
 1423TIP3    H1 4275   1.806   5.698   4.186
 1423TIP3    H2 4276   1.779   5.846   4.166
 1424TIP3   OH2 4277   5.556   0.744   3.237
 1424TIP3    H1 4278   5.585   0.788   3.157
 1424TIP3    H2 4279   5.626   0.761   3.300
 1425TIP3   OH2 4280   4.210   0.611   2.670
 1425TIP3    H1 4281   4.208   0.648   2.582
 1425TIP3    H2 4282   4.275   0.664   2.717
 1426TIP3   OH2 4283   4.566   1.535   1.147
 1426TIP3    H1 4284   4.579   1.547   1.053
 1426TIP3    H2 4285   4.474   1.510   1.156
 1427TIP3   OH2 4286   5.219   3.041   1.570
 1427TIP3    H1 4287   5.286   3.041   1.502
 1427TIP3    H2 4288   5.141   3.077   1.527
 1428TIP3   OH2 4289   1.370   0.712   3.052
 1428TIP3    H1 4290   1.347   0.757   2.970
 1428TIP3    H2 4291   1.359   0.619   3.032
 1429TIP3   OH2 4292   2.279   1.750   3.863
 1429TIP3    H1 4293   2.190   1.769   3.894
 1429TIP3    H2 4294   2.271   1.748   3.768
 1430TIP3   OH2 4295   5.256   2.412   3.074
 1430TIP3    H1 4296   5.262   2.487   3.015
 1430TIP3    H2 4297   5.256   2.451   3.161
 1431TIP3   OH2 4298   1.237   0.071   4.141
 1431TIP3    H1 4299   1.179   0.029   4.078
 1431TIP3    H2 4300   1.256   0.157   4.103
 1432TIP3   OH2 4301   2.169   4.034   0.153
 1432TIP3    H1 4302   2.238   4.040   0.086
 1432TIP3    H2 4303   2.191   3.956   0.204
 1433TIP3   OH2 4304   4.985   4.141   1.193
 1433TIP3    H1 4305   4.933   4.060   1.198
 1433TIP3    H2 4306   4.959   4.181   1.110
 1434TIP3   OH2 4307   4.424   4.003   0.411
 1434TIP3    H1 4308   4.416   3.930   0.350
 1434TIP3    H2 4309   4.353   4.063   0.386
 1435TIP3   OH2 4310   2.339   4.817   2.764
 1435TIP3    H1 4311   2.366   4.905   2.790
 1435TIP3    H2 4312   2.250   4.808   2.799
 1436TIP3   OH2 4313   0.257   0.326   0.057
 1436TIP3    H1 4314   0.221   0.280   0.133
 1436TIP3    H2 4315   0.324   0.384   0.093
 1437TIP3   OH2 4316   4.611   3.129   4.443
 1437TIP3    H1 4317   4.610   3.089   4.531
 1437TIP3    H2 4318   4.518   3.133   4.418
 1438TIP3   OH2 4319   6.017   4.035   1.740
 1438TIP3    H1 4320   6.057   4.091   1.808
 1438TIP3    H2 4321   5.941   4.084   1.711
 1439TIP3   OH2 4322   5.335   4.115   2.598
 1439TIP3    H1 4323   5.343   4.134   2.692
 1439TIP3    H2 4324   5.422   4.085   2.572
 1440TIP3   OH2 4325   1.955   0.362   3.938
 1440TIP3    H1 4326   2.035   0.389   3.893
 1440TIP3    H2 4327   1.885   0.406   3.891
 1441TIP3   OH2 4328   3.231   3.742   4.446
 1441TIP3    H1 4329   3.176   3.747   4.368
 1441TIP3    H2 4330   3.168   3.747   4.519
 1442TIP3   OH2 4331   3.206   4.605   3.833
 1442TIP3    H1 4332   3.134   4.668   3.835
 1442TIP3    H2 4333   3.196   4.558   3.750
 1443TIP3   OH2 4334   6.158   5.179   2.509
 1443TIP3    H1 4335   6.085   5.134   2.466
 1443TIP3    H2 4336   6.210   5.215   2.438
 1444TIP3   OH2 4337   2.110   3.775   4.003
 1444TIP3    H1 4338   2.162   3.831   3.946
 1444TIP3    H2 4339   2.142   3.686   3.986
 1445TIP3   OH2 4340   5.245   4.458   1.513
 1445TIP3    H1 4341   5.178   4.417   1.457
 1445TIP3    H2 4342   5.262   4.542   1.473
 1446TIP3   OH2 4343   2.982   4.697   1.938
 1446TIP3    H1 4344   2.963   4.670   2.028
 1446TIP3    H2 4345   2.898   4.726   1.903
 1447TIP3   OH2 4346   5.615   5.056  -0.019
 1447TIP3    H1 4347   5.525   5.061   0.015
 1447TIP3    H2 4348   5.660   4.999   0.043
 1448TIP3   OH2 4349   1.121   0.051   3.888
 1448TIP3    H1 4350   1.178   0.127   3.877
 1448TIP3    H2 4351   1.069   0.048   3.807
 1449TIP3   OH2 4352   1.241   5.738   3.880
 1449TIP3    H1 4353   1.258   5.830   3.902
 1449TIP3    H2 4354   1.301   5.689   3.935
 1450TIP3   OH2 4355   3.356   4.141   3.784
 1450TIP3    H1 4356   3.401   4.081   3.844
 1450TIP3    H2 4357   3.319   4.084   3.717
 1451TIP3   OH2 4358   0.405   1.052   3.105
 1451TIP3    H1 4359   0.463   1.037   3.180
 1451TIP3    H2 4360   0.372   1.141   3.118
 1452TIP3   OH2 4361   3.046   1.311   4.837
 1452TIP3    H1 4362   2.993   1.263   4.774
 1452TIP3    H2 4363   3.117   1.349   4.785
 1453TIP3   OH2 4364   4.376   3.392   3.663
 1453TIP3    H1 4365   4.440   3.346   3.608
 1453TIP3    H2 4366   4.346   3.464   3.608
 1454TIP3   OH2 4367   6.240   1.763   3.410
 1454TIP3    H1 4368   6.313   1.799   3.460
 1454TIP3    H2 4369   6.274   1.752   3.321
 1455TIP3   OH2 4370   0.830   1.778   3.385
 1455TIP3    H1 4371   0.911   1.828   3.374
 1455TIP3    H2 4372   0.844   1.698   3.335
 1456TIP3   OH2 4373   0.089   5.283   1.981
 1456TIP3    H1 4374  -0.001   5.300   2.007
 1456TIP3    H2 4375   0.142   5.308   2.057
 1457TIP3   OH2 4376   5.607   5.116   4.038
 1457TIP3    H1 4377   5.528   5.118   4.092
 1457TIP3    H2 4378   5.627   5.208   4.022
 1458TIP3   OH2 4379   4.621   4.308   1.010
 1458TIP3    H1 4380   4.557   4.249   1.049
 1458TIP3    H2 4381   4.639   4.271   0.924
 1459TIP3   OH2 4382   0.536   4.877   5.112
 1459TIP3    H1 4383   0.443   4.899   5.121
 1459TIP3    H2 4384   0.541   4.784   5.137
 1460TIP3   OH2 4385   4.925   5.471   3.814
 1460TIP3    H1 4386   4.909   5.377   3.823
 1460TIP3    H2 4387   4.894   5.491   3.726
 1461TIP3   OH2 4388   4.010   4.658   4.448
 1461TIP3    H1 4389   3.948   4.705   4.503
 1461TIP3    H2 4390   4.075   4.724   4.423
 1462TIP3   OH2 4391   3.742   2.879   2.327
 1462TIP3    H1 4392   3.701   2.894   2.412
 1462TIP3    H2 4393   3.815   2.820   2.346
 1463TIP3   OH2 4394   0.158   2.578   1.736
 1463TIP3    H1 4395   0.085   2.609   1.682
 1463TIP3    H2 4396   0.200   2.657   1.767
 1464TIP3   OH2 4397   3.680   4.754   3.045
 1464TIP3    H1 4398   3.617   4.692   3.008
 1464TIP3    H2 4399   3.635   4.792   3.121
 1465TIP3   OH2 4400   5.463   5.589   1.877
 1465TIP3    H1 4401   5.445   5.498   1.853
 1465TIP3    H2 4402   5.513   5.583   1.959
 1466TIP3   OH2 4403   4.557   3.282   3.462
 1466TIP3    H1 4404   4.582   3.361   3.414
 1466TIP3    H2 4405   4.552   3.214   3.395
 1467TIP3   OH2 4406   3.141   2.456   2.594
 1467TIP3    H1 4407   3.176   2.372   2.624
 1467TIP3    H2 4408   3.202   2.521   2.629
 1468TIP3   OH2 4409   0.818   4.881   4.183
 1468TIP3    H1 4410   0.857   4.794   4.180
 1468TIP3    H2 4411   0.775   4.885   4.269
 1469TIP3   OH2 4412   0.722   3.586   2.828
 1469TIP3    H1 4413   0.721   3.494   2.802
 1469TIP3    H2 4414   0.814   3.612   2.821
 1470TIP3   OH2 4415   2.040   3.447   4.648
 1470TIP3    H1 4416   2.101   3.441   4.722
 1470TIP3    H2 4417   2.048   3.362   4.604
 1471TIP3   OH2 4418   4.075   0.113   1.353
 1471TIP3    H1 4419   4.109   0.071   1.432
 1471TIP3    H2 4420   3.980   0.103   1.360
 1472TIP3   OH2 4421   3.155   3.453   4.521
 1472TIP3    H1 4422   3.090   3.513   4.557
 1472TIP3    H2 4423   3.107   3.399   4.459
 1473TIP3   OH2 4424   0.763   5.550   2.547
 1473TIP3    H1 4425   0.685   5.499   2.524
 1473TIP3    H2 4426   0.778   5.606   2.471
 1474TIP3   OH2 4427   0.454   1.995   2.152
 1474TIP3    H1 4428   0.523   1.931   2.172
 1474TIP3    H2 4429   0.438   1.984   2.058
 1475TIP3   OH2 4430   0.925   5.653   3.777
 1475TIP3    H1 4431   0.923   5.562   3.806
 1475TIP3    H2 4432   0.866   5.698   3.837
 1476TIP3   OH2 4433   3.716   5.924   4.855
 1476TIP3    H1 4434   3.757   5.959   4.934
 1476TIP3    H2 4435   3.668   5.847   4.885
 1477TIP3   OH2 4436   1.364   1.724   1.789
 1477TIP3    H1 4437   1.302   1.653   1.772
 1477TIP3    H2 4438   1.365   1.732   1.884
 1478TIP3   OH2 4439   3.666   3.069   3.110
 1478TIP3    H1 4440   3.571   3.070   3.099
 1478TIP3    H2 4441   3.695   2.999   3.052
 1479TIP3   OH2 4442   5.545   1.223   3.386
 1479TIP3    H1 4443   5.509   1.290   3.327
 1479TIP3    H2 4444   5.492   1.231   3.465
 1480TIP3   OH2 4445   1.804   1.424   3.546
 1480TIP3    H1 4446   1.800   1.473   3.628
 1480TIP3    H2 4447   1.761   1.341   3.567
 1481TIP3   OH2 4448   4.967   2.364   0.103
 1481TIP3    H1 4449   4.897   2.381   0.165
 1481TIP3    H2 4450   4.958   2.271   0.080
 1482TIP3   OH2 4451   1.512   1.028   4.682
 1482TIP3    H1 4452   1.470   0.964   4.740
 1482TIP3    H2 4453   1.600   1.038   4.718
 1483TIP3   OH2 4454   4.953   2.667   5.099
 1483TIP3    H1 4455   4.887   2.598   5.096
 1483TIP3    H2 4456   4.957   2.693   5.191
 1484TIP3   OH2 4457   3.382   3.019   3.103
 1484TIP3    H1 4458   3.413   2.988   3.188
 1484TIP3    H2 4459   3.383   2.942   3.047
 1485TIP3   OH2 4460   0.788   1.074   0.971
 1485TIP3    H1 4461   0.807   1.155   1.017
 1485TIP3    H2 4462   0.850   1.010   1.007
 1486TIP3   OH2 4463   2.699   4.002   4.561
 1486TIP3    H1 4464   2.705   4.092   4.592
 1486TIP3    H2 4465   2.766   3.955   4.610
 1487TIP3   OH2 4466   0.446   4.157   0.182
 1487TIP3    H1 4467   0.472   4.148   0.274
 1487TIP3    H2 4468   0.488   4.083   0.139
 1488TIP3   OH2 4469   3.852   4.009   2.666
 1488TIP3    H1 4470   3.939   4.048   2.680
 1488TIP3    H2 4471   3.836   4.018   2.573
 1489TIP3   OH2 4472   0.392   0.321   0.586
 1489TIP3    H1 4473   0.478   0.313   0.545
 1489TIP3    H2 4474   0.342   0.376   0.526
 1490TIP3   OH2 4475   0.580   5.046   4.896
 1490TIP3    H1 4476   0.490   5.019   4.878
 1490TIP3    H2 4477   0.615   4.976   4.952
 1491TIP3   OH2 4478   4.445   4.844   3.030
 1491TIP3    H1 4479   4.484   4.923   2.993
 1491TIP3    H2 4480   4.377   4.877   3.090
 1492TIP3   OH2 4481   2.557   2.386   0.230
 1492TIP3    H1 4482   2.647   2.354   0.229
 1492TIP3    H2 4483   2.563   2.472   0.270
 1493TIP3   OH2 4484   0.907   2.744   3.625
 1493TIP3    H1 4485   0.941   2.827   3.658
 1493TIP3    H2 4486   0.852   2.710   3.695
 1494TIP3   OH2 4487   0.494   1.736   5.127
 1494TIP3    H1 4488   0.551   1.660   5.137
 1494TIP3    H2 4489   0.552   1.811   5.135
 1495TIP3   OH2 4490   5.323   5.220   0.718
 1495TIP3    H1 4491   5.295   5.311   0.720
 1495TIP3    H2 4492   5.295   5.189   0.632
 1496TIP3   OH2 4493   3.336   4.072   0.264
 1496TIP3    H1 4494   3.291   4.039   0.186
 1496TIP3    H2 4495   3.389   4.145   0.231
 1497TIP3   OH2 4496   5.875   3.849   4.462
 1497TIP3    H1 4497   5.844   3.775   4.409
 1497TIP3    H2 4498   5.811   3.918   4.448
 1498TIP3   OH2 4499   6.158   0.196   2.027
 1498TIP3    H1 4500   6.201   0.181   1.943
 1498TIP3    H2 4501   6.085   0.255   2.007
 1499TIP3   OH2 4502   5.516   3.898   3.573
 1499TIP3    H1 4503   5.433   3.945   3.578
 1499TIP3    H2 4504   5.551   3.919   3.486
 1500TIP3   OH2 4505   2.738   2.490   4.509
 1500TIP3    H1 4506   2.807   2.546   4.544
 1500TIP3    H2 4507   2.658   2.520   4.553
 1501TIP3   OH2 4508   6.252   0.988   0.559
 1501TIP3    H1 4509   6.278   0.974   0.468
 1501TIP3    H2 4510   6.197   1.067   0.557
 1502TIP3   OH2 4511   0.917   0.033   2.812
 1502TIP3    H1 4512   0.921   0.007   2.720
 1502TIP3    H2 4513   1.002   0.009   2.848
 1503TIP3   OH2 4514   3.597   3.128   3.636
 1503TIP3    H1 4515   3.532   3.197   3.647
 1503TIP3    H2 4516   3.672   3.172   3.596
 1504TIP3   OH2 4517   1.659   1.935   3.545
 1504TIP3    H1 4518   1.616   1.927   3.630
 1504TIP3    H2 4519   1.590   1.914   3.482
 1505TIP3   OH2 4520   6.349   0.962   3.747
 1505TIP3    H1 4521   6.355   1.003   3.661
 1505TIP3    H2 4522   6.325   0.871   3.728
 1506TIP3   OH2 4523   5.468   2.168   3.392
 1506TIP3    H1 4524   5.470   2.074   3.373
 1506TIP3    H2 4525   5.377   2.186   3.415
 1507TIP3   OH2 4526   0.530   0.257   3.800
 1507TIP3    H1 4527   0.482   0.327   3.756
 1507TIP3    H2 4528   0.520   0.275   3.893
 1508TIP3   OH2 4529   3.845   3.139   3.881
 1508TIP3    H1 4530   3.819   3.222   3.842
 1508TIP3    H2 4531   3.826   3.074   3.813
 1509TIP3   OH2 4532   5.742   5.318   1.710
 1509TIP3    H1 4533   5.746   5.223   1.716
 1509TIP3    H2 4534   5.656   5.336   1.671
 1510TIP3   OH2 4535   1.681   5.489   5.201
 1510TIP3    H1 4536   1.731   5.513   5.123
 1510TIP3    H2 4537   1.704   5.398   5.217
 1511TIP3   OH2 4538   5.555   2.819   3.290
 1511TIP3    H1 4539   5.460   2.823   3.301
 1511TIP3    H2 4540   5.568   2.776   3.206
 1512TIP3   OH2 4541   0.965   4.520   1.757
 1512TIP3    H1 4542   0.898   4.517   1.826
 1512TIP3    H2 4543   0.960   4.608   1.722
 1513TIP3   OH2 4544   0.825   3.767   2.426
 1513TIP3    H1 4545   0.763   3.695   2.435
 1513TIP3    H2 4546   0.911   3.725   2.429
 1514TIP3   OH2 4547   0.295   5.359   3.446
 1514TIP3    H1 4548   0.349   5.338   3.522
 1514TIP3    H2 4549   0.352   5.408   3.387
 1515TIP3   OH2 4550   0.103   3.404   3.830
 1515TIP3    H1 4551   0.084   3.330   3.888
 1515TIP3    H2 4552   0.040   3.395   3.758
 1516TIP3   OH2 4553   4.870   5.902   3.601
 1516TIP3    H1 4554   4.820   5.981   3.580
 1516TIP3    H2 4555   4.839   5.837   3.538
 1517TIP3   OH2 4556   1.186   4.493   4.433
 1517TIP3    H1 4557   1.260   4.435   4.451
 1517TIP3    H2 4558   1.225   4.579   4.421
 1518TIP3   OH2 4559   5.294   5.553   3.155
 1518TIP3    H1 4560   5.369   5.595   3.113
 1518TIP3    H2 4561   5.267   5.616   3.223
 1519TIP3   OH2 4562   1.578   5.127   3.645
 1519TIP3    H1 4563   1.562   5.181   3.568
 1519TIP3    H2 4564   1.516   5.054   3.637
 1520TIP3   OH2 4565   3.159   4.466   4.584
 1520TIP3    H1 4566   3.166   4.553   4.623
 1520TIP3    H2 4567   3.183   4.480   4.492
 1521TIP3   OH2 4568   6.273   5.787   4.612
 1521TIP3    H1 4569   6.314   5.819   4.532
 1521TIP3    H2 4570   6.213   5.857   4.638
 1522TIP3   OH2 4571   0.657   0.074   0.169
 1522TIP3    H1 4572   0.711   0.120   0.234
 1522TIP3    H2 4573   0.700  -0.010   0.157
 1523TIP3   OH2 4574   0.133   3.091   4.823
 1523TIP3    H1 4575   0.213   3.139   4.846
 1523TIP3    H2 4576   0.164   3.018   4.770
 1524TIP3   OH2 4577   4.898   2.061   2.489
 1524TIP3    H1 4578   4.881   2.102   2.574
 1524TIP3    H2 4579   4.990   2.034   2.494
 1525TIP3   OH2 4580   0.708   4.923   1.211
 1525TIP3    H1 4581   0.728   4.832   1.188
 1525TIP3    H2 4582   0.660   4.916   1.294
 1526TIP3   OH2 4583   5.245   0.850   1.305
 1526TIP3    H1 4584   5.336   0.864   1.280
 1526TIP3    H2 4585   5.205   0.936   1.299
 1527TIP3   OH2 4586   3.839   3.503   5.068
 1527TIP3    H1 4587   3.907   3.494   5.002
 1527TIP3    H2 4588   3.860   3.436   5.134
 1528TIP3   OH2 4589   3.828   5.486   0.873
 1528TIP3    H1 4590   3.805   5.579   0.878
 1528TIP3    H2 4591   3.781   5.455   0.796
 1529TIP3   OH2 4592   0.978   4.375   4.807
 1529TIP3    H1 4593   1.002   4.283   4.797
 1529TIP3    H2 4594   0.924   4.394   4.730
 1530TIP3   OH2 4595   2.979   4.275   2.861
 1530TIP3    H1 4596   2.924   4.202   2.888
 1530TIP3    H2 4597   2.919   4.335   2.815
 1531TIP3   OH2 4598   5.125   2.627   4.586
 1531TIP3    H1 4599   5.217   2.649   4.602
 1531TIP3    H2 4600   5.080   2.711   4.584
 1532TIP3   OH2 4601   1.854   2.979   2.036
 1532TIP3    H1 4602   1.794   2.925   1.984
 1532TIP3    H2 4603   1.851   3.065   1.994
 1533TIP3   OH2 4604   5.972   0.616   0.934
 1533TIP3    H1 4605   5.983   0.567   0.852
 1533TIP3    H2 4606   5.897   0.573   0.977
 1534TIP3   OH2 4607   5.516   5.786   3.170
 1534TIP3    H1 4608   5.456   5.858   3.149
 1534TIP3    H2 4609   5.573   5.821   3.238
 1535TIP3   OH2 4610   5.336   1.000   0.456
 1535TIP3    H1 4611   5.351   1.093   0.445
 1535TIP3    H2 4612   5.421   0.959   0.440
 1536TIP3   OH2 4613   3.319   2.930   0.038
 1536TIP3    H1 4614   3.389   2.887   0.087
 1536TIP3    H2 4615   3.241   2.918   0.092
 1537TIP3   OH2 4616   0.635   4.539   3.524
 1537TIP3    H1 4617   0.691   4.488   3.467
 1537TIP3    H2 4618   0.549   4.537   3.482
 1538TIP3   OH2 4619   0.819   0.649   4.395
 1538TIP3    H1 4620   0.744   0.615   4.347
 1538TIP3    H2 4621   0.784   0.669   4.482
 1539TIP3   OH2 4622   3.612   1.363   3.868
 1539TIP3    H1 4623   3.533   1.322   3.835
 1539TIP3    H2 4624   3.615   1.449   3.824
 1540TIP3   OH2 4625   1.751   0.399   3.599
 1540TIP3    H1 4626   1.681   0.383   3.536
 1540TIP3    H2 4627   1.741   0.492   3.622
 1541TIP3   OH2 4628   1.894   5.130   0.262
 1541TIP3    H1 4629   1.806   5.127   0.300
 1541TIP3    H2 4630   1.906   5.044   0.223
 1542TIP3   OH2 4631   6.175   5.827   2.453
 1542TIP3    H1 4632   6.134   5.848   2.369
 1542TIP3    H2 4633   6.268   5.843   2.439
 1543TIP3   OH2 4634   6.174   5.022   0.130
 1543TIP3    H1 4635   6.243   5.079   0.096
 1543TIP3    H2 4636   6.128   4.991   0.052
 1544TIP3   OH2 4637  -0.019   3.976   0.277
 1544TIP3    H1 4638   0.000   3.958   0.185
 1544TIP3    H2 4639   0.021   3.903   0.325
 1545TIP3   OH2 4640   4.103   3.851   4.588
 1545TIP3    H1 4641   4.017   3.872   4.552
 1545TIP3    H2 4642   4.087   3.837   4.681
 1546TIP3   OH2 4643   4.911   4.514   0.218
 1546TIP3    H1 4644   4.967   4.479   0.148
 1546TIP3    H2 4645   4.855   4.441   0.243
 1547TIP3   OH2 4646   5.807   3.117   1.229
 1547TIP3    H1 4647   5.813   3.035   1.278
 1547TIP3    H2 4648   5.791   3.089   1.138
 1548TIP3   OH2 4649   1.499   2.245   3.407
 1548TIP3    H1 4650   1.453   2.209   3.331
 1548TIP3    H2 4651   1.450   2.212   3.483
 1549TIP3   OH2 4652   5.690   2.058   1.773
 1549TIP3    H1 4653   5.673   2.146   1.806
 1549TIP3    H2 4654   5.785   2.048   1.779
 1550TIP3   OH2 4655   5.130   1.419   2.708
 1550TIP3    H1 4656   5.185   1.493   2.682
 1550TIP3    H2 4657   5.147   1.409   2.802
 1551TIP3   OH2 4658   1.179   5.081   1.806
 1551TIP3    H1 4659   1.116   5.025   1.760
 1551TIP3    H2 4660   1.206   5.145   1.740
 1552TIP3   OH2 4661   1.995   1.537   2.998
 1552TIP3    H1 4662   2.000   1.576   3.085
 1552TIP3    H2 4663   1.945   1.456   3.010
 1553TIP3   OH2 4664   2.222   5.912   4.053
 1553TIP3    H1 4665   2.307   5.943   4.086
 1553TIP3    H2 4666   2.225   5.931   3.959
 1554TIP3   OH2 4667   2.642   0.896   2.502
 1554TIP3    H1 4668   2.592   0.968   2.542
 1554TIP3    H2 4669   2.722   0.891   2.555
 1555TIP3   OH2 4670   4.776   2.253   2.347
 1555TIP3    H1 4671   4.824   2.175   2.375
 1555TIP3    H2 4672   4.774   2.309   2.425
 1556TIP3   OH2 4673   4.355   4.270   2.477
 1556TIP3    H1 4674   4.386   4.196   2.529
 1556TIP3    H2 4675   4.433   4.324   2.464
 1557TIP3   OH2 4676   2.340   4.199   4.928
 1557TIP3    H1 4677   2.418   4.246   4.957
 1557TIP3    H2 4678   2.367   4.155   4.848
 1558TIP3   OH2 4679   2.396   0.320   3.844
 1558TIP3    H1 4680   2.466   0.378   3.815
 1558TIP3    H2 4681   2.349   0.370   3.911
 1559TIP3   OH2 4682   2.291   1.024   3.244
 1559TIP3    H1 4683   2.227   1.089   3.215
 1559TIP3    H2 4684   2.284   0.952   3.181
 1560TIP3   OH2 4685   3.381   0.080   4.049
 1560TIP3    H1 4686   3.409   0.167   4.079
 1560TIP3    H2 4687   3.436   0.019   4.098
 1561TIP3   OH2 4688   1.199   2.717   1.471
 1561TIP3    H1 4689   1.207   2.637   1.523
 1561TIP3    H2 4690   1.147   2.776   1.525
 1562TIP3   OH2 4691   4.914   2.125   3.020
 1562TIP3    H1 4692   4.936   2.148   3.110
 1562TIP3    H2 4693   4.998   2.100   2.981
 1563TIP3   OH2 4694   0.002   3.357   4.462
 1563TIP3    H1 4695  -0.091   3.334   4.467
 1563TIP3    H2 4696   0.046   3.274   4.442
 1564TIP3   OH2 4697   3.453   2.886   2.672
 1564TIP3    H1 4698   3.460   2.814   2.609
 1564TIP3    H2 4699   3.522   2.947   2.646
 1565TIP3   OH2 4700   6.252   1.824   1.568
 1565TIP3    H1 4701   6.244   1.911   1.528
 1565TIP3    H2 4702   6.255   1.763   1.494
 1566TIP3   OH2 4703   5.349   1.646   3.655
 1566TIP3    H1 4704   5.296   1.580   3.699
 1566TIP3    H2 4705   5.354   1.719   3.717
 1567TIP3   OH2 4706   5.646   0.305   4.492
 1567TIP3    H1 4707   5.621   0.341   4.407
 1567TIP3    H2 4708   5.568   0.319   4.547
 1568TIP3   OH2 4709   0.924   0.242   3.775
 1568TIP3    H1 4710   0.964   0.325   3.750
 1568TIP3    H2 4711   0.894   0.256   3.865
 1569TIP3   OH2 4712   2.068   3.206   2.777
 1569TIP3    H1 4713   2.090   3.154   2.699
 1569TIP3    H2 4714   2.153   3.234   2.811
 1570TIP3   OH2 4715   3.464   0.699   5.095
 1570TIP3    H1 4716   3.377   0.737   5.084
 1570TIP3    H2 4717   3.449   0.615   5.139
 1571TIP3   OH2 4718   3.481   5.983   2.190
 1571TIP3    H1 4719   3.496   5.905   2.244
 1571TIP3    H2 4720   3.458   6.051   2.253
 1572TIP3   OH2 4721   3.707   4.620   3.377
 1572TIP3    H1 4722   3.755   4.560   3.321
 1572TIP3    H2 4723   3.625   4.575   3.397
 1573TIP3   OH2 4724   0.824   3.452   0.387
 1573TIP3    H1 4725   0.862   3.524   0.338
 1573TIP3    H2 4726   0.757   3.415   0.329
 1574TIP3   OH2 4727   4.339   0.086   0.367
 1574TIP3    H1 4728   4.322  -0.004   0.337
 1574TIP3    H2 4729   4.300   0.141   0.300
 1575TIP3   OH2 4730   1.738   2.359   0.056
 1575TIP3    H1 4731   1.670   2.401   0.004
 1575TIP3    H2 4732   1.798   2.322  -0.008
 1576TIP3   OH2 4733   4.936   0.724   1.484
 1576TIP3    H1 4734   4.851   0.679   1.481
 1576TIP3    H2 4735   4.913   0.817   1.496
 1577TIP3   OH2 4736   0.382   3.404   1.879
 1577TIP3    H1 4737   0.306   3.382   1.824
 1577TIP3    H2 4738   0.346   3.409   1.968
 1578TIP3   OH2 4739   2.419   1.474   3.223
 1578TIP3    H1 4740   2.346   1.535   3.237
 1578TIP3    H2 4741   2.465   1.509   3.147
 1579TIP3   OH2 4742   1.643   0.328   2.563
 1579TIP3    H1 4743   1.689   0.244   2.550
 1579TIP3    H2 4744   1.700   0.393   2.521
 1580TIP3   OH2 4745   6.179   5.541   0.613
 1580TIP3    H1 4746   6.261   5.574   0.650
 1580TIP3    H2 4747   6.138   5.618   0.574
 1581TIP3   OH2 4748   6.007   0.511   3.423
 1581TIP3    H1 4749   6.093   0.531   3.386
 1581TIP3    H2 4750   5.961   0.463   3.353
 1582TIP3   OH2 4751   1.544   0.549   4.577
 1582TIP3    H1 4752   1.456   0.521   4.604
 1582TIP3    H2 4753   1.547   0.529   4.483
 1583TIP3   OH2 4754   2.231   3.189   0.063
 1583TIP3    H1 4755   2.137   3.203   0.069
 1583TIP3    H2 4756   2.269   3.249   0.128
 1584TIP3   OH2 4757   2.215   4.297   2.269
 1584TIP3    H1 4758   2.259   4.375   2.234
 1584TIP3    H2 4759   2.125   4.304   2.235
 1585TIP3   OH2 4760   5.494   1.756   2.021
 1585TIP3    H1 4761   5.571   1.745   1.967
 1585TIP3    H2 4762   5.429   1.697   1.983
 1586TIP3   OH2 4763   5.445   4.042   1.350
 1586TIP3    H1 4764   5.429   4.098   1.426
 1586TIP3    H2 4765   5.425   3.954   1.379
 1587TIP3   OH2 4766   4.141   1.978   2.642
 1587TIP3    H1 4767   4.212   2.042   2.636
 1587TIP3    H2 4768   4.126   1.951   2.551
 1588TIP3   OH2 4769   1.117   3.090   1.743
 1588TIP3    H1 4770   1.061   3.130   1.677
 1588TIP3    H2 4771   1.064   3.089   1.822
 1589TIP3   OH2 4772   0.046   5.875   0.074
 1589TIP3    H1 4773   0.135   5.882   0.039
 1589TIP3    H2 4774   0.054   5.815   0.149
 1590TIP3   OH2 4775   6.105   2.404   3.195
 1590TIP3    H1 4776   6.121   2.309   3.197
 1590TIP3    H2 4777   6.011   2.413   3.181
 1591TIP3   OH2 4778   1.873   4.592   3.245
 1591TIP3    H1 4779   1.833   4.677   3.229
 1591TIP3    H2 4780   1.876   4.550   3.159
 1592TIP3   OH2 4781   5.885   5.079   4.243
 1592TIP3    H1 4782   5.847   5.068   4.331
 1592TIP3    H2 4783   5.966   5.128   4.258
 1593TIP3   OH2 4784   3.172   0.626   2.803
 1593TIP3    H1 4785   3.248   0.676   2.834
 1593TIP3    H2 4786   3.191   0.536   2.830
 1594TIP3   OH2 4787   4.456   2.930   0.962
 1594TIP3    H1 4788   4.515   2.857   0.945
 1594TIP3    H2 4789   4.453   2.936   1.057
 1595TIP3   OH2 4790   0.724   0.825   4.768
 1595TIP3    H1 4791   0.669   0.869   4.833
 1595TIP3    H2 4792   0.745   0.894   4.705
 1596TIP3   OH2 4793   0.152   5.734   3.360
 1596TIP3    H1 4794   0.163   5.639   3.350
 1596TIP3    H2 4795   0.085   5.743   3.428
 1597TIP3   OH2 4796   5.549   1.042   1.810
 1597TIP3    H1 4797   5.535   0.968   1.751
 1597TIP3    H2 4798   5.477   1.103   1.789
 1598TIP3   OH2 4799   1.218   2.702   2.258
 1598TIP3    H1 4800   1.298   2.664   2.294
 1598TIP3    H2 4801   1.174   2.742   2.333
 1599TIP3   OH2 4802   3.063   1.000   4.064
 1599TIP3    H1 4803   3.084   0.946   3.988
 1599TIP3    H2 4804   3.044   0.937   4.134
 1600TIP3   OH2 4805   3.979   2.533   3.859
 1600TIP3    H1 4806   3.904   2.497   3.905
 1600TIP3    H2 4807   4.029   2.579   3.927
 1601TIP3   OH2 4808   3.101   5.858   1.207
 1601TIP3    H1 4809   3.164   5.903   1.151
 1601TIP3    H2 4810   3.063   5.790   1.150
 1602TIP3   OH2 4811   6.284   3.243   0.511
 1602TIP3    H1 4812   6.314   3.249   0.602
 1602TIP3    H2 4813   6.257   3.152   0.501
 1603TIP3   OH2 4814   0.066   2.125   0.615
 1603TIP3    H1 4815   0.154   2.088   0.617
 1603TIP3    H2 4816   0.013   2.060   0.569
 1604TIP3   OH2 4817   4.874   4.933   0.924
 1604TIP3    H1 4818   4.896   4.885   0.844
 1604TIP3    H2 4819   4.807   4.995   0.896
 1605TIP3   OH2 4820   3.287   1.137   1.342
 1605TIP3    H1 4821   3.242   1.061   1.379
 1605TIP3    H2 4822   3.378   1.108   1.332
 1606TIP3   OH2 4823   4.965   0.822   3.252
 1606TIP3    H1 4824   4.898   0.779   3.306
 1606TIP3    H2 4825   4.974   0.764   3.176
 1607TIP3   OH2 4826   5.931   1.949   2.325
 1607TIP3    H1 4827   5.856   1.943   2.384
 1607TIP3    H2 4828   5.981   1.869   2.342
 1608TIP3   OH2 4829   0.459   1.238   2.860
 1608TIP3    H1 4830   0.391   1.251   2.794
 1608TIP3    H2 4831   0.432   1.294   2.933
 1609TIP3   OH2 4832   1.547   0.279   1.970
 1609TIP3    H1 4833   1.500   0.353   2.008
 1609TIP3    H2 4834   1.572   0.308   1.883
 1610TIP3   OH2 4835   5.306   2.856   4.356
 1610TIP3    H1 4836   5.318   2.822   4.445
 1610TIP3    H2 4837   5.220   2.824   4.330
 1611TIP3   OH2 4838   4.364   5.697   4.016
 1611TIP3    H1 4839   4.368   5.745   4.099
 1611TIP3    H2 4840   4.450   5.658   4.007
 1612TIP3   OH2 4841   3.834   2.993   1.629
 1612TIP3    H1 4842   3.869   3.014   1.543
 1612TIP3    H2 4843   3.901   3.023   1.690
 1613TIP3   OH2 4844   0.321   0.439   1.438
 1613TIP3    H1 4845   0.232   0.403   1.436
 1613TIP3    H2 4846   0.375   0.366   1.468
 1614TIP3   OH2 4847   2.070   2.830   3.555
 1614TIP3    H1 4848   2.046   2.917   3.524
 1614TIP3    H2 4849   1.986   2.786   3.571
 1615TIP3   OH2 4850   4.743   0.879   4.039
 1615TIP3    H1 4851   4.706   0.835   4.116
 1615TIP3    H2 4852   4.815   0.932   4.075
 1616TIP3   OH2 4853   6.162   4.515   2.932
 1616TIP3    H1 4854   6.208   4.490   3.012
 1616TIP3    H2 4855   6.090   4.571   2.962
 1617TIP3   OH2 4856   3.094   2.837   4.562
 1617TIP3    H1 4857   3.104   2.832   4.658
 1617TIP3    H2 4858   3.151   2.909   4.536
 1618TIP3   OH2 4859   3.939   4.396   2.516
 1618TIP3    H1 4860   3.864   4.352   2.476
 1618TIP3    H2 4861   4.008   4.390   2.451
 1619TIP3   OH2 4862   3.070   3.178   2.612
 1619TIP3    H1 4863   3.076   3.086   2.638
 1619TIP3    H2 4864   3.058   3.225   2.695
 1620TIP3   OH2 4865   6.141   1.868   2.033
 1620TIP3    H1 4866   6.062   1.836   1.989
 1620TIP3    H2 4867   6.164   1.948   1.986
 1621TIP3   OH2 4868   0.607   2.178   5.158
 1621TIP3    H1 4869   0.556   2.218   5.088
 1621TIP3    H2 4870   0.566   2.093   5.173
 1622TIP3   OH2 4871   1.121   3.058   2.322
 1622TIP3    H1 4872   1.204   3.029   2.284
 1622TIP3    H2 4873   1.061   2.985   2.306
 1623TIP3   OH2 4874   1.457   5.135   4.484
 1623TIP3    H1 4875   1.472   5.059   4.427
 1623TIP3    H2 4876   1.476   5.103   4.572
 1624TIP3   OH2 4877   1.644   5.816   1.272
 1624TIP3    H1 4878   1.699   5.816   1.194
 1624TIP3    H2 4879   1.591   5.736   1.264
 1625TIP3   OH2 4880   1.780   4.092   2.149
 1625TIP3    H1 4881   1.797   4.166   2.207
 1625TIP3    H2 4882   1.785   4.129   2.061
 1626TIP3   OH2 4883   4.926   1.634   4.184
 1626TIP3    H1 4884   4.963   1.674   4.263
 1626TIP3    H2 4885   4.882   1.555   4.215
 1627TIP3   OH2 4886   4.004   5.911   0.935
 1627TIP3    H1 4887   4.058   5.973   0.887
 1627TIP3    H2 4888   4.005   5.942   1.025
 1628TIP3   OH2 4889   5.965   0.733   1.873
 1628TIP3    H1 4890   5.947   0.757   1.782
 1628TIP3    H2 4891   5.881   0.704   1.908
 1629TIP3   OH2 4892   4.368   5.562   3.704
 1629TIP3    H1 4893   4.332   5.645   3.671
 1629TIP3    H2 4894   4.342   5.497   3.639
 1630TIP3   OH2 4895   4.851   2.865   1.745
 1630TIP3    H1 4896   4.827   2.794   1.805
 1630TIP3    H2 4897   4.934   2.836   1.706
 1631TIP3   OH2 4898   5.452   5.570   0.670
 1631TIP3    H1 4899   5.510   5.495   0.660
 1631TIP3    H2 4900   5.465   5.620   0.589
 1632TIP3   OH2 4901   1.971   5.252   3.602
 1632TIP3    H1 4902   2.058   5.270   3.638
 1632TIP3    H2 4903   1.912   5.261   3.677
 1633TIP3   OH2 4904   4.802   3.558   3.749
 1633TIP3    H1 4905   4.884   3.592   3.785
 1633TIP3    H2 4906   4.774   3.492   3.813
 1634TIP3   OH2 4907   4.699   3.461   4.325
 1634TIP3    H1 4908   4.710   3.549   4.362
 1634TIP3    H2 4909   4.669   3.476   4.236
 1635TIP3   OH2 4910   6.257   5.827   1.377
 1635TIP3    H1 4911   6.237   5.918   1.400
 1635TIP3    H2 4912   6.323   5.800   1.441
 1636TIP3   OH2 4913   1.548   2.856   0.959
 1636TIP3    H1 4914   1.539   2.942   0.919
 1636TIP3    H2 4915   1.542   2.795   0.885
 1637TIP3   OH2 4916   4.294   4.715   1.935
 1637TIP3    H1 4917   4.302   4.779   2.006
 1637TIP3    H2 4918   4.281   4.767   1.856
 1638TIP3   OH2 4919   1.012   1.400   3.648
 1638TIP3    H1 4920   0.987   1.490   3.670
 1638TIP3    H2 4921   1.043   1.404   3.558
 1639TIP3   OH2 4922   5.915   4.626   2.014
 1639TIP3    H1 4923   5.959   4.702   1.977
 1639TIP3    H2 4924   5.887   4.575   1.938
 1640TIP3   OH2 4925   3.519   0.384   4.927
 1640TIP3    H1 4926   3.494   0.306   4.876
 1640TIP3    H2 4927   3.478   0.457   4.881
 1641TIP3   OH2 4928   5.707   0.389   3.422
 1641TIP3    H1 4929   5.696   0.324   3.492
 1641TIP3    H2 4930   5.703   0.474   3.467
 1642TIP3   OH2 4931   4.644   3.029   1.492
 1642TIP3    H1 4932   4.721   3.048   1.546
 1642TIP3    H2 4933   4.604   3.114   1.477
 1643TIP3   OH2 4934   5.693   3.614   2.780
 1643TIP3    H1 4935   5.766   3.631   2.721
 1643TIP3    H2 4936   5.734   3.587   2.863
 1644TIP3   OH2 4937   2.524   0.555   3.747
 1644TIP3    H1 4938   2.536   0.593   3.660
 1644TIP3    H2 4939   2.608   0.570   3.791
 1645TIP3   OH2 4940   6.189   5.474   2.651
 1645TIP3    H1 4941   6.208   5.558   2.694
 1645TIP3    H2 4942   6.105   5.446   2.687
 1646TIP3   OH2 4943   1.161   0.066   2.346
 1646TIP3    H1 4944   1.105   0.035   2.274
 1646TIP3    H2 4945   1.179   0.157   2.324
 1647TIP3   OH2 4946   0.950   3.092   4.935
 1647TIP3    H1 4947   0.994   3.014   4.969
 1647TIP3    H2 4948   0.943   3.150   5.011
 1648TIP3   OH2 4949   4.532   0.618   1.216
 1648TIP3    H1 4950   4.441   0.597   1.197
 1648TIP3    H2 4951   4.575   0.615   1.131
 1649TIP3   OH2 4952   0.282   4.719   2.990
 1649TIP3    H1 4953   0.203   4.751   3.034
 1649TIP3    H2 4954   0.264   4.729   2.897
 1650TIP3   OH2 4955   4.147   5.401   4.807
 1650TIP3    H1 4956   4.168   5.316   4.769
 1650TIP3    H2 4957   4.087   5.381   4.879
 1651TIP3   OH2 4958   2.771   3.868   3.251
 1651TIP3    H1 4959   2.804   3.840   3.166
 1651TIP3    H2 4960   2.849   3.890   3.301
 1652TIP3   OH2 4961   5.574   4.012   3.341
 1652TIP3    H1 4962   5.509   4.083   3.341
 1652TIP3    H2 4963   5.600   4.004   3.249
 1653TIP3   OH2 4964   2.677   4.293   2.777
 1653TIP3    H1 4965   2.695   4.222   2.714
 1653TIP3    H2 4966   2.679   4.373   2.724
 1654TIP3   OH2 4967   2.052   4.485   3.743
 1654TIP3    H1 4968   2.051   4.392   3.720
 1654TIP3    H2 4969   1.996   4.527   3.677
 1655TIP3   OH2 4970   4.414   2.271   2.355
 1655TIP3    H1 4971   4.367   2.324   2.291
 1655TIP3    H2 4972   4.458   2.204   2.303
 1656TIP3   OH2 4973   5.590   1.278   4.877
 1656TIP3    H1 4974   5.553   1.324   4.802
 1656TIP3    H2 4975   5.561   1.328   4.953
 1657TIP3   OH2 4976   1.300   2.696   4.144
 1657TIP3    H1 4977   1.228   2.638   4.120
 1657TIP3    H2 4978   1.374   2.665   4.092
 1658TIP3   OH2 4979   1.609   4.376   3.287
 1658TIP3    H1 4980   1.702   4.357   3.300
 1658TIP3    H2 4981   1.581   4.419   3.368
 1659TIP3   OH2 4982   1.918   3.317   4.224
 1659TIP3    H1 4983   1.829   3.299   4.255
 1659TIP3    H2 4984   1.937   3.405   4.256
 1660TIP3   OH2 4985   3.266   2.630   3.678
 1660TIP3    H1 4986   3.228   2.657   3.762
 1660TIP3    H2 4987   3.347   2.681   3.670
 1661TIP3   OH2 4988   1.362   5.343   3.146
 1661TIP3    H1 4989   1.307   5.402   3.199
 1661TIP3    H2 4990   1.374   5.390   3.064
 1662TIP3   OH2 4991   2.754   3.160   2.823
 1662TIP3    H1 4992   2.795   3.149   2.738
 1662TIP3    H2 4993   2.775   3.080   2.871
 1663TIP3   OH2 4994   1.736   4.524   4.540
 1663TIP3    H1 4995   1.815   4.565   4.574
 1663TIP3    H2 4996   1.685   4.499   4.617
 1664TIP3   OH2 4997   5.817   1.635   4.663
 1664TIP3    H1 4998   5.807   1.549   4.704
 1664TIP3    H2 4999   5.729   1.658   4.634
 1665TIP3   OH2 5000   0.826   4.133   1.081
 1665TIP3    H1 5001   0.760   4.194   1.048
 1665TIP3    H2 5002   0.782   4.049   1.085
 1666TIP3   OH2 5003   1.664   4.370   1.849
 1666TIP3    H1 5004   1.629   4.378   1.938
 1666TIP3    H2 5005   1.649   4.456   1.810
 1667TIP3   OH2 5006   4.019   2.079   1.339
 1667TIP3    H1 5007   3.945   2.140   1.329
 1667TIP3    H2 5008   4.095   2.136   1.354
 1668TIP3   OH2 5009   1.943   0.935   1.938
 1668TIP3    H1 5010   1.932   0.958   2.030
 1668TIP3    H2 5011   1.951   0.840   1.938
 1669TIP3   OH2 5012   1.868   0.479   2.466
 1669TIP3    H1 5013   1.942   0.419   2.474
 1669TIP3    H2 5014   1.858   0.492   2.372
 1670TIP3   OH2 5015   0.521   0.441   3.401
 1670TIP3    H1 5016   0.514   0.475   3.311
 1670TIP3    H2 5017   0.613   0.413   3.408
 1671TIP3   OH2 5018   0.138   5.803   2.760
 1671TIP3    H1 5019   0.218   5.773   2.803
 1671TIP3    H2 5020   0.162   5.811   2.668
 1672TIP3   OH2 5021   4.848   2.820   2.783
 1672TIP3    H1 5022   4.766   2.798   2.828
 1672TIP3    H2 5023   4.822   2.882   2.715
 1673TIP3   OH2 5024   3.075   2.834   1.402
 1673TIP3    H1 5025   3.124   2.916   1.412
 1673TIP3    H2 5026   3.014   2.852   1.330
 1674TIP3   OH2 5027   3.818   2.389   0.962
 1674TIP3    H1 5028   3.835   2.295   0.964
 1674TIP3    H2 5029   3.860   2.423   1.041
 1675TIP3   OH2 5030   5.490   3.875   0.232
 1675TIP3    H1 5031   5.405   3.908   0.204
 1675TIP3    H2 5032   5.541   3.870   0.152
 1676TIP3   OH2 5033   2.368   4.372   2.561
 1676TIP3    H1 5034   2.305   4.417   2.505
 1676TIP3    H2 5035   2.422   4.322   2.500
 1677TIP3   OH2 5036   1.913   3.436   2.700
 1677TIP3    H1 5037   1.927   3.342   2.703
 1677TIP3    H2 5038   1.930   3.460   2.609
 1678TIP3   OH2 5039   1.545   3.044   2.153
 1678TIP3    H1 5040   1.455   3.012   2.155
 1678TIP3    H2 5041   1.595   2.972   2.115
 1679TIP3   OH2 5042   4.546   1.610   0.534
 1679TIP3    H1 5043   4.600   1.635   0.459
 1679TIP3    H2 5044   4.549   1.515   0.536
 1680TIP3   OH2 5045   6.124   0.188   4.940
 1680TIP3    H1 5046   6.105   0.281   4.930
 1680TIP3    H2 5047   6.159   0.161   4.855
 1681TIP3   OH2 5048   0.771   2.593   1.904
 1681TIP3    H1 5049   0.691   2.645   1.907
 1681TIP3    H2 5050   0.756   2.529   1.835
 1682TIP3   OH2 5051   4.801   1.959   3.371
 1682TIP3    H1 5052   4.764   2.037   3.412
 1682TIP3    H2 5053   4.739   1.937   3.302
 1683TIP3   OH2 5054   5.289   2.871   3.798
 1683TIP3    H1 5055   5.306   2.816   3.875
 1683TIP3    H2 5056   5.218   2.929   3.825
 1684TIP3   OH2 5057   3.832   3.310   0.928
 1684TIP3    H1 5058   3.880   3.267   0.858
 1684TIP3    H2 5059   3.899   3.329   0.994
 1685TIP3   OH2 5060   1.300   2.746   0.585
 1685TIP3    H1 5061   1.217   2.712   0.620
 1685TIP3    H2 5062   1.293   2.733   0.490
 1686TIP3   OH2 5063   3.663   3.535   1.231
 1686TIP3    H1 5064   3.606   3.545   1.155
 1686TIP3    H2 5065   3.629   3.598   1.295
 1687TIP3   OH2 5066   4.678   4.791   3.342
 1687TIP3    H1 5067   4.759   4.777   3.391
 1687TIP3    H2 5068   4.703   4.774   3.251
 1688TIP3   OH2 5069   5.690   2.768   4.601
 1688TIP3    H1 5070   5.766   2.826   4.597
 1688TIP3    H2 5071   5.708   2.710   4.675
 1689TIP3   OH2 5072   6.128   1.545   2.430
 1689TIP3    H1 5073   6.060   1.593   2.383
 1689TIP3    H2 5074   6.117   1.454   2.401
 1690TIP3   OH2 5075   5.248   5.233   3.633
 1690TIP3    H1 5076   5.271   5.226   3.726
 1690TIP3    H2 5077   5.168   5.182   3.624
 1691TIP3   OH2 5078   1.434   3.787   4.772
 1691TIP3    H1 5079   1.351   3.763   4.732
 1691TIP3    H2 5080   1.432   3.882   4.779
 1692TIP3   OH2 5081   0.526   5.644   3.593
 1692TIP3    H1 5082   0.594   5.645   3.525
 1692TIP3    H2 5083   0.489   5.732   3.591
 1693TIP3   OH2 5084   4.780   3.529   0.962
 1693TIP3    H1 5085   4.873   3.510   0.950
 1693TIP3    H2 5086   4.734   3.455   0.921
 1694TIP3   OH2 5087   5.531   3.714   4.010
 1694TIP3    H1 5088   5.572   3.628   4.009
 1694TIP3    H2 5089   5.531   3.740   4.102
 1695TIP3   OH2 5090   3.731   2.452   1.444
 1695TIP3    H1 5091   3.758   2.373   1.492
 1695TIP3    H2 5092   3.751   2.524   1.504
 1696TIP3   OH2 5093   1.421   1.768   2.529
 1696TIP3    H1 5094   1.445   1.835   2.593
 1696TIP3    H2 5095   1.482   1.782   2.457
 1697TIP3   OH2 5096   1.252   2.711   1.909
 1697TIP3    H1 5097   1.160   2.736   1.918
 1697TIP3    H2 5098   1.255   2.618   1.931
 1698TIP3   OH2 5099   1.120   5.115   2.121
 1698TIP3    H1 5100   1.059   5.187   2.133
 1698TIP3    H2 5101   1.120   5.099   2.026
 1699TIP3   OH2 5102   4.139   2.111   4.155
 1699TIP3    H1 5103   4.170   2.170   4.087
 1699TIP3    H2 5104   4.150   2.160   4.237
 1700TIP3   OH2 5105   3.881   0.454   4.286
 1700TIP3    H1 5106   3.955   0.463   4.346
 1700TIP3    H2 5107   3.818   0.519   4.316
 1701TIP3   OH2 5108   1.503   3.629   4.407
 1701TIP3    H1 5109   1.517   3.586   4.323
 1701TIP3    H2 5110   1.429   3.688   4.392
 1702TIP3   OH2 5111   1.732   1.724   4.319
 1702TIP3    H1 5112   1.765   1.650   4.369
 1702TIP3    H2 5113   1.704   1.787   4.385
 1703TIP3   OH2 5114   1.747   2.263   3.639
 1703TIP3    H1 5115   1.772   2.290   3.550
 1703TIP3    H2 5116   1.652   2.272   3.642
 1704TIP3   OH2 5117   2.371   1.686   0.306
 1704TIP3    H1 5118   2.410   1.750   0.366
 1704TIP3    H2 5119   2.446   1.636   0.273
 1705TIP3   OH2 5120   0.414   4.079   0.438
 1705TIP3    H1 5121   0.415   3.987   0.465
 1705TIP3    H2 5122   0.325   4.108   0.455
 1706TIP3   OH2 5123   1.463   2.152   4.816
 1706TIP3    H1 5124   1.559   2.156   4.821
 1706TIP3    H2 5125   1.442   2.064   4.845
 1707TIP3   OH2 5126   6.287   2.084   2.219
 1707TIP3    H1 5127   6.357   2.040   2.267
 1707TIP3    H2 5128   6.210   2.027   2.232
 1708TIP3   OH2 5129   2.449   0.380   2.311
 1708TIP3    H1 5130   2.406   0.453   2.356
 1708TIP3    H2 5131   2.542   0.404   2.310
 1709TIP3   OH2 5132   2.916   1.024   2.951
 1709TIP3    H1 5133   2.959   1.026   2.866
 1709TIP3    H2 5134   2.836   0.974   2.937
 1710TIP3   OH2 5135   1.798   0.306   0.057
 1710TIP3    H1 5136   1.874   0.269   0.102
 1710TIP3    H2 5137   1.724   0.284   0.114
 1711TIP3   OH2 5138   3.807   5.150   1.104
 1711TIP3    H1 5139   3.800   5.088   1.031
 1711TIP3    H2 5140   3.742   5.217   1.085
 1712TIP3   OH2 5141   3.419   0.547   3.623
 1712TIP3    H1 5142   3.463   0.462   3.624
 1712TIP3    H2 5143   3.490   0.610   3.634
 1713TIP3   OH2 5144   3.692   1.691   1.009
 1713TIP3    H1 5145   3.711   1.731   1.093
 1713TIP3    H2 5146   3.651   1.761   0.958
 1714TIP3   OH2 5147   4.354   1.304   1.393
 1714TIP3    H1 5148   4.267   1.323   1.427
 1714TIP3    H2 5149   4.347   1.321   1.299
 1715TIP3   OH2 5150   1.211   2.953   3.556
 1715TIP3    H1 5151   1.212   2.950   3.652
 1715TIP3    H2 5152   1.204   3.046   3.536
 1716TIP3   OH2 5153   6.297   0.126   0.859
 1716TIP3    H1 5154   6.362   0.084   0.803
 1716TIP3    H2 5155   6.337   0.208   0.886
 1717TIP3   OH2 5156   0.033   4.639   2.816
 1717TIP3    H1 5157  -0.028   4.566   2.829
 1717TIP3    H2 5158   0.099   4.605   2.756
 1718TIP3   OH2 5159   4.817   5.482   3.565
 1718TIP3    H1 5160   4.757   5.412   3.538
 1718TIP3    H2 5161   4.764   5.561   3.561
 1719TIP3   OH2 5162   1.786   5.768   2.698
 1719TIP3    H1 5163   1.836   5.766   2.780
 1719TIP3    H2 5164   1.852   5.770   2.629
 1720TIP3   OH2 5165   6.306   4.574   3.683
 1720TIP3    H1 5166   6.390   4.604   3.717
 1720TIP3    H2 5167   6.276   4.508   3.745
 1721TIP3   OH2 5168   6.231   0.614   0.593
 1721TIP3    H1 5169   6.280   0.533   0.601
 1721TIP3    H2 5170   6.233   0.652   0.681
 1722TIP3   OH2 5171   1.289   1.642   5.123
 1722TIP3    H1 5172   1.194   1.651   5.123
 1722TIP3    H2 5173   1.321   1.721   5.168
 1723TIP3   OH2 5174   3.968   1.617   4.470
 1723TIP3    H1 5175   4.017   1.575   4.399
 1723TIP3    H2 5176   3.980   1.558   4.545
 1724TIP3   OH2 5177  -0.002   2.851   0.610
 1724TIP3    H1 5178  -0.009   2.884   0.699
 1724TIP3    H2 5179   0.089   2.869   0.585
 1725TIP3   OH2 5180   5.168   1.080   2.813
 1725TIP3    H1 5181   5.202   1.007   2.864
 1725TIP3    H2 5182   5.236   1.097   2.748
 1726TIP3   OH2 5183   4.356   5.784   0.960
 1726TIP3    H1 5184   4.280   5.753   0.912
 1726TIP3    H2 5185   4.405   5.837   0.896
 1727TIP3   OH2 5186   0.751   0.730   2.095
 1727TIP3    H1 5187   0.738   0.642   2.058
 1727TIP3    H2 5188   0.665   0.753   2.131
 1728TIP3   OH2 5189   5.303   1.611   2.606
 1728TIP3    H1 5190   5.282   1.667   2.532
 1728TIP3    H2 5191   5.352   1.667   2.666
 1729TIP3   OH2 5192   2.152   1.595   2.472
 1729TIP3    H1 5193   2.130   1.514   2.426
 1729TIP3    H2 5194   2.159   1.569   2.564
 1730TIP3   OH2 5195   3.853   4.716   5.035
 1730TIP3    H1 5196   3.809   4.752   4.958
 1730TIP3    H2 5197   3.891   4.634   5.004
 1731TIP3   OH2 5198   2.411   2.836   2.254
 1731TIP3    H1 5199   2.382   2.780   2.182
 1731TIP3    H2 5200   2.492   2.876   2.221
 1732TIP3   OH2 5201   5.063   4.312   4.305
 1732TIP3    H1 5202   5.119   4.306   4.382
 1732TIP3    H2 5203   4.979   4.277   4.335
 1733TIP3   OH2 5204   0.142   4.492   4.097
 1733TIP3    H1 5205   0.130   4.405   4.134
 1733TIP3    H2 5206   0.147   4.550   4.173
 1734TIP3   OH2 5207   5.518   3.777   5.150
 1734TIP3    H1 5208   5.515   3.707   5.085
 1734TIP3    H2 5209   5.609   3.808   5.148
 1735TIP3   OH2 5210   0.632   3.149   3.716
 1735TIP3    H1 5211   0.616   3.219   3.779
 1735TIP3    H2 5212   0.572   3.079   3.742
 1736TIP3   OH2 5213   5.393   3.091   5.104
 1736TIP3    H1 5214   5.373   3.006   5.065
 1736TIP3    H2 5215   5.483   3.082   5.137
 1737TIP3   OH2 5216   5.276   2.218   3.882
 1737TIP3    H1 5217   5.257   2.192   3.792
 1737TIP3    H2 5218   5.236   2.305   3.890
 1738TIP3   OH2 5219   0.287   2.792   1.843
 1738TIP3    H1 5220   0.272   2.800   1.937
 1738TIP3    H2 5221   0.297   2.882   1.812
 1739TIP3   OH2 5222   2.625   1.253   1.532
 1739TIP3    H1 5223   2.609   1.158   1.536
 1739TIP3    H2 5224   2.619   1.281   1.623
 1740TIP3   OH2 5225   2.642   5.554   4.777
 1740TIP3    H1 5226   2.560   5.599   4.759
 1740TIP3    H2 5227   2.675   5.527   4.691
 1741TIP3   OH2 5228   2.095   3.287   3.060
 1741TIP3    H1 5229   2.053   3.288   2.974
 1741TIP3    H2 5230   2.142   3.204   3.062
 1742TIP3   OH2 5231   6.132   2.901   3.355
 1742TIP3    H1 5232   6.181   2.851   3.421
 1742TIP3    H2 5233   6.045   2.912   3.394
 1743TIP3   OH2 5234   1.119   4.657   2.133
 1743TIP3    H1 5235   1.150   4.578   2.176
 1743TIP3    H2 5236   1.153   4.651   2.044
 1744TIP3   OH2 5237   4.313   1.266   3.844
 1744TIP3    H1 5238   4.340   1.226   3.761
 1744TIP3    H2 5239   4.373   1.340   3.855
 1745TIP3   OH2 5240   2.327   1.887   1.381
 1745TIP3    H1 5241   2.232   1.881   1.383
 1745TIP3    H2 5242   2.354   1.831   1.309
 1746TIP3   OH2 5243   1.121   2.408   0.841
 1746TIP3    H1 5244   1.214   2.388   0.851
 1746TIP3    H2 5245   1.113   2.501   0.863
 1747TIP3   OH2 5246   0.355   2.894   2.485
 1747TIP3    H1 5247   0.342   2.946   2.405
 1747TIP3    H2 5248   0.444   2.914   2.512
 1748TIP3   OH2 5249   1.164   3.969   5.098
 1748TIP3    H1 5250   1.137   3.982   5.189
 1748TIP3    H2 5251   1.256   3.941   5.103
 1749TIP3   OH2 5252   3.523   4.537   2.981
 1749TIP3    H1 5253   3.521   4.464   3.043
 1749TIP3    H2 5254   3.477   4.503   2.904
 1750TIP3   OH2 5255   0.394   5.335   0.369
 1750TIP3    H1 5256   0.419   5.418   0.410
 1750TIP3    H2 5257   0.301   5.325   0.389
 1751TIP3   OH2 5258   1.688   5.158   2.260
 1751TIP3    H1 5259   1.700   5.148   2.355
 1751TIP3    H2 5260   1.734   5.239   2.239
 1752TIP3   OH2 5261   2.043   2.052   2.549
 1752TIP3    H1 5262   2.112   2.032   2.486
 1752TIP3    H2 5263   2.045   1.978   2.611
 1753TIP3   OH2 5264   0.672   5.170   4.438
 1753TIP3    H1 5265   0.592   5.202   4.396
 1753TIP3    H2 5266   0.653   5.175   4.532
 1754TIP3   OH2 5267   1.963   1.799   2.347
 1754TIP3    H1 5268   1.914   1.729   2.303
 1754TIP3    H2 5269   1.989   1.761   2.431
 1755TIP3   OH2 5270   5.992   4.819   1.849
 1755TIP3    H1 5271   6.061   4.773   1.802
 1755TIP3    H2 5272   6.000   4.910   1.820
 1756TIP3   OH2 5273   1.825   0.325   4.561
 1756TIP3    H1 5274   1.904   0.299   4.513
 1756TIP3    H2 5275   1.845   0.412   4.595
 1757TIP3   OH2 5276   3.357   2.207   3.653
 1757TIP3    H1 5277   3.432   2.163   3.615
 1757TIP3    H2 5278   3.285   2.189   3.593
 1758TIP3   OH2 5279   1.494   0.598   0.335
 1758TIP3    H1 5280   1.499   0.581   0.241
 1758TIP3    H2 5281   1.586   0.605   0.363
 1759TIP3   OH2 5282   4.580   4.676   1.951
 1759TIP3    H1 5283   4.619   4.731   1.884
 1759TIP3    H2 5284   4.645   4.609   1.968
 1760TIP3   OH2 5285   1.729   3.498   3.359
 1760TIP3    H1 5286   1.728   3.592   3.378
 1760TIP3    H2 5287   1.666   3.461   3.422
 1761TIP3   OH2 5288   5.194   5.872   4.253
 1761TIP3    H1 5289   5.106   5.865   4.217
 1761TIP3    H2 5290   5.186   5.937   4.323
 1762TIP3   OH2 5291   2.805   5.095   1.986
 1762TIP3    H1 5292   2.772   5.185   1.991
 1762TIP3    H2 5293   2.749   5.052   1.922
 1763TIP3   OH2 5294   5.021   0.454   4.366
 1763TIP3    H1 5295   4.963   0.466   4.291
 1763TIP3    H2 5296   4.979   0.386   4.418
 1764TIP3   OH2 5297   1.434   4.055   4.803
 1764TIP3    H1 5298   1.427   4.137   4.755
 1764TIP3    H2 5299   1.461   4.082   4.891
 1765TIP3   OH2 5300   0.825   2.101   4.397
 1765TIP3    H1 5301   0.876   2.028   4.433
 1765TIP3    H2 5302   0.868   2.179   4.432
 1766TIP3   OH2 5303   2.965   3.662   4.586
 1766TIP3    H1 5304   2.875   3.669   4.555
 1766TIP3    H2 5305   2.985   3.748   4.622
 1767TIP3   OH2 5306   1.823  -0.009   4.327
 1767TIP3    H1 5307   1.900  -0.063   4.343
 1767TIP3    H2 5308   1.855   0.081   4.333
 1768TIP3   OH2 5309   4.675   5.105   4.395
 1768TIP3    H1 5310   4.761   5.076   4.425
 1768TIP3    H2 5311   4.651   5.176   4.454
 1769TIP3   OH2 5312   5.280   5.334   3.297
 1769TIP3    H1 5313   5.329   5.373   3.224
 1769TIP3    H2 5314   5.189   5.336   3.268
 1770TIP3   OH2 5315   0.437   3.194   1.058
 1770TIP3    H1 5316   0.442   3.225   1.148
 1770TIP3    H2 5317   0.462   3.270   1.005
 1771TIP3   OH2 5318   2.859   0.346   2.983
 1771TIP3    H1 5319   2.929   0.360   3.048
 1771TIP3    H2 5320   2.837   0.434   2.953
 1772TIP3   OH2 5321   5.499   0.774   0.688
 1772TIP3    H1 5322   5.413   0.810   0.707
 1772TIP3    H2 5323   5.490   0.731   0.604
 1773TIP3   OH2 5324   3.770   2.008   4.229
 1773TIP3    H1 5325   3.849   1.961   4.257
 1773TIP3    H2 5326   3.803   2.084   4.182
 1774TIP3   OH2 5327   2.330   1.313   3.972
 1774TIP3    H1 5328   2.379   1.347   4.047
 1774TIP3    H2 5329   2.246   1.287   4.008
 1775TIP3   OH2 5330   2.710   0.837   2.902
 1775TIP3    H1 5331   2.658   0.816   2.980
 1775TIP3    H2 5332   2.767   0.761   2.891
 1776TIP3   OH2 5333   2.527   4.375   0.457
 1776TIP3    H1 5334   2.512   4.281   0.452
 1776TIP3    H2 5335   2.622   4.384   0.468
 1777TIP3   OH2 5336   3.077   3.158   0.764
 1777TIP3    H1 5337   3.131   3.183   0.839
 1777TIP3    H2 5338   3.028   3.082   0.795
 1778TIP3   OH2 5339   2.096   2.718   4.613
 1778TIP3    H1 5340   2.109   2.625   4.595
 1778TIP3    H2 5341   2.007   2.724   4.647
 1779TIP3   OH2 5342   3.576   3.164   0.092
 1779TIP3    H1 5343   3.583   3.168  -0.003
 1779TIP3    H2 5344   3.492   3.206   0.112
 1780TIP3   OH2 5345   6.076   4.014   2.760
 1780TIP3    H1 5346   6.006   4.041   2.700
 1780TIP3    H2 5347   6.132   4.091   2.767
 1781TIP3   OH2 5348   2.929   0.652   2.952
 1781TIP3    H1 5349   3.010   0.655   2.902
 1781TIP3    H2 5350   2.956   0.662   3.043
 1782TIP3   OH2 5351   2.400   1.857   0.829
 1782TIP3    H1 5352   2.347   1.836   0.751
 1782TIP3    H2 5353   2.429   1.772   0.861
 1783TIP3   OH2 5354   4.868   3.113   4.048
 1783TIP3    H1 5355   4.825   3.167   3.982
 1783TIP3    H2 5356   4.842   3.152   4.131
 1784TIP3   OH2 5357   3.185   2.381   1.984
 1784TIP3    H1 5358   3.214   2.304   2.033
 1784TIP3    H2 5359   3.126   2.428   2.043
 1785TIP3   OH2 5360   5.579   3.224   3.869
 1785TIP3    H1 5361   5.666   3.224   3.908
 1785TIP3    H2 5362   5.554   3.131   3.867
 1786TIP3   OH2 5363   2.305   4.612   0.927
 1786TIP3    H1 5364   2.400   4.618   0.921
 1786TIP3    H2 5365   2.272   4.667   0.856
 1787TIP3   OH2 5366   4.097   1.649   5.037
 1787TIP3    H1 5367   4.176   1.637   5.089
 1787TIP3    H2 5368   4.045   1.570   5.053
 1788TIP3   OH2 5369   5.097   0.744   2.167
 1788TIP3    H1 5370   5.085   0.699   2.250
 1788TIP3    H2 5371   5.027   0.709   2.110
 1789TIP3   OH2 5372   3.285   2.620   1.826
 1789TIP3    H1 5373   3.255   2.545   1.876
 1789TIP3    H2 5374   3.223   2.690   1.848
 1790TIP3   OH2 5375   5.294   3.373   3.101
 1790TIP3    H1 5376   5.330   3.323   3.027
 1790TIP3    H2 5377   5.358   3.443   3.115
 1791TIP3   OH2 5378   4.755   2.404   0.312
 1791TIP3    H1 5379   4.798   2.373   0.392
 1791TIP3    H2 5380   4.685   2.461   0.343
 1792TIP3   OH2 5381   0.739   3.664   3.867
 1792TIP3    H1 5382   0.811   3.687   3.926
 1792TIP3    H2 5383   0.682   3.741   3.867
 1793TIP3   OH2 5384   4.020   0.402   3.136
 1793TIP3    H1 5385   4.115   0.414   3.130
 1793TIP3    H2 5386   4.007   0.342   3.209
 1794TIP3   OH2 5387   1.957   4.946   4.682
 1794TIP3    H1 5388   1.973   4.882   4.612
 1794TIP3    H2 5389   2.044   4.979   4.704
 1795TIP3   OH2 5390   0.118   0.322   1.792
 1795TIP3    H1 5391   0.134   0.284   1.706
 1795TIP3    H2 5392   0.205   0.329   1.832
 1796TIP3   OH2 5393   2.723   3.137   4.219
 1796TIP3    H1 5394   2.727   3.135   4.314
 1796TIP3    H2 5395   2.716   3.046   4.193
 1797TIP3   OH2 5396   6.269   4.082   0.734
 1797TIP3    H1 5397   6.346   4.038   0.767
 1797TIP3    H2 5398   6.271   4.169   0.775
 1798TIP3   OH2 5399   1.104   3.520   1.285
 1798TIP3    H1 5400   1.168   3.590   1.276
 1798TIP3    H2 5401   1.147   3.456   1.342
 1799TIP3   OH2 5402   3.095   2.526   2.998
 1799TIP3    H1 5403   3.109   2.456   3.062
 1799TIP3    H2 5404   3.181   2.541   2.960
 1800TIP3   OH2 5405   1.283   4.139   1.544
 1800TIP3    H1 5406   1.368   4.180   1.561
 1800TIP3    H2 5407   1.219   4.206   1.568
 1801TIP3   OH2 5408   1.944   1.459   0.343
 1801TIP3    H1 5409   1.945   1.554   0.342
 1801TIP3    H2 5410   2.033   1.434   0.369
 1802TIP3   OH2 5411   0.610   5.158   1.605
 1802TIP3    H1 5412   0.694   5.117   1.583
 1802TIP3    H2 5413   0.563   5.163   1.522
 1803TIP3   OH2 5414   3.951   1.864   5.127
 1803TIP3    H1 5415   3.964   1.934   5.063
 1803TIP3    H2 5416   3.990   1.787   5.085
 1804TIP3   OH2 5417   3.500   2.220   1.215
 1804TIP3    H1 5418   3.436   2.223   1.286
 1804TIP3    H2 5419   3.515   2.312   1.193
 1805TIP3   OH2 5420   5.839   5.091   5.016
 1805TIP3    H1 5421   5.762   5.054   5.059
 1805TIP3    H2 5422   5.913   5.060   5.068
 1806TIP3   OH2 5423   2.398   1.656   1.658
 1806TIP3    H1 5424   2.342   1.730   1.682
 1806TIP3    H2 5425   2.359   1.581   1.704
 1807TIP3   OH2 5426   4.341   0.912   0.651
 1807TIP3    H1 5427   4.310   0.895   0.740
 1807TIP3    H2 5428   4.432   0.937   0.662
 1808TIP3   OH2 5429   3.660   5.669   1.607
 1808TIP3    H1 5430   3.709   5.588   1.625
 1808TIP3    H2 5431   3.578   5.658   1.655
 1809TIP3   OH2 5432   3.567   1.657   1.945
 1809TIP3    H1 5433   3.642   1.607   1.913
 1809TIP3    H2 5434   3.605   1.740   1.975
 1810TIP3   OH2 5435   0.765   0.780   5.090
 1810TIP3    H1 5436   0.823   0.709   5.065
 1810TIP3    H2 5437   0.823   0.855   5.105
 1811TIP3   OH2 5438   5.998   0.435   1.926
 1811TIP3    H1 5439   6.067   0.472   1.981
 1811TIP3    H2 5440   5.922   0.492   1.941
 1812TIP3   OH2 5441   4.538   0.626   3.876
 1812TIP3    H1 5442   4.450   0.652   3.904
 1812TIP3    H2 5443   4.597   0.673   3.935
 1813TIP3   OH2 5444   6.061   5.707   5.198
 1813TIP3    H1 5445   6.048   5.655   5.118
 1813TIP3    H2 5446   6.126   5.773   5.173
 1814TIP3   OH2 5447   1.671   5.805   2.330
 1814TIP3    H1 5448   1.762   5.825   2.349
 1814TIP3    H2 5449   1.671   5.714   2.302
 1815TIP3   OH2 5450   4.930   1.155   1.774
 1815TIP3    H1 5451   4.914   1.225   1.711
 1815TIP3    H2 5452   4.921   1.197   1.859
 1816TIP3   OH2 5453   2.156   1.771   1.721
 1816TIP3    H1 5454   2.128   1.713   1.792
 1816TIP3    H2 5455   2.074   1.807   1.686
 1817TIP3   OH2 5456   1.562   3.335   0.714
 1817TIP3    H1 5457   1.476   3.371   0.693
 1817TIP3    H2 5458   1.570   3.345   0.809
 1818TIP3   OH2 5459   5.899   2.290   2.429
 1818TIP3    H1 5460   5.888   2.255   2.340
 1818TIP3    H2 5461   5.973   2.240   2.465
 1819TIP3   OH2 5462   2.788   0.037   3.359
 1819TIP3    H1 5463   2.790  -0.054   3.330
 1819TIP3    H2 5464   2.754   0.086   3.284
 1820TIP3   OH2 5465   0.319   2.172   4.306
 1820TIP3    H1 5466   0.349   2.199   4.219
 1820TIP3    H2 5467   0.393   2.124   4.343
 1821TIP3   OH2 5468   0.107   4.846   3.829
 1821TIP3    H1 5469   0.163   4.890   3.765
 1821TIP3    H2 5470   0.129   4.753   3.822
 1822TIP3   OH2 5471   4.337   5.435   2.361
 1822TIP3    H1 5472   4.336   5.354   2.311
 1822TIP3    H2 5473   4.245   5.456   2.374
 1823TIP3   OH2 5474   2.279   4.691   1.839
 1823TIP3    H1 5475   2.363   4.657   1.871
 1823TIP3    H2 5476   2.241   4.619   1.790
 1824TIP3   OH2 5477   3.862   0.237   3.312
 1824TIP3    H1 5478   3.858   0.158   3.367
 1824TIP3    H2 5479   3.791   0.226   3.249
 1825TIP3   OH2 5480   2.102   5.570   2.761
 1825TIP3    H1 5481   2.078   5.624   2.686
 1825TIP3    H2 5482   2.059   5.486   2.745
 1826TIP3   OH2 5483   2.449   2.087   3.680
 1826TIP3    H1 5484   2.534   2.079   3.723
 1826TIP3    H2 5485   2.420   2.177   3.700
 1827TIP3   OH2 5486   2.687   2.934   2.588
 1827TIP3    H1 5487   2.662   2.869   2.521
 1827TIP3    H2 5488   2.744   2.886   2.647
 1828TIP3   OH2 5489   4.817   5.689   3.016
 1828TIP3    H1 5490   4.879   5.663   2.947
 1828TIP3    H2 5491   4.792   5.778   2.994
 1829TIP3   OH2 5492   0.657   2.925   1.211
 1829TIP3    H1 5493   0.649   2.852   1.150
 1829TIP3    H2 5494   0.749   2.926   1.235
 1830TIP3   OH2 5495   3.861   4.429   4.461
 1830TIP3    H1 5496   3.904   4.513   4.447
 1830TIP3    H2 5497   3.909   4.368   4.406
 1831TIP3   OH2 5498   2.342   3.737   3.602
 1831TIP3    H1 5499   2.372   3.648   3.615
 1831TIP3    H2 5500   2.365   3.757   3.511
 1832TIP3   OH2 5501   3.420   0.556   4.766
 1832TIP3    H1 5502   3.467   0.617   4.708
 1832TIP3    H2 5503   3.344   0.529   4.715
 1833TIP3   OH2 5504   0.410   1.385   3.569
 1833TIP3    H1 5505   0.366   1.364   3.651
 1833TIP3    H2 5506   0.387   1.313   3.510
 1834TIP3   OH2 5507   1.250   0.351   1.813
 1834TIP3    H1 5508   1.219   0.261   1.801
 1834TIP3    H2 5509   1.344   0.342   1.829
 1835TIP3   OH2 5510   3.736   5.334   1.884
 1835TIP3    H1 5511   3.651   5.333   1.840
 1835TIP3    H2 5512   3.780   5.411   1.849
 1836TIP3   OH2 5513   3.746   3.580   0.914
 1836TIP3    H1 5514   3.836   3.610   0.916
 1836TIP3    H2 5515   3.752   3.484   0.911
 1837TIP3   OH2 5516   2.642   3.625   2.547
 1837TIP3    H1 5517   2.558   3.607   2.590
 1837TIP3    H2 5518   2.667   3.540   2.510
 1838TIP3   OH2 5519   5.674   0.168   2.672
 1838TIP3    H1 5520   5.596   0.116   2.692
 1838TIP3    H2 5521   5.720   0.176   2.755
 1839TIP3   OH2 5522   5.529   1.467   1.270
 1839TIP3    H1 5523   5.498   1.379   1.289
 1839TIP3    H2 5524   5.588   1.489   1.343
 1840TIP3   OH2 5525   0.615   4.261   0.573
 1840TIP3    H1 5526   0.566   4.185   0.542
 1840TIP3    H2 5527   0.553   4.334   0.567
 1841TIP3   OH2 5528   1.969   2.206   3.149
 1841TIP3    H1 5529   1.971   2.207   3.053
 1841TIP3    H2 5530   1.881   2.175   3.171
 1842TIP3   OH2 5531   2.333   2.425   0.075
 1842TIP3    H1 5532   2.276   2.370   0.128
 1842TIP3    H2 5533   2.414   2.432   0.125
 1843TIP3   OH2 5534   0.911   2.324   3.208
 1843TIP3    H1 5535   0.902   2.406   3.257
 1843TIP3    H2 5536   0.999   2.294   3.227
 1844TIP3   OH2 5537   2.577   3.236   0.681
 1844TIP3    H1 5538   2.635   3.302   0.644
 1844TIP3    H2 5539   2.516   3.215   0.610
 1845TIP3   OH2 5540   5.708   5.700   3.452
 1845TIP3    H1 5541   5.779   5.736   3.504
 1845TIP3    H2 5542   5.649   5.661   3.517
 1846TIP3   OH2 5543   6.055   0.831   3.269
 1846TIP3    H1 5544   6.068   0.793   3.182
 1846TIP3    H2 5545   6.076   0.924   3.257
 1847TIP3   OH2 5546   2.786   0.003   0.404
 1847TIP3    H1 5547   2.766   0.095   0.391
 1847TIP3    H2 5548   2.739  -0.020   0.484
 1848TIP3   OH2 5549   1.397   3.181   1.236
 1848TIP3    H1 5550   1.489   3.171   1.212
 1848TIP3    H2 5551   1.354   3.206   1.155
 1849TIP3   OH2 5552   2.704   4.824   4.037
 1849TIP3    H1 5553   2.654   4.744   4.048
 1849TIP3    H2 5554   2.724   4.852   4.126
 1850TIP3   OH2 5555   6.044   4.954   4.876
 1850TIP3    H1 5556   6.057   5.044   4.904
 1850TIP3    H2 5557   6.020   4.960   4.784
 1851TIP3   OH2 5558   1.897   4.208   1.923
 1851TIP3    H1 5559   1.949   4.165   1.855
 1851TIP3    H2 5560   1.836   4.264   1.874
 1852TIP3   OH2 5561   3.836   1.605   3.239
 1852TIP3    H1 5562   3.783   1.528   3.219
 1852TIP3    H2 5563   3.804   1.634   3.325
 1853TIP3   OH2 5564   4.938   1.684   0.575
 1853TIP3    H1 5565   4.894   1.599   0.585
 1853TIP3    H2 5566   4.996   1.690   0.651
 1854TIP3   OH2 5567   4.271   3.179   4.077
 1854TIP3    H1 5568   4.279   3.269   4.048
 1854TIP3    H2 5569   4.177   3.166   4.088
 1855TIP3   OH2 5570   4.608   3.747   4.619
 1855TIP3    H1 5571   4.528   3.779   4.577
 1855TIP3    H2 5572   4.678   3.778   4.562
 1856TIP3   OH2 5573   5.156   1.866   5.030
 1856TIP3    H1 5574   5.210   1.820   4.967
 1856TIP3    H2 5575   5.074   1.884   4.984
 1857TIP3   OH2 5576   0.392   5.469   4.398
 1857TIP3    H1 5577   0.484   5.497   4.394
 1857TIP3    H2 5578   0.346   5.531   4.342
 1858TIP3   OH2 5579   3.945   4.772   3.005
 1858TIP3    H1 5580   3.860   4.780   3.048
 1858TIP3    H2 5581   3.931   4.706   2.937
 1859TIP3   OH2 5582   1.259   2.349   2.363
 1859TIP3    H1 5583   1.223   2.307   2.285
 1859TIP3    H2 5584   1.269   2.278   2.426
 1860TIP3   OH2 5585   2.824   0.637   4.694
 1860TIP3    H1 5586   2.752   0.574   4.689
 1860TIP3    H2 5587   2.794   0.703   4.755
 1861TIP3   OH2 5588   0.125   4.993   4.090
 1861TIP3    H1 5589   0.198   5.046   4.058
 1861TIP3    H2 5590   0.114   4.924   4.024
 1862TIP3   OH2 5591   6.149   4.303   1.197
 1862TIP3    H1 5592   6.109   4.249   1.129
 1862TIP3    H2 5593   6.098   4.384   1.196
 1863TIP3   OH2 5594   4.638   5.342   4.589
 1863TIP3    H1 5595   4.559   5.373   4.634
 1863TIP3    H2 5596   4.683   5.288   4.654
 1864TIP3   OH2 5597   2.104   5.542   2.156
 1864TIP3    H1 5598   2.147   5.611   2.207
 1864TIP3    H2 5599   2.068   5.586   2.080
 1865TIP3   OH2 5600   4.257   3.158   3.471
 1865TIP3    H1 5601   4.315   3.141   3.545
 1865TIP3    H2 5602   4.270   3.251   3.450
 1866TIP3   OH2 5603   0.395   3.911   0.989
 1866TIP3    H1 5604   0.361   3.827   0.957
 1866TIP3    H2 5605   0.352   3.923   1.073
 1867TIP3   OH2 5606   4.170   3.540   4.334
 1867TIP3    H1 5607   4.107   3.473   4.306
 1867TIP3    H2 5608   4.116   3.608   4.374
 1868TIP3   OH2 5609   1.236   3.497   2.626
 1868TIP3    H1 5610   1.274   3.539   2.703
 1868TIP3    H2 5611   1.307   3.443   2.590
 1869TIP3   OH2 5612   5.149   0.754   1.015
 1869TIP3    H1 5613   5.116   0.706   1.090
 1869TIP3    H2 5614   5.242   0.730   1.009
 1870TIP3   OH2 5615   0.781   1.344   1.118
 1870TIP3    H1 5616   0.750   1.334   1.208
 1870TIP3    H2 5617   0.707   1.318   1.063
 1871TIP3   OH2 5618   2.067   5.545   3.750
 1871TIP3    H1 5619   2.128   5.475   3.726
 1871TIP3    H2 5620   2.120   5.624   3.749
 1872TIP3   OH2 5621   2.712   0.249   0.249
 1872TIP3    H1 5622   2.631   0.286   0.284
 1872TIP3    H2 5623   2.714   0.279   0.158
 1873TIP3   OH2 5624   1.611   4.615   1.731
 1873TIP3    H1 5625   1.564   4.690   1.765
 1873TIP3    H2 5626   1.667   4.650   1.662
 1874TIP3   OH2 5627   0.165   0.940   4.807
 1874TIP3    H1 5628   0.106   0.962   4.879
 1874TIP3    H2 5629   0.251   0.932   4.848
 1875TIP3   OH2 5630   4.176   2.607   4.074
 1875TIP3    H1 5631   4.261   2.583   4.039
 1875TIP3    H2 5632   4.185   2.699   4.099
 1876TIP3   OH2 5633   2.969   0.030   1.710
 1876TIP3    H1 5634   2.982   0.037   1.805
 1876TIP3    H2 5635   2.883  -0.012   1.702
 1877TIP3   OH2 5636   5.446   4.042   4.863
 1877TIP3    H1 5637   5.382   3.973   4.844
 1877TIP3    H2 5638   5.529   3.995   4.868
 1878TIP3   OH2 5639   0.711   3.306   0.169
 1878TIP3    H1 5640   0.781   3.241   0.165
 1878TIP3    H2 5641   0.631   3.255   0.159
 1879TIP3   OH2 5642   4.141   3.735   3.175
 1879TIP3    H1 5643   4.176   3.757   3.261
 1879TIP3    H2 5644   4.217   3.706   3.125
 1880TIP3   OH2 5645   6.011   5.602   4.960
 1880TIP3    H1 5646   5.977   5.587   4.872
 1880TIP3    H2 5647   6.007   5.516   5.002
 1881TIP3   OH2 5648   1.846   0.971   2.728
 1881TIP3    H1 5649   1.753   0.991   2.719
 1881TIP3    H2 5650   1.849   0.907   2.799
 1882TIP3   OH2 5651   0.086   2.298   2.436
 1882TIP3    H1 5652   0.128   2.355   2.371
 1882TIP3    H2 5653   0.091   2.211   2.398
 1883TIP3   OH2 5654   3.040   1.117   0.447
 1883TIP3    H1 5655   3.000   1.086   0.366
 1883TIP3    H2 5656   3.119   1.064   0.456
 1884TIP3   OH2 5657   4.313   2.686   4.945
 1884TIP3    H1 5658   4.285   2.777   4.956
 1884TIP3    H2 5659   4.271   2.639   5.017
 1885TIP3   OH2 5660   5.411   5.306   1.080
 1885TIP3    H1 5661   5.345   5.284   1.146
 1885TIP3    H2 5662   5.417   5.228   1.024
 1886TIP3   OH2 5663   5.473   5.912   1.926
 1886TIP3    H1 5664   5.565   5.939   1.922
 1886TIP3    H2 5665   5.429   5.971   1.865
 1887TIP3   OH2 5666   3.004   3.937   4.625
 1887TIP3    H1 5667   3.024   4.015   4.573
 1887TIP3    H2 5668   3.055   3.949   4.705
 1888TIP3   OH2 5669   3.131   4.977   2.947
 1888TIP3    H1 5670   3.219   4.950   2.919
 1888TIP3    H2 5671   3.146   5.054   3.001
 1889TIP3   OH2 5672   5.275   4.040   3.584
 1889TIP3    H1 5673   5.275   4.051   3.489
 1889TIP3    H2 5674   5.200   4.090   3.614
 1890TIP3   OH2 5675   4.301   0.087   5.092
 1890TIP3    H1 5676   4.214   0.125   5.078
 1890TIP3    H2 5677   4.310   0.023   5.021
 1891TIP3   OH2 5678   4.753   5.531   0.984
 1891TIP3    H1 5679   4.700   5.544   1.063
 1891TIP3    H2 5680   4.782   5.619   0.959
 1892TIP3   OH2 5681   4.546   3.864   0.955
 1892TIP3    H1 5682   4.514   3.788   1.002
 1892TIP3    H2 5683   4.624   3.834   0.910
 1893TIP3   OH2 5684   6.314   1.601   4.749
 1893TIP3    H1 5685   6.239   1.549   4.777
 1893TIP3    H2 5686   6.361   1.544   4.688
 1894TIP3   OH2 5687   3.666   0.439   3.497
 1894TIP3    H1 5688   3.636   0.380   3.567
 1894TIP3    H2 5689   3.748   0.400   3.468
 1895TIP3   OH2 5690   5.336   4.933   1.261
 1895TIP3    H1 5691   5.427   4.942   1.293
 1895TIP3    H2 5692   5.296   5.018   1.280
 1896TIP3   OH2 5693   4.898   2.697   4.815
 1896TIP3    H1 5694   4.877   2.779   4.769
 1896TIP3    H2 5695   4.912   2.724   4.906
 1897TIP3   OH2 5696   5.198   5.530   3.874
 1897TIP3    H1 5697   5.105   5.511   3.861
 1897TIP3    H2 5698   5.200   5.623   3.898
 1898TIP3   OH2 5699   0.391   4.825   1.801
 1898TIP3    H1 5700   0.455   4.765   1.762
 1898TIP3    H2 5701   0.427   4.847   1.887
 1899TIP3   OH2 5702   4.654   2.437   2.188
 1899TIP3    H1 5703   4.576   2.389   2.161
 1899TIP3    H2 5704   4.693   2.383   2.256
 1900TIP3   OH2 5705   3.189   0.809   5.117
 1900TIP3    H1 5706   3.136   0.885   5.091
 1900TIP3    H2 5707   3.141   0.771   5.191
 1901TIP3   OH2 5708   0.482   4.626   4.570
 1901TIP3    H1 5709   0.569   4.663   4.556
 1901TIP3    H2 5710   0.436   4.641   4.488
 1902TIP3   OH2 5711   5.006   4.849   1.379
 1902TIP3    H1 5712   4.946   4.823   1.309
 1902TIP3    H2 5713   5.090   4.811   1.354
 1903TIP3   OH2 5714   1.675   0.438   3.972
 1903TIP3    H1 5715   1.683   0.534   3.978
 1903TIP3    H2 5716   1.603   0.425   3.910
 1904TIP3   OH2 5717   1.924   0.140   0.545
 1904TIP3    H1 5718   1.885   0.080   0.609
 1904TIP3    H2 5719   1.966   0.207   0.598
 1905TIP3   OH2 5720   2.975   2.189   3.953
 1905TIP3    H1 5721   3.055   2.137   3.938
 1905TIP3    H2 5722   2.994   2.274   3.913
 1906TIP3   OH2 5723   1.086   5.536   4.535
 1906TIP3    H1 5724   1.052   5.461   4.584
 1906TIP3    H2 5725   1.043   5.532   4.450
 1907TIP3   OH2 5726   3.998   5.005   4.792
 1907TIP3    H1 5727   3.906   5.027   4.804
 1907TIP3    H2 5728   4.006   4.916   4.827
 1908TIP3   OH2 5729   1.722   2.186   4.506
 1908TIP3    H1 5730   1.775   2.230   4.440
 1908TIP3    H2 5731   1.638   2.169   4.463
 1909TIP3   OH2 5732   2.563   3.581   3.290
 1909TIP3    H1 5733   2.477   3.539   3.297
 1909TIP3    H2 5734   2.545   3.675   3.294
 1910TIP3   OH2 5735   3.748   5.833   4.092
 1910TIP3    H1 5736   3.738   5.806   4.183
 1910TIP3    H2 5737   3.666   5.808   4.050
 1911TIP3   OH2 5738   3.038   1.042   5.042
 1911TIP3    H1 5739   3.042   1.121   5.095
 1911TIP3    H2 5740   3.027   1.073   4.952
 1912TIP3   OH2 5741   5.967   0.392   3.661
 1912TIP3    H1 5742   5.958   0.428   3.573
 1912TIP3    H2 5743   5.951   0.298   3.651
 1913TIP3   OH2 5744   4.727   1.907   1.496
 1913TIP3    H1 5745   4.784   1.914   1.419
 1913TIP3    H2 5746   4.663   1.839   1.472
 1914TIP3   OH2 5747   4.658   0.393   4.895
 1914TIP3    H1 5748   4.647   0.485   4.870
 1914TIP3    H2 5749   4.752   0.378   4.886
 1915TIP3   OH2 5750   5.688   5.759   0.872
 1915TIP3    H1 5751   5.699   5.666   0.849
 1915TIP3    H2 5752   5.760   5.778   0.931
 1916TIP3   OH2 5753   1.061   4.323   2.446
 1916TIP3    H1 5754   1.098   4.387   2.506
 1916TIP3    H2 5755   1.079   4.238   2.487
 1917TIP3   OH2 5756   1.593   3.936   0.227
 1917TIP3    H1 5757   1.517   3.951   0.284
 1917TIP3    H2 5758   1.609   3.842   0.234
 1918TIP3   OH2 5759   1.339   0.159   1.594
 1918TIP3    H1 5760   1.366   0.243   1.557
 1918TIP3    H2 5761   1.355   0.096   1.524
 1919TIP3   OH2 5762   5.474   5.760   0.462
 1919TIP3    H1 5763   5.499   5.737   0.373
 1919TIP3    H2 5764   5.382   5.787   0.455
 1920TIP3   OH2 5765   6.295   2.642   1.295
 1920TIP3    H1 5766   6.286   2.580   1.223
 1920TIP3    H2 5767   6.227   2.617   1.357
 1921TIP3   OH2 5768   2.245   1.023   2.477
 1921TIP3    H1 5769   2.284   1.018   2.564
 1921TIP3    H2 5770   2.153   1.000   2.490
 1922TIP3   OH2 5771   5.114   0.681   4.799
 1922TIP3    H1 5772   5.169   0.677   4.877
 1922TIP3    H2 5773   5.172   0.657   4.727
 1923TIP3   OH2 5774   5.593   4.786   0.203
 1923TIP3    H1 5775   5.612   4.699   0.167
 1923TIP3    H2 5776   5.512   4.775   0.252
 1924TIP3   OH2 5777   6.132   5.314   1.435
 1924TIP3    H1 5778   6.051   5.301   1.386
 1924TIP3    H2 5779   6.113   5.386   1.495
 1925TIP3   OH2 5780   3.695   4.382   4.140
 1925TIP3    H1 5781   3.654   4.373   4.054
 1925TIP3    H2 5782   3.669   4.303   4.187
 1926TIP3   OH2 5783   5.675   2.335   1.574
 1926TIP3    H1 5784   5.623   2.369   1.647
 1926TIP3    H2 5785   5.698   2.412   1.523
 1927TIP3   OH2 5786   3.403   1.968   4.711
 1927TIP3    H1 5787   3.340   1.902   4.741
 1927TIP3    H2 5788   3.445   1.927   4.635
 1928TIP3   OH2 5789   0.563   1.675   3.650
 1928TIP3    H1 5790   0.523   1.746   3.700
 1928TIP3    H2 5791   0.533   1.689   3.560
 1929TIP3   OH2 5792   5.803   2.718   0.095
 1929TIP3    H1 5793   5.880   2.748   0.143
 1929TIP3    H2 5794   5.828   2.632   0.061
 1930TIP3   OH2 5795   2.003   3.585   2.186
 1930TIP3    H1 5796   2.017   3.586   2.091
 1930TIP3    H2 5797   2.012   3.677   2.212
 1931TIP3   OH2 5798   0.978   5.546   2.033
 1931TIP3    H1 5799   1.069   5.562   2.059
 1931TIP3    H2 5800   0.943   5.489   2.101
 1932TIP3   OH2 5801   5.355   3.732   1.236
 1932TIP3    H1 5802   5.296   3.771   1.300
 1932TIP3    H2 5803   5.337   3.638   1.241
 1933TIP3   OH2 5804   5.157   3.700   2.648
 1933TIP3    H1 5805   5.224   3.688   2.580
 1933TIP3    H2 5806   5.199   3.756   2.713
 1934TIP3   OH2 5807   5.185   1.989   4.569
 1934TIP3    H1 5808   5.264   1.960   4.523
 1934TIP3    H2 5809   5.132   2.031   4.502
 1935TIP3   OH2 5810   5.600   1.986   0.244
 1935TIP3    H1 5811   5.510   1.971   0.273
 1935TIP3    H2 5812   5.610   1.928   0.168
 1936TIP3   OH2 5813   0.872   1.638   0.405
 1936TIP3    H1 5814   0.962   1.667   0.417
 1936TIP3    H2 5815   0.876   1.542   0.408
 1937TIP3   OH2 5816   5.737   0.715   4.226
 1937TIP3    H1 5817   5.797   0.783   4.196
 1937TIP3    H2 5818   5.793   0.640   4.244
 1938TIP3   OH2 5819   3.582   5.120   0.074
 1938TIP3    H1 5820   3.519   5.152   0.138
 1938TIP3    H2 5821   3.538   5.130  -0.011
 1939TIP3   OH2 5822   3.927   4.429   0.714
 1939TIP3    H1 5823   3.837   4.454   0.692
 1939TIP3    H2 5824   3.936   4.452   0.806
 1940TIP3   OH2 5825   5.321   4.485   3.891
 1940TIP3    H1 5826   5.274   4.504   3.973
 1940TIP3    H2 5827   5.321   4.389   3.885
 1941TIP3   OH2 5828   2.368   3.360   4.574
 1941TIP3    H1 5829   2.382   3.279   4.623
 1941TIP3    H2 5830   2.306   3.410   4.628
 1942TIP3   OH2 5831   5.343   4.199   1.580
 1942TIP3    H1 5832   5.272   4.138   1.558
 1942TIP3    H2 5833   5.316   4.282   1.542
 1943TIP3   OH2 5834   6.102   3.058   2.122
 1943TIP3    H1 5835   6.091   3.034   2.030
 1943TIP3    H2 5836   6.130   2.978   2.165
 1944TIP3   OH2 5837   5.676   0.225   3.720
 1944TIP3    H1 5838   5.668   0.309   3.764
 1944TIP3    H2 5839   5.749   0.182   3.764
 1945TIP3   OH2 5840   3.844   5.176   1.626
 1945TIP3    H1 5841   3.910   5.226   1.674
 1945TIP3    H2 5842   3.867   5.188   1.534
 1946TIP3   OH2 5843   2.344   0.015   2.129
 1946TIP3    H1 5844   2.313   0.070   2.057
 1946TIP3    H2 5845   2.325  -0.074   2.100
 1947TIP3   OH2 5846   3.936   5.791   3.497
 1947TIP3    H1 5847   3.946   5.879   3.461
 1947TIP3    H2 5848   4.010   5.781   3.558
 1948TIP3   OH2 5849   3.459   0.791   3.150
 1948TIP3    H1 5850   3.503   0.778   3.234
 1948TIP3    H2 5851   3.423   0.705   3.128
 1949TIP3   OH2 5852   4.489   1.108   4.887
 1949TIP3    H1 5853   4.413   1.166   4.895
 1949TIP3    H2 5854   4.521   1.123   4.798
 1950TIP3   OH2 5855   1.146   0.454   5.121
 1950TIP3    H1 5856   1.074   0.447   5.183
 1950TIP3    H2 5857   1.166   0.364   5.097
 1951TIP3   OH2 5858   5.205   5.786   0.353
 1951TIP3    H1 5859   5.190   5.789   0.259
 1951TIP3    H2 5860   5.181   5.697   0.378
 1952TIP3   OH2 5861   4.134   0.126   1.066
 1952TIP3    H1 5862   4.092   0.104   1.149
 1952TIP3    H2 5863   4.208   0.065   1.059
 1953TIP3   OH2 5864   3.392   3.666   5.120
 1953TIP3    H1 5865   3.309   3.658   5.074
 1953TIP3    H2 5866   3.368   3.684   5.211
 1954TIP3   OH2 5867   6.193   1.980   4.033
 1954TIP3    H1 5868   6.172   2.015   4.120
 1954TIP3    H2 5869   6.143   2.034   3.972
 1955TIP3   OH2 5870   5.113   0.714   3.036
 1955TIP3    H1 5871   5.158   0.798   3.028
 1955TIP3    H2 5872   5.087   0.692   2.947
 1956TIP3   OH2 5873   5.517   0.870   1.255
 1956TIP3    H1 5874   5.567   0.789   1.247
 1956TIP3    H2 5875   5.521   0.910   1.169
 1957TIP3   OH2 5876   2.838   4.512   0.691
 1957TIP3    H1 5877   2.869   4.467   0.769
 1957TIP3    H2 5878   2.812   4.599   0.721
 1958TIP3   OH2 5879   1.959   0.526   3.415
 1958TIP3    H1 5880   1.922   0.491   3.496
 1958TIP3    H2 5881   1.935   0.462   3.348
 1959TIP3   OH2 5882   4.119   4.014   0.489
 1959TIP3    H1 5883   4.076   3.983   0.410
 1959TIP3    H2 5884   4.092   4.106   0.497
 1960TIP3   OH2 5885   2.720   4.329   2.296
 1960TIP3    H1 5886   2.802   4.303   2.254
 1960TIP3    H2 5887   2.693   4.251   2.345
 1961TIP3   OH2 5888   0.863   2.300   0.216
 1961TIP3    H1 5889   0.875   2.369   0.281
 1961TIP3    H2 5890   0.833   2.224   0.267
 1962TIP3   OH2 5891   2.372   4.164   4.442
 1962TIP3    H1 5892   2.370   4.086   4.387
 1962TIP3    H2 5893   2.403   4.234   4.384
 1963TIP3   OH2 5894   1.135   0.540   2.041
 1963TIP3    H1 5895   1.229   0.541   2.058
 1963TIP3    H2 5896   1.097   0.502   2.121
 1964TIP3   OH2 5897   4.669   1.764   4.779
 1964TIP3    H1 5898   4.688   1.830   4.846
 1964TIP3    H2 5899   4.629   1.691   4.828
 1965TIP3   OH2 5900   1.968   1.992   5.081
 1965TIP3    H1 5901   2.048   2.036   5.052
 1965TIP3    H2 5902   1.903   2.063   5.087
 1966TIP3   OH2 5903   5.039   3.345   3.066
 1966TIP3    H1 5904   5.130   3.374   3.073
 1966TIP3    H2 5905   5.031   3.312   2.977
 1967TIP3   OH2 5906   2.439   5.203   1.859
 1967TIP3    H1 5907   2.398   5.244   1.935
 1967TIP3    H2 5908   2.391   5.239   1.784
 1968TIP3   OH2 5909   3.672   2.840   3.839
 1968TIP3    H1 5910   3.672   2.933   3.859
 1968TIP3    H2 5911   3.759   2.823   3.804
 1969TIP3   OH2 5912   1.487   2.862   3.104
 1969TIP3    H1 5913   1.433   2.784   3.087
 1969TIP3    H2 5914   1.554   2.860   3.035
 1970TIP3   OH2 5915   0.340   4.763   4.345
 1970TIP3    H1 5916   0.360   4.767   4.251
 1970TIP3    H2 5917   0.414   4.806   4.387
 1971TIP3   OH2 5918   3.671   3.238   2.319
 1971TIP3    H1 5919   3.657   3.329   2.293
 1971TIP3    H2 5920   3.759   3.237   2.355
 1972TIP3   OH2 5921   2.240   5.816   1.899
 1972TIP3    H1 5922   2.240   5.721   1.888
 1972TIP3    H2 5923   2.167   5.847   1.844
 1973TIP3   OH2 5924   4.018   4.777   1.739
 1973TIP3    H1 5925   3.933   4.744   1.711
 1973TIP3    H2 5926   4.077   4.703   1.730
 1974TIP3   OH2 5927   2.835   0.527   1.619
 1974TIP3    H1 5928   2.851   0.526   1.713
 1974TIP3    H2 5929   2.740   0.516   1.610
 1975TIP3   OH2 5930   4.730   1.120  -0.014
 1975TIP3    H1 5931   4.655   1.142   0.042
 1975TIP3    H2 5932   4.733   1.025  -0.014
 1976TIP3   OH2 5933   4.450   0.357   0.071
 1976TIP3    H1 5934   4.492   0.357  -0.016
 1976TIP3    H2 5935   4.514   0.400   0.128
 1977TIP3   OH2 5936   2.027   4.266   0.132
 1977TIP3    H1 5937   2.058   4.315   0.208
 1977TIP3    H2 5938   2.067   4.179   0.141
 1978TIP3   OH2 5939   4.407   0.739   5.012
 1978TIP3    H1 5940   4.332   0.793   5.038
 1978TIP3    H2 5941   4.446   0.711   5.095
 1979TIP3   OH2 5942   2.630   3.811   2.842
 1979TIP3    H1 5943   2.697   3.847   2.900
 1979TIP3    H2 5944   2.592   3.887   2.798
 1980TIP3   OH2 5945   3.615   5.971   3.527
 1980TIP3    H1 5946   3.700   5.998   3.562
 1980TIP3    H2 5947   3.571   5.928   3.601
 1981TIP3   OH2 5948   5.813   0.779   3.345
 1981TIP3    H1 5949   5.901   0.749   3.323
 1981TIP3    H2 5950   5.811   0.870   3.317
 1982TIP3   OH2 5951   3.103   3.995   1.341
 1982TIP3    H1 5952   3.154   3.915   1.352
 1982TIP3    H2 5953   3.071   4.014   1.429
 1983TIP3   OH2 5954   0.676   2.249   4.228
 1983TIP3    H1 5955   0.725   2.185   4.281
 1983TIP3    H2 5956   0.702   2.334   4.264
 1984TIP3   OH2 5957   5.185   5.106   2.126
 1984TIP3    H1 5958   5.136   5.122   2.046
 1984TIP3    H2 5959   5.179   5.188   2.175
 1985TIP3   OH2 5960   2.830   3.820   2.529
 1985TIP3    H1 5961   2.747   3.773   2.541
 1985TIP3    H2 5962   2.897   3.752   2.531
 1986TIP3   OH2 5963   1.119   3.523   5.149
 1986TIP3    H1 5964   1.053   3.521   5.079
 1986TIP3    H2 5965   1.189   3.467   5.117
 1987TIP3   OH2 5966   1.689   1.347   3.080
 1987TIP3    H1 5967   1.638   1.375   3.004
 1987TIP3    H2 5968   1.733   1.267   3.052
 1988TIP3   OH2 5969   6.292   4.002   1.801
 1988TIP3    H1 5970   6.210   4.014   1.752
 1988TIP3    H2 5971   6.357   4.053   1.752
 1989TIP3   OH2 5972   1.478   3.207   4.266
 1989TIP3    H1 5973   1.475   3.126   4.216
 1989TIP3    H2 5974   1.389   3.219   4.300
 1990TIP3   OH2 5975   4.617   5.678   3.569
 1990TIP3    H1 5976   4.566   5.754   3.542
 1990TIP3    H2 5977   4.582   5.654   3.654
 1991TIP3   OH2 5978   2.059   0.674   3.710
 1991TIP3    H1 5979   2.074   0.766   3.691
 1991TIP3    H2 5980   2.053   0.632   3.624
 1992TIP3   OH2 5981   3.174   2.996   3.892
 1992TIP3    H1 5982   3.202   3.086   3.912
 1992TIP3    H2 5983   3.081   2.995   3.913
 1993TIP3   OH2 5984   5.957   0.895   1.033
 1993TIP3    H1 5985   6.038   0.917   1.079
 1993TIP3    H2 5986   5.967   0.803   1.008
 1994TIP3   OH2 5987   4.172   3.193   3.119
 1994TIP3    H1 5988   4.216   3.230   3.196
 1994TIP3    H2 5989   4.085   3.170   3.151
 1995TIP3   OH2 5990   3.179   4.717   4.926
 1995TIP3    H1 5991   3.260   4.683   4.965
 1995TIP3    H2 5992   3.201   4.733   4.835
 1996TIP3   OH2 5993   1.023   4.367   3.046
 1996TIP3    H1 5994   0.983   4.284   3.073
 1996TIP3    H2 5995   1.021   4.365   2.951
 1997TIP3   OH2 5996   3.792   0.504   4.777
 1997TIP3    H1 5997   3.750   0.445   4.713
 1997TIP3    H2 5998   3.719   0.556   4.812
 1998TIP3   OH2 5999   1.326   5.392   1.070
 1998TIP3    H1 6000   1.372   5.328   1.016
 1998TIP3    H2 6001   1.276   5.445   1.008
 1999TIP3   OH2 6002   3.043   1.543   0.874
 1999TIP3    H1 6003   3.087   1.459   0.858
 1999TIP3    H2 6004   3.114   1.604   0.892
 2000TIP3   OH2 6005   5.982   2.354   4.557
 2000TIP3    H1 6006   5.973   2.441   4.594
 2000TIP3    H2 6007   6.074   2.331   4.572
 2001TIP3   OH2 6008   5.277   3.907   2.828
 2001TIP3    H1 6009   5.269   3.927   2.922
 2001TIP3    H2 6010   5.372   3.899   2.814
 2002TIP3   OH2 6011   4.906   0.107   2.296
 2002TIP3    H1 6012   4.937   0.197   2.293
 2002TIP3    H2 6013   4.985   0.054   2.287
 2003TIP3   OH2 6014   4.009   5.042   2.892
 2003TIP3    H1 6015   3.936   5.067   2.835
 2003TIP3    H2 6016   3.993   4.950   2.912
 2004TIP3   OH2 6017   5.666   3.514   5.046
 2004TIP3    H1 6018   5.583   3.486   5.007
 2004TIP3    H2 6019   5.731   3.499   4.977
 2005TIP3   OH2 6020   1.590   2.690   2.446
 2005TIP3    H1 6021   1.559   2.764   2.498
 2005TIP3    H2 6022   1.576   2.716   2.355
 2006TIP3   OH2 6023   3.989   5.350   1.023
 2006TIP3    H1 6024   3.946   5.266   1.036
 2006TIP3    H2 6025   3.924   5.405   0.979
 2007TIP3   OH2 6026   0.638   0.425   4.926
 2007TIP3    H1 6027   0.656   0.376   5.006
 2007TIP3    H2 6028   0.592   0.503   4.955
 2008TIP3   OH2 6029   5.362   1.389   0.189
 2008TIP3    H1 6030   5.345   1.419   0.278
 2008TIP3    H2 6031   5.458   1.393   0.180
 2009TIP3   OH2 6032   2.020   1.229   0.498
 2009TIP3    H1 6033   2.095   1.252   0.442
 2009TIP3    H2 6034   1.980   1.153   0.454
 2010TIP3   OH2 6035   4.602   3.434   4.693
 2010TIP3    H1 6036   4.609   3.529   4.697
 2010TIP3    H2 6037   4.552   3.417   4.613
 2011TIP3   OH2 6038   0.468   0.295   4.139
 2011TIP3    H1 6039   0.560   0.317   4.125
 2011TIP3    H2 6040   0.468   0.241   4.218
 2012TIP3   OH2 6041   2.421   5.390   4.977
 2012TIP3    H1 6042   2.354   5.455   4.960
 2012TIP3    H2 6043   2.426   5.338   4.896
 2013TIP3   OH2 6044   4.101   5.245   1.744
 2013TIP3    H1 6045   4.083   5.188   1.819
 2013TIP3    H2 6046   4.154   5.191   1.685
 2014TIP3   OH2 6047   4.407   1.946   1.507
 2014TIP3    H1 6048   4.321   1.979   1.479
 2014TIP3    H2 6049   4.453   1.929   1.425
 2015TIP3   OH2 6050   3.323   4.456   1.148
 2015TIP3    H1 6051   3.346   4.518   1.217
 2015TIP3    H2 6052   3.245   4.493   1.108
 2016TIP3   OH2 6053   5.478   2.110   4.271
 2016TIP3    H1 6054   5.546   2.064   4.320
 2016TIP3    H2 6055   5.407   2.046   4.263
 2017TIP3   OH2 6056   0.446   5.095   3.110
 2017TIP3    H1 6057   0.374   5.139   3.156
 2017TIP3    H2 6058   0.477   5.160   3.047
 2018TIP3   OH2 6059   4.166   2.913   5.021
 2018TIP3    H1 6060   4.201   2.913   5.110
 2018TIP3    H2 6061   4.224   2.971   4.972
 2019TIP3   OH2 6062   1.117   1.419   0.760
 2019TIP3    H1 6063   1.121   1.397   0.667
 2019TIP3    H2 6064   1.066   1.500   0.763
 2020TIP3   OH2 6065   2.375   0.960   1.408
 2020TIP3    H1 6066   2.346   1.042   1.449
 2020TIP3    H2 6067   2.466   0.950   1.437
 2021TIP3   OH2 6068   1.521   5.644   4.905
 2021TIP3    H1 6069   1.565   5.706   4.964
 2021TIP3    H2 6070   1.466   5.698   4.850
 2022TIP3   OH2 6071   0.711   3.043   4.791
 2022TIP3    H1 6072   0.791   3.032   4.739
 2022TIP3    H2 6073   0.651   2.978   4.755
 2023TIP3   OH2 6074   1.289   2.706   4.784
 2023TIP3    H1 6075   1.365   2.666   4.827
 2023TIP3    H2 6076   1.238   2.632   4.751
 2024TIP3   OH2 6077   0.064   2.095   5.046
 2024TIP3    H1 6078  -0.030   2.082   5.032
 2024TIP3    H2 6079   0.069   2.159   5.117
 2025TIP3   OH2 6080   2.369   4.441   1.643
 2025TIP3    H1 6081   2.400   4.350   1.640
 2025TIP3    H2 6082   2.426   4.483   1.708
 2026TIP3   OH2 6083   0.768   2.450   4.412
 2026TIP3    H1 6084   0.718   2.379   4.452
 2026TIP3    H2 6085   0.859   2.433   4.437
 2027TIP3   OH2 6086   3.822   0.739   1.567
 2027TIP3    H1 6087   3.880   0.770   1.636
 2027TIP3    H2 6088   3.880   0.709   1.498
 2028TIP3   OH2 6089   6.337   4.908   5.126
 2028TIP3    H1 6090   6.338   4.918   5.031
 2028TIP3    H2 6091   6.281   4.979   5.157
 2029TIP3   OH2 6092   2.780   2.304   0.488
 2029TIP3    H1 6093   2.803   2.397   0.487
 2029TIP3    H2 6094   2.686   2.303   0.505
 2030TIP3   OH2 6095   3.866   3.484   0.602
 2030TIP3    H1 6096   3.793   3.442   0.556
 2030TIP3    H2 6097   3.859   3.577   0.577
 2031TIP3   OH2 6098   6.117   4.185   4.198
 2031TIP3    H1 6099   6.211   4.172   4.194
 2031TIP3    H2 6100   6.087   4.169   4.108
 2032TIP3   OH2 6101   2.098   4.766   2.890
 2032TIP3    H1 6102   2.129   4.744   2.978
 2032TIP3    H2 6103   2.006   4.789   2.901
 2033TIP3   OH2 6104   2.925   1.376   0.534
 2033TIP3    H1 6105   2.898   1.360   0.625
 2033TIP3    H2 6106   2.969   1.296   0.507
 2034TIP3   OH2 6107   1.094   5.376   4.223
 2034TIP3    H1 6108   1.156   5.439   4.258
 2034TIP3    H2 6109   1.048   5.423   4.154
 2035TIP3   OH2 6110   3.411   0.163   1.794
 2035TIP3    H1 6111   3.505   0.146   1.786
 2035TIP3    H2 6112   3.397   0.245   1.748
 2036TIP3   OH2 6113   2.251   1.842   0.595
 2036TIP3    H1 6114   2.179   1.900   0.621
 2036TIP3    H2 6115   2.214   1.754   0.597
 2037TIP3   OH2 6116   3.491   4.316   1.824
 2037TIP3    H1 6117   3.477   4.405   1.791
 2037TIP3    H2 6118   3.586   4.308   1.833
 2038TIP3   OH2 6119   5.879   2.017   3.503
 2038TIP3    H1 6120   5.827   1.987   3.577
 2038TIP3    H2 6121   5.900   1.937   3.454
 2039TIP3   OH2 6122   0.954   0.730   1.904
 2039TIP3    H1 6123   0.898   0.736   1.981
 2039TIP3    H2 6124   0.948   0.816   1.863
 2040TIP3   OH2 6125   5.585   1.896   4.746
 2040TIP3    H1 6126   5.603   1.829   4.680
 2040TIP3    H2 6127   5.501   1.933   4.720
 2041TIP3   OH2 6128   4.604   3.476   3.247
 2041TIP3    H1 6129   4.606   3.566   3.215
 2041TIP3    H2 6130   4.691   3.442   3.230
 2042TIP3   OH2 6131   6.115   2.689   0.534
 2042TIP3    H1 6132   6.102   2.620   0.469
 2042TIP3    H2 6133   6.209   2.708   0.530
 2043TIP3   OH2 6134   4.679   3.266   0.906
 2043TIP3    H1 6135   4.612   3.252   0.972
 2043TIP3    H2 6136   4.761   3.236   0.947
 2044TIP3   OH2 6137   4.579   2.418   1.811
 2044TIP3    H1 6138   4.598   2.493   1.754
 2044TIP3    H2 6139   4.610   2.343   1.761
 2045TIP3   OH2 6140   2.897   4.634   3.754
 2045TIP3    H1 6141   2.810   4.663   3.728
 2045TIP3    H2 6142   2.955   4.669   3.686
 2046TIP3   OH2 6143   3.461   2.236   0.820
 2046TIP3    H1 6144   3.446   2.322   0.859
 2046TIP3    H2 6145   3.432   2.174   0.887
 2047TIP3   OH2 6146   0.671   0.947   1.211
 2047TIP3    H1 6147   0.716   1.026   1.241
 2047TIP3    H2 6148   0.676   0.951   1.116
 2048TIP3   OH2 6149   5.115   3.860   0.651
 2048TIP3    H1 6150   5.058   3.921   0.698
 2048TIP3    H2 6151   5.146   3.799   0.719
 2049TIP3   OH2 6152   1.944   0.214   2.174
 2049TIP3    H1 6153   1.910   0.129   2.200
 2049TIP3    H2 6154   1.998   0.242   2.249
 2050TIP3   OH2 6155   5.156   2.654   1.413
 2050TIP3    H1 6156   5.227   2.683   1.356
 2050TIP3    H2 6157   5.083   2.637   1.354
 2051TIP3   OH2 6158   5.780   4.213   3.398
 2051TIP3    H1 6159   5.795   4.132   3.348
 2051TIP3    H2 6160   5.686   4.214   3.413
 2052TIP3   OH2 6161   1.574   2.409   3.950
 2052TIP3    H1 6162   1.550   2.321   3.920
 2052TIP3    H2 6163   1.666   2.418   3.925
 2053TIP3   OH2 6164   1.826   4.018   1.606
 2053TIP3    H1 6165   1.896   4.082   1.618
 2053TIP3    H2 6166   1.847   3.947   1.668
 2054TIP3   OH2 6167   6.210   0.482   1.699
 2054TIP3    H1 6168   6.305   0.485   1.706
 2054TIP3    H2 6169   6.178   0.484   1.789
 2055TIP3   OH2 6170   4.409   1.713   1.667
 2055TIP3    H1 6171   4.422   1.797   1.624
 2055TIP3    H2 6172   4.423   1.648   1.599
 2056TIP3   OH2 6173   5.939   6.010   3.967
 2056TIP3    H1 6174   5.992   5.934   3.945
 2056TIP3    H2 6175   5.947   6.068   3.891
 2057TIP3   OH2 6176   1.047   5.778   4.957
 2057TIP3    H1 6177   1.081   5.747   5.041
 2057TIP3    H2 6178   1.113   5.750   4.893
 2058TIP3   OH2 6179   4.367   2.511   4.749
 2058TIP3    H1 6180   4.360   2.562   4.831
 2058TIP3    H2 6181   4.461   2.513   4.729
 2059TIP3   OH2 6182   0.879   3.201   1.978
 2059TIP3    H1 6183   0.787   3.216   1.958
 2059TIP3    H2 6184   0.919   3.288   1.977
 2060TIP3   OH2 6185   3.558   3.003   3.387
 2060TIP3    H1 6186   3.593   3.069   3.327
 2060TIP3    H2 6187   3.585   3.033   3.474
 2061TIP3   OH2 6188   2.131   2.152   3.581
 2061TIP3    H1 6189   2.134   2.241   3.547
 2061TIP3    H2 6190   2.221   2.119   3.570
 2062TIP3   OH2 6191   3.898   0.622   1.964
 2062TIP3    H1 6192   3.910   0.680   2.040
 2062TIP3    H2 6193   3.908   0.534   2.000
 2063TIP3   OH2 6194   1.975   2.752   3.915
 2063TIP3    H1 6195   1.939   2.832   3.876
 2063TIP3    H2 6196   2.054   2.781   3.960
 2064TIP3   OH2 6197   2.067   5.724   4.198
 2064TIP3    H1 6198   2.115   5.795   4.156
 2064TIP3    H2 6199   2.062   5.656   4.131
 2065TIP3   OH2 6200   3.331   1.602   1.796
 2065TIP3    H1 6201   3.344   1.516   1.755
 2065TIP3    H2 6202   3.419   1.629   1.822
 2066TIP3   OH2 6203   5.492   5.763   5.004
 2066TIP3    H1 6204   5.564   5.803   4.956
 2066TIP3    H2 6205   5.482   5.817   5.082
 2067TIP3   OH2 6206   4.557   1.798   3.702
 2067TIP3    H1 6207   4.465   1.825   3.699
 2067TIP3    H2 6208   4.573   1.759   3.615
 2068TIP3   OH2 6209   5.105   4.051   1.545
 2068TIP3    H1 6210   5.011   4.051   1.559
 2068TIP3    H2 6211   5.127   3.958   1.532
 2069TIP3   OH2 6212   4.659   1.198   4.444
 2069TIP3    H1 6213   4.649   1.125   4.505
 2069TIP3    H2 6214   4.612   1.270   4.485
 2070TIP3   OH2 6215   5.773   4.693   1.049
 2070TIP3    H1 6216   5.716   4.676   0.975
 2070TIP3    H2 6217   5.836   4.758   1.017
 2071TIP3   OH2 6218   5.666   2.982   4.071
 2071TIP3    H1 6219   5.639   2.913   4.131
 2071TIP3    H2 6220   5.708   2.936   3.999
 2072TIP3   OH2 6221   3.952   0.290   2.893
 2072TIP3    H1 6222   3.966   0.199   2.918
 2072TIP3    H2 6223   3.977   0.341   2.970
 2073TIP3   OH2 6224   2.303   2.616   1.750
 2073TIP3    H1 6225   2.259   2.690   1.709
 2073TIP3    H2 6226   2.232   2.554   1.770
 2074TIP3   OH2 6227   2.942   1.048   0.201
 2074TIP3    H1 6228   2.888   0.983   0.156
 2074TIP3    H2 6229   3.024   1.049   0.152
 2075TIP3   OH2 6230   3.206   3.587   3.733
 2075TIP3    H1 6231   3.250   3.579   3.648
 2075TIP3    H2 6232   3.148   3.511   3.737
 2076TIP3   OH2 6233   3.619   0.066   1.173
 2076TIP3    H1 6234   3.537   0.090   1.130
 2076TIP3    H2 6235   3.630  -0.027   1.154
 2077TIP3   OH2 6236   0.997   2.976   1.036
 2077TIP3    H1 6237   1.057   3.014   0.972
 2077TIP3    H2 6238   1.048   2.908   1.080
 2078TIP3   OH2 6239   1.793   5.213   3.809
 2078TIP3    H1 6240   1.744   5.258   3.878
 2078TIP3    H2 6241   1.725   5.174   3.754
 2079TIP3   OH2 6242   1.989   0.259   0.308
 2079TIP3    H1 6243   2.013   0.176   0.266
 2079TIP3    H2 6244   1.963   0.234   0.397
 2080TIP3   OH2 6245   1.613   1.856   1.722
 2080TIP3    H1 6246   1.521   1.830   1.728
 2080TIP3    H2 6247   1.615   1.921   1.652
 2081TIP3   OH2 6248   4.765   5.412   4.367
 2081TIP3    H1 6249   4.768   5.330   4.318
 2081TIP3    H2 6250   4.717   5.390   4.447
 2082TIP3   OH2 6251   5.790   2.282   4.341
 2082TIP3    H1 6252   5.851   2.301   4.413
 2082TIP3    H2 6253   5.833   2.316   4.263
 2083TIP3   OH2 6254   1.799   5.537   3.731
 2083TIP3    H1 6255   1.790   5.625   3.767
 2083TIP3    H2 6256   1.892   5.516   3.739
 2084TIP3   OH2 6257   2.534   1.376   0.029
 2084TIP3    H1 6258   2.533   1.472   0.029
 2084TIP3    H2 6259   2.615   1.353   0.074
 2085TIP3   OH2 6260   4.509   0.794   1.640
 2085TIP3    H1 6261   4.504   0.726   1.707
 2085TIP3    H2 6262   4.435   0.852   1.659
 2086TIP3   OH2 6263   2.416   1.411   2.859
 2086TIP3    H1 6264   2.357   1.349   2.816
 2086TIP3    H2 6265   2.488   1.357   2.892
 2087TIP3   OH2 6266   4.119   4.328   1.858
 2087TIP3    H1 6267   4.142   4.378   1.780
 2087TIP3    H2 6268   4.204   4.305   1.897
 2088TIP3   OH2 6269   4.621   0.508   0.221
 2088TIP3    H1 6270   4.717   0.499   0.219
 2088TIP3    H2 6271   4.597   0.486   0.311
 2089TIP3   OH2 6272   1.667   5.704   0.671
 2089TIP3    H1 6273   1.709   5.622   0.646
 2089TIP3    H2 6274   1.587   5.707   0.619
 2090TIP3   OH2 6275   0.605   4.304   3.161
 2090TIP3    H1 6276   0.568   4.219   3.186
 2090TIP3    H2 6277   0.549   4.333   3.089
 2091TIP3   OH2 6278   3.148   3.478   2.244
 2091TIP3    H1 6279   3.073   3.479   2.184
 2091TIP3    H2 6280   3.160   3.386   2.265
 2092TIP3   OH2 6281   3.045   0.607   3.200
 2092TIP3    H1 6282   3.029   0.521   3.239
 2092TIP3    H2 6283   3.140   0.614   3.195
 2093TIP3   OH2 6284   1.703   5.632   0.940
 2093TIP3    H1 6285   1.666   5.653   0.855
 2093TIP3    H2 6286   1.774   5.695   0.951
 2094TIP3   OH2 6287   1.525   5.937   3.870
 2094TIP3    H1 6288   1.515   5.890   3.953
 2094TIP3    H2 6289   1.551   5.869   3.807
 2095TIP3   OH2 6290   4.671   0.699   4.516
 2095TIP3    H1 6291   4.619   0.630   4.557
 2095TIP3    H2 6292   4.760   0.684   4.548
 2096TIP3   OH2 6293   1.168   4.883   2.265
 2096TIP3    H1 6294   1.143   4.964   2.220
 2096TIP3    H2 6295   1.143   4.813   2.204
 2097TIP3   OH2 6296   3.591   0.778   2.060
 2097TIP3    H1 6297   3.660   0.837   2.030
 2097TIP3    H2 6298   3.632   0.691   2.060
 2098TIP3   OH2 6299   4.734   1.436   4.260
 2098TIP3    H1 6300   4.671   1.507   4.270
 2098TIP3    H2 6301   4.697   1.364   4.311
 2099TIP3   OH2 6302   1.402   4.679   3.914
 2099TIP3    H1 6303   1.469   4.630   3.962
 2099TIP3    H2 6304   1.359   4.613   3.859
 2100TIP3   OH2 6305   3.463   3.992   3.302
 2100TIP3    H1 6306   3.436   3.908   3.341
 2100TIP3    H2 6307   3.407   4.001   3.225
 2101TIP3   OH2 6308   5.019   4.769   4.680
 2101TIP3    H1 6309   4.949   4.725   4.728
 2101TIP3    H2 6310   5.077   4.804   4.749
 2102TIP3   OH2 6311   0.574   5.636   0.981
 2102TIP3    H1 6312   0.593   5.708   1.041
 2102TIP3    H2 6313   0.659   5.615   0.941
 2103TIP3   OH2 6314   4.210   4.923   5.087
 2103TIP3    H1 6315   4.151   4.875   5.028
 2103TIP3    H2 6316   4.272   4.856   5.117
 2104TIP3   OH2 6317   3.566   3.808   3.853
 2104TIP3    H1 6318   3.588   3.719   3.882
 2104TIP3    H2 6319   3.474   3.818   3.878
 2105TIP3   OH2 6320   4.565   2.066   1.296
 2105TIP3    H1 6321   4.559   1.974   1.270
 2105TIP3    H2 6322   4.607   2.063   1.382
 2106TIP3   OH2 6323   3.840   1.626   2.909
 2106TIP3    H1 6324   3.824   1.546   2.859
 2106TIP3    H2 6325   3.779   1.622   2.982
 2107TIP3   OH2 6326   3.811   2.326   0.359
 2107TIP3    H1 6327   3.820   2.384   0.435
 2107TIP3    H2 6328   3.880   2.355   0.299
 2108TIP3   OH2 6329   2.231   1.288   3.113
 2108TIP3    H1 6330   2.289   1.340   3.169
 2108TIP3    H2 6331   2.235   1.330   3.027
 2109TIP3   OH2 6332   3.429   2.417   0.239
 2109TIP3    H1 6333   3.415   2.477   0.312
 2109TIP3    H2 6334   3.350   2.426   0.185
 2110TIP3   OH2 6335   2.757   1.001   0.602
 2110TIP3    H1 6336   2.670   1.017   0.640
 2110TIP3    H2 6337   2.765   1.066   0.532
 2111TIP3   OH2 6338   6.061   5.302   0.160
 2111TIP3    H1 6339   6.060   5.210   0.133
 2111TIP3    H2 6340   6.021   5.349   0.086
 2112TIP3   OH2 6341   5.141   3.100   3.817
 2112TIP3    H1 6342   5.162   3.115   3.910
 2112TIP3    H2 6343   5.103   3.183   3.788
 2113TIP3   OH2 6344   2.975   1.304   3.006
 2113TIP3    H1 6345   3.033   1.330   2.935
 2113TIP3    H2 6346   2.970   1.208   2.999
 2114TIP3   OH2 6347   2.752   4.364   1.452
 2114TIP3    H1 6348   2.768   4.404   1.537
 2114TIP3    H2 6349   2.682   4.301   1.468
 2115TIP3   OH2 6350   2.628   5.777   4.547
 2115TIP3    H1 6351   2.623   5.712   4.476
 2115TIP3    H2 6352   2.593   5.857   4.509
 2116TIP3   OH2 6353   0.827   5.227   1.863
 2116TIP3    H1 6354   0.865   5.140   1.875
 2116TIP3    H2 6355   0.763   5.236   1.934
 2117TIP3   OH2 6356   1.446   3.390   2.089
 2117TIP3    H1 6357   1.536   3.422   2.099
 2117TIP3    H2 6358   1.452   3.326   2.017
 2118TIP3   OH2 6359   2.048   5.030   2.310
 2118TIP3    H1 6360   2.094   5.056   2.230
 2118TIP3    H2 6361   2.108   5.051   2.381
 2119TIP3   OH2 6362   5.117   1.078   2.084
 2119TIP3    H1 6363   5.192   1.033   2.122
 2119TIP3    H2 6364   5.075   1.122   2.158
 2120TIP3   OH2 6365   1.840   0.335   3.160
 2120TIP3    H1 6366   1.903   0.378   3.101
 2120TIP3    H2 6367   1.836   0.245   3.129
 2121TIP3   OH2 6368   1.624   3.623   1.247
 2121TIP3    H1 6369   1.580   3.639   1.164
 2121TIP3    H2 6370   1.578   3.548   1.285
 2122TIP3   OH2 6371   2.777   2.584   3.363
 2122TIP3    H1 6372   2.838   2.582   3.436
 2122TIP3    H2 6373   2.812   2.650   3.303
 2123TIP3   OH2 6374   0.626   0.138   3.127
 2123TIP3    H1 6375   0.685   0.176   3.192
 2123TIP3    H2 6376   0.579   0.213   3.091
 2124TIP3   OH2 6377   4.184   2.096   2.099
 2124TIP3    H1 6378   4.162   2.151   2.174
 2124TIP3    H2 6379   4.234   2.023   2.137
 2125TIP3   OH2 6380   0.841   5.531   0.328
 2125TIP3    H1 6381   0.926   5.536   0.284
 2125TIP3    H2 6382   0.778   5.564   0.263
 2126TIP3   OH2 6383   2.600   3.379   3.017
 2126TIP3    H1 6384   2.684   3.367   3.061
 2126TIP3    H2 6385   2.535   3.372   3.087
 2127TIP3   OH2 6386   2.396   0.603   0.352
 2127TIP3    H1 6387   2.445   0.664   0.408
 2127TIP3    H2 6388   2.421   0.626   0.263
 2128TIP3   OH2 6389   4.261   0.500   1.188
 2128TIP3    H1 6390   4.212   0.472   1.111
 2128TIP3    H2 6391   4.246   0.431   1.253
 2129TIP3   OH2 6392   3.606   5.353   2.763
 2129TIP3    H1 6393   3.563   5.271   2.739
 2129TIP3    H2 6394   3.589   5.362   2.857
 2130TIP3   OH2 6395   1.986   1.004   2.492
 2130TIP3    H1 6396   1.940   1.010   2.408
 2130TIP3    H2 6397   1.916   1.001   2.558
 2131TIP3   OH2 6398   2.959   2.531   0.685
 2131TIP3    H1 6399   2.984   2.580   0.764
 2131TIP3    H2 6400   2.882   2.481   0.711
 2132TIP3   OH2 6401   3.480   3.860   4.438
 2132TIP3    H1 6402   3.389   3.832   4.440
 2132TIP3    H2 6403   3.483   3.935   4.499
 2133TIP3   OH2 6404   6.310   0.315   2.239
 2133TIP3    H1 6405   6.255   0.253   2.191
 2133TIP3    H2 6406   6.360   0.360   2.171
 2134TIP3   OH2 6407   5.423   3.607   3.685
 2134TIP3    H1 6408   5.454   3.553   3.613
 2134TIP3    H2 6409   5.496   3.665   3.705
 2135TIP3   OH2 6410   2.992   0.352   3.283
 2135TIP3    H1 6411   3.004   0.315   3.370
 2135TIP3    H2 6412   3.038   0.292   3.225
 2136TIP3   OH2 6413   5.713   0.111   1.711
 2136TIP3    H1 6414   5.805   0.137   1.705
 2136TIP3    H2 6415   5.705   0.039   1.649
 2137TIP3   OH2 6416   3.873   4.830   4.240
 2137TIP3    H1 6417   3.884   4.911   4.189
 2137TIP3    H2 6418   3.875   4.859   4.331
 2138TIP3   OH2 6419   0.767   4.664   4.602
 2138TIP3    H1 6420   0.844   4.619   4.568
 2138TIP3    H2 6421   0.742   4.613   4.679
 2139TIP3   OH2 6422   2.265   2.406   5.141
 2139TIP3    H1 6423   2.306   2.386   5.057
 2139TIP3    H2 6424   2.338   2.434   5.197
 2140TIP3   OH2 6425   4.372   2.680   1.129
 2140TIP3    H1 6426   4.428   2.603   1.122
 2140TIP3    H2 6427   4.355   2.690   1.223
 2141TIP3   OH2 6428   1.238   3.287   5.000
 2141TIP3    H1 6429   1.274   3.341   4.930
 2141TIP3    H2 6430   1.280   3.201   4.988
 2142TIP3   OH2 6431   2.150   2.241   0.195
 2142TIP3    H1 6432   2.112   2.157   0.171
 2142TIP3    H2 6433   2.076   2.293   0.227
 2143TIP3   OH2 6434   1.610   2.011   1.970
 2143TIP3    H1 6435   1.643   1.969   1.891
 2143TIP3    H2 6436   1.598   1.938   2.032
 2144TIP3   OH2 6437   2.913   5.266   3.806
 2144TIP3    H1 6438   2.851   5.205   3.766
 2144TIP3    H2 6439   2.944   5.220   3.884
 2145TIP3   OH2 6440   2.919   5.283   0.124
 2145TIP3    H1 6441   2.870   5.230   0.187
 2145TIP3    H2 6442   2.873   5.270   0.041
 2146TIP3   OH2 6443   5.646   5.941   3.353
 2146TIP3    H1 6444   5.613   6.007   3.413
 2146TIP3    H2 6445   5.652   5.861   3.405
 2147TIP3   OH2 6446   1.915   0.552   4.708
 2147TIP3    H1 6447   1.953   0.583   4.790
 2147TIP3    H2 6448   1.956   0.606   4.641
 2148TIP3   OH2 6449   5.447   4.834   3.686
 2148TIP3    H1 6450   5.405   4.879   3.613
 2148TIP3    H2 6451   5.515   4.780   3.645
 2149TIP3   OH2 6452   5.536   0.702   4.495
 2149TIP3    H1 6453   5.489   0.670   4.572
 2149TIP3    H2 6454   5.477   0.766   4.455
 2150TIP3   OH2 6455   2.966   3.186   0.241
 2150TIP3    H1 6456   3.016   3.120   0.288
 2150TIP3    H2 6457   2.875   3.171   0.268
 2151TIP3   OH2 6458   2.831   2.598   4.131
 2151TIP3    H1 6459   2.916   2.554   4.119
 2151TIP3    H2 6460   2.781   2.538   4.187
 2152TIP3   OH2 6461   0.459   5.906   3.558
 2152TIP3    H1 6462   0.428   5.972   3.620
 2152TIP3    H2 6463   0.514   5.955   3.497
 2153TIP3   OH2 6464   3.602   3.351   1.611
 2153TIP3    H1 6465   3.563   3.264   1.603
 2153TIP3    H2 6466   3.649   3.363   1.528
 2154TIP3   OH2 6467   2.969   4.331   4.356
 2154TIP3    H1 6468   2.915   4.311   4.279
 2154TIP3    H2 6469   3.013   4.413   4.334
 2155TIP3   OH2 6470   2.565   2.663   4.970
 2155TIP3    H1 6471   2.617   2.743   4.964
 2155TIP3    H2 6472   2.625   2.597   5.004
 2156TIP3   OH2 6473   2.312   3.286   2.847
 2156TIP3    H1 6474   2.356   3.226   2.787
 2156TIP3    H2 6475   2.383   3.320   2.903
 2157TIP3   OH2 6476   1.542   0.397   1.715
 2157TIP3    H1 6477   1.611   0.405   1.649
 2157TIP3    H2 6478   1.461   0.417   1.668
 2158TIP3   OH2 6479   3.437   3.633   0.059
 2158TIP3    H1 6480   3.452   3.589   0.143
 2158TIP3    H2 6481   3.383   3.571   0.009
 2159TIP3   OH2 6482   4.704   4.350   0.384
 2159TIP3    H1 6483   4.682   4.310   0.300
 2159TIP3    H2 6484   4.636   4.319   0.444
 2160TIP3   OH2 6485   5.496   0.513   4.938
 2160TIP3    H1 6486   5.453   0.585   4.985
 2160TIP3    H2 6487   5.579   0.500   4.984
 2161TIP3   OH2 6488   5.935   2.828   3.679
 2161TIP3    H1 6489   5.866   2.854   3.740
 2161TIP3    H2 6490   5.927   2.733   3.673
 2162TIP3   OH2 6491   6.319   4.628   5.122
 2162TIP3    H1 6492   6.413   4.626   5.140
 2162TIP3    H2 6493   6.294   4.720   5.136
 2163TIP3   OH2 6494   0.426   4.722   3.789
 2163TIP3    H1 6495   0.518   4.715   3.813
 2163TIP3    H2 6496   0.412   4.652   3.726
 2164TIP3   OH2 6497   5.432   3.110   4.386
 2164TIP3    H1 6498   5.429   3.180   4.321
 2164TIP3    H2 6499   5.394   3.034   4.342
 2165TIP3   OH2 6500   0.832   5.561   5.098
 2165TIP3    H1 6501   0.793   5.503   5.163
 2165TIP3    H2 6502   0.880   5.626   5.150
 2166TIP3   OH2 6503   0.677   0.230   1.914
 2166TIP3    H1 6504   0.680   0.265   1.825
 2166TIP3    H2 6505   0.708   0.140   1.905
 2167TIP3   OH2 6506   6.214   3.394   1.090
 2167TIP3    H1 6507   6.211   3.303   1.121
 2167TIP3    H2 6508   6.142   3.400   1.027
 2168TIP3   OH2 6509   0.437   4.743   2.053
 2168TIP3    H1 6510   0.364   4.696   2.092
 2168TIP3    H2 6511   0.507   4.678   2.046
 2169TIP3   OH2 6512   2.554   1.741   4.157
 2169TIP3    H1 6513   2.535   1.801   4.228
 2169TIP3    H2 6514   2.468   1.718   4.122
 2170TIP3   OH2 6515   5.708   2.836   3.837
 2170TIP3    H1 6516   5.674   2.746   3.839
 2170TIP3    H2 6517   5.642   2.885   3.789
 2171TIP3   OH2 6518   4.099   0.133   3.803
 2171TIP3    H1 6519   4.111   0.149   3.709
 2171TIP3    H2 6520   4.005   0.119   3.813
 2172TIP3   OH2 6521   2.406   2.224   4.969
 2172TIP3    H1 6522   2.334   2.162   4.958
 2172TIP3    H2 6523   2.467   2.181   5.028
 2173TIP3   OH2 6524   5.536   2.585   3.873
 2173TIP3    H1 6525   5.514   2.504   3.919
 2173TIP3    H2 6526   5.562   2.555   3.785
 2174TIP3   OH2 6527   3.662   2.092   4.512
 2174TIP3    H1 6528   3.626   2.179   4.494
 2174TIP3    H2 6529   3.681   2.056   4.425
 2175TIP3   OH2 6530   4.214   0.190   0.144
 2175TIP3    H1 6531   4.291   0.240   0.117
 2175TIP3    H2 6532   4.144   0.219   0.086
 2176TIP3   OH2 6533   2.528   3.619   1.887
 2176TIP3    H1 6534   2.441   3.617   1.927
 2176TIP3    H2 6535   2.513   3.593   1.796
 2177TIP3   OH2 6536   5.404   1.409   3.215
 2177TIP3    H1 6537   5.478   1.467   3.228
 2177TIP3    H2 6538   5.327   1.467   3.217
 2178TIP3   OH2 6539   3.288   0.375   2.871
 2178TIP3    H1 6540   3.367   0.411   2.831
 2178TIP3    H2 6541   3.293   0.281   2.854
 2179TIP3   OH2 6542   5.213   2.508   1.765
 2179TIP3    H1 6543   5.239   2.466   1.847
 2179TIP3    H2 6544   5.212   2.437   1.701
 2180TIP3   OH2 6545   3.133   5.172   0.437
 2180TIP3    H1 6546   3.041   5.148   0.449
 2180TIP3    H2 6547   3.130   5.257   0.393
 2181TIP3   OH2 6548   4.539   3.566   4.104
 2181TIP3    H1 6549   4.516   3.479   4.072
 2181TIP3    H2 6550   4.498   3.626   4.040
 2182TIP3   OH2 6551   4.752   2.359   3.172
 2182TIP3    H1 6552   4.793   2.370   3.258
 2182TIP3    H2 6553   4.724   2.267   3.171
 2183TIP3   OH2 6554   4.161   0.558   0.600
 2183TIP3    H1 6555   4.229   0.606   0.552
 2183TIP3    H2 6556   4.135   0.488   0.540
 2184TIP3   OH2 6557   4.958   5.149   1.979
 2184TIP3    H1 6558   4.916   5.235   1.970
 2184TIP3    H2 6559   4.890   5.086   1.954
 2185TIP3   OH2 6560   5.679   4.603   1.505
 2185TIP3    H1 6561   5.720   4.517   1.494
 2185TIP3    H2 6562   5.637   4.620   1.421
 2186TIP3   OH2 6563   5.067   0.326   2.252
 2186TIP3    H1 6564   5.092   0.407   2.296
 2186TIP3    H2 6565   5.150   0.283   2.232
 2187TIP3   OH2 6566   0.356   0.893   1.879
 2187TIP3    H1 6567   0.374   0.952   1.806
 2187TIP3    H2 6568   0.327   0.950   1.949
 2188TIP3   OH2 6569   5.710   3.230   4.534
 2188TIP3    H1 6570   5.747   3.173   4.467
 2188TIP3    H2 6571   5.708   3.317   4.493
 2189TIP3   OH2 6572   1.745   0.406   0.571
 2189TIP3    H1 6573   1.839   0.393   0.581
 2189TIP3    H2 6574   1.737   0.483   0.514
 2190TIP3   OH2 6575   5.190   4.392   3.301
 2190TIP3    H1 6576   5.226   4.476   3.330
 2190TIP3    H2 6577   5.105   4.386   3.345
 2191TIP3   OH2 6578   3.837   2.643   2.719
 2191TIP3    H1 6579   3.745   2.671   2.722
 2191TIP3    H2 6580   3.886   2.725   2.720
 2192TIP3   OH2 6581   2.075   1.566   1.919
 2192TIP3    H1 6582   2.094   1.489   1.865
 2192TIP3    H2 6583   2.100   1.540   2.008
 2193TIP3   OH2 6584   4.586   5.514   0.116
 2193TIP3    H1 6585   4.595   5.516   0.211
 2193TIP3    H2 6586   4.676   5.517   0.083
 2194TIP3   OH2 6587   3.928   1.599   0.197
 2194TIP3    H1 6588   3.896   1.670   0.252
 2194TIP3    H2 6589   3.926   1.634   0.108
 2195TIP3   OH2 6590   2.842   4.711   4.552
 2195TIP3    H1 6591   2.824   4.692   4.644
 2195TIP3    H2 6592   2.869   4.627   4.516
 2196TIP3   OH2 6593   6.114   3.251   4.749
 2196TIP3    H1 6594   6.021   3.273   4.751
 2196TIP3    H2 6595   6.157   3.328   4.786
 2197TIP3   OH2 6596   4.458   2.978   5.030
 2197TIP3    H1 6597   4.545   3.005   5.058
 2197TIP3    H2 6598   4.449   3.016   4.942
 2198TIP3   OH2 6599   0.858   0.557   0.563
 2198TIP3    H1 6600   0.866   0.465   0.590
 2198TIP3    H2 6601   0.916   0.604   0.623
 2199TIP3   OH2 6602   6.207   0.462   4.308
 2199TIP3    H1 6603   6.246   0.493   4.227
 2199TIP3    H2 6604   6.277   0.411   4.350
 2200TIP3   OH2 6605   5.106   4.716   4.417
 2200TIP3    H1 6606   5.029   4.660   4.417
 2200TIP3    H2 6607   5.098   4.769   4.497
 2201TIP3   OH2 6608   2.526   4.391   3.499
 2201TIP3    H1 6609   2.585   4.448   3.451
 2201TIP3    H2 6610   2.552   4.302   3.475
 2202TIP3   OH2 6611   3.253   1.136   0.660
 2202TIP3    H1 6612   3.169   1.090   0.657
 2202TIP3    H2 6613   3.317   1.069   0.685
 2203TIP3   OH2 6614   2.739   3.447   1.872
 2203TIP3    H1 6615   2.676   3.517   1.887
 2203TIP3    H2 6616   2.721   3.383   1.942
 2204TIP3   OH2 6617   4.801   1.882   1.190
 2204TIP3    H1 6618   4.735   1.824   1.153
 2204TIP3    H2 6619   4.872   1.824   1.217
 2205TIP3   OH2 6620   2.873   5.803   1.558
 2205TIP3    H1 6621   2.876   5.744   1.483
 2205TIP3    H2 6622   2.937   5.767   1.619
 2206TIP3   OH2 6623   1.672   3.752   4.589
 2206TIP3    H1 6624   1.660   3.696   4.513
 2206TIP3    H2 6625   1.583   3.773   4.618
 2207TIP3   OH2 6626   2.606   4.997   1.830
 2207TIP3    H1 6627   2.603   5.008   1.735
 2207TIP3    H2 6628   2.548   5.066   1.863
 2208TIP3   OH2 6629   5.710   3.241   4.159
 2208TIP3    H1 6630   5.733   3.231   4.252
 2208TIP3    H2 6631   5.691   3.152   4.130
 2209TIP3   OH2 6632   3.586   2.384   3.682
 2209TIP3    H1 6633   3.498   2.351   3.667
 2209TIP3    H2 6634   3.576   2.480   3.683
 2210TIP3   OH2 6635   2.000   3.781   0.823
 2210TIP3    H1 6636   2.037   3.799   0.736
 2210TIP3    H2 6637   2.027   3.691   0.842
 2211TIP3   OH2 6638   5.356   5.327   4.671
 2211TIP3    H1 6639   5.307   5.350   4.592
 2211TIP3    H2 6640   5.428   5.390   4.675
 2212TIP3   OH2 6641   2.824   5.814   3.551
 2212TIP3    H1 6642   2.762   5.799   3.479
 2212TIP3    H2 6643   2.859   5.901   3.535
 2213TIP3   OH2 6644   5.216   0.115   5.043
 2213TIP3    H1 6645   5.239   0.140   5.132
 2213TIP3    H2 6646   5.121   0.122   5.040
 2214TIP3   OH2 6647   1.894   1.761   3.676
 2214TIP3    H1 6648   1.804   1.729   3.676
 2214TIP3    H2 6649   1.946   1.686   3.704
 2215TIP3   OH2 6650   0.271   4.283   1.570
 2215TIP3    H1 6651   0.189   4.236   1.586
 2215TIP3    H2 6652   0.335   4.213   1.553
 2216TIP3   OH2 6653   4.200   4.813   3.631
 2216TIP3    H1 6654   4.270   4.758   3.667
 2216TIP3    H2 6655   4.154   4.755   3.569
 2217TIP3   OH2 6656   2.974   3.227   1.900
 2217TIP3    H1 6657   3.033   3.244   1.827
 2217TIP3    H2 6658   2.962   3.311   1.943
 2218TIP3   OH2 6659   1.792   0.466   2.204
 2218TIP3    H1 6660   1.802   0.387   2.151
 2218TIP3    H2 6661   1.709   0.453   2.249
 2219TIP3   OH2 6662   1.298   1.790   0.707
 2219TIP3    H1 6663   1.275   1.745   0.789
 2219TIP3    H2 6664   1.292   1.883   0.729
 2220TIP3   OH2 6665   5.411   5.343   1.803
 2220TIP3    H1 6666   5.325   5.321   1.840
 2220TIP3    H2 6667   5.423   5.279   1.732
 2221TIP3   OH2 6668   3.241   3.942   3.640
 2221TIP3    H1 6669   3.150   3.973   3.641
 2221TIP3    H2 6670   3.246   3.887   3.562
 2222TIP3   OH2 6671   2.977   1.830   2.783
 2222TIP3    H1 6672   3.009   1.740   2.775
 2222TIP3    H2 6673   2.921   1.828   2.861
 2223TIP3   OH2 6674   4.238   0.658   1.853
 2223TIP3    H1 6675   4.321   0.611   1.863
 2223TIP3    H2 6676   4.242   0.729   1.916
 2224TIP3   OH2 6677   3.857   5.121   3.159
 2224TIP3    H1 6678   3.951   5.119   3.177
 2224TIP3    H2 6679   3.828   5.203   3.199
 2225TIP3   OH2 6680   3.623   1.383   4.375
 2225TIP3    H1 6681   3.585   1.297   4.359
 2225TIP3    H2 6682   3.668   1.405   4.293
 2226TIP3   OH2 6683   3.395   0.876   1.433
 2226TIP3    H1 6684   3.471   0.868   1.492
 2226TIP3    H2 6685   3.421   0.827   1.355
 2227TIP3   OH2 6686   6.256   0.146   0.133
 2227TIP3    H1 6687   6.194   0.184   0.070
 2227TIP3    H2 6688   6.264   0.211   0.202
 2228TIP3   OH2 6689   1.247   2.903   0.025
 2228TIP3    H1 6690   1.268   2.847   0.100
 2228TIP3    H2 6691   1.183   2.965   0.060
 2229TIP3   OH2 6692   5.747   5.817   4.923
 2229TIP3    H1 6693   5.769   5.909   4.938
 2229TIP3    H2 6694   5.766   5.803   4.830
 2230TIP3   OH2 6695   2.193   2.331   3.222
 2230TIP3    H1 6696   2.264   2.275   3.192
 2230TIP3    H2 6697   2.113   2.291   3.187
 2231TIP3   OH2 6698   4.063   5.113   5.191
 2231TIP3    H1 6699   4.099   5.036   5.148
 2231TIP3    H2 6700   4.059   5.179   5.122
 2232TIP3   OH2 6701   1.799   3.318   1.696
 2232TIP3    H1 6702   1.832   3.232   1.669
 2232TIP3    H2 6703   1.722   3.332   1.641
 2233TIP3   OH2 6704   0.765   4.391   3.367
 2233TIP3    H1 6705   0.786   4.307   3.406
 2233TIP3    H2 6706   0.731   4.370   3.280
 2234TIP3   OH2 6707   1.091   3.823   4.289
 2234TIP3    H1 6708   1.173   3.798   4.246
 2234TIP3    H2 6709   1.069   3.908   4.250
 2235TIP3   OH2 6710   0.303   1.406   2.206
 2235TIP3    H1 6711   0.368   1.392   2.137
 2235TIP3    H2 6712   0.219   1.408   2.161
 2236TIP3   OH2 6713   5.686   0.512   5.118
 2236TIP3    H1 6714   5.648   0.571   5.183
 2236TIP3    H2 6715   5.777   0.540   5.111
 2237TIP3   OH2 6716   5.688   5.099   3.481
 2237TIP3    H1 6717   5.644   5.161   3.423
 2237TIP3    H2 6718   5.741   5.154   3.539
 2238TIP3   OH2 6719   0.252   3.080   0.133
 2238TIP3    H1 6720   0.298   3.003   0.102
 2238TIP3    H2 6721   0.178   3.090   0.073
 2239TIP3   OH2 6722   4.328   1.183   0.823
 2239TIP3    H1 6723   4.246   1.134   0.827
 2239TIP3    H2 6724   4.364   1.176   0.911
 2240TIP3   OH2 6725   3.338   1.952   0.582
 2240TIP3    H1 6726   3.323   1.867   0.625
 2240TIP3    H2 6727   3.427   1.977   0.608
 2241TIP3   OH2 6728   0.388   3.266   4.506
 2241TIP3    H1 6729   0.403   3.361   4.512
 2241TIP3    H2 6730   0.470   3.231   4.471
 2242TIP3   OH2 6731   5.573   3.947   0.583
 2242TIP3    H1 6732   5.506   4.004   0.620
 2242TIP3    H2 6733   5.576   3.969   0.490
 2243TIP3   OH2 6734   1.593   5.396   4.421
 2243TIP3    H1 6735   1.682   5.422   4.441
 2243TIP3    H2 6736   1.595   5.300   4.425
 2244TIP3   OH2 6737   0.501   2.692   4.076
 2244TIP3    H1 6738   0.482   2.785   4.091
 2244TIP3    H2 6739   0.476   2.649   4.158
 2245TIP3   OH2 6740   3.131   5.693   1.750
 2245TIP3    H1 6741   3.076   5.644   1.811
 2245TIP3    H2 6742   3.122   5.785   1.778
 2246TIP3   OH2 6743   4.614   5.285   2.461
 2246TIP3    H1 6744   4.614   5.350   2.531
 2246TIP3    H2 6745   4.641   5.204   2.504
 2247TIP3   OH2 6746   3.009   2.640   4.402
 2247TIP3    H1 6747   3.040   2.550   4.413
 2247TIP3    H2 6748   3.048   2.688   4.475
 2248TIP3   OH2 6749   4.881   3.800   3.063
 2248TIP3    H1 6750   4.877   3.776   3.155
 2248TIP3    H2 6751   4.953   3.862   3.056
 2249TIP3   OH2 6752   2.035   5.771   2.573
 2249TIP3    H1 6753   2.043   5.860   2.608
 2249TIP3    H2 6754   2.100   5.767   2.504
 2250TIP3   OH2 6755   4.240   2.294   0.134
 2250TIP3    H1 6756   4.297   2.357   0.178
 2250TIP3    H2 6757   4.286   2.272   0.053
 2251TIP3   OH2 6758   5.279   1.033   1.603
 2251TIP3    H1 6759   5.266   1.071   1.690
 2251TIP3    H2 6760   5.328   0.952   1.620
 2252TIP3   OH2 6761   4.413   3.647   1.078
 2252TIP3    H1 6762   4.366   3.713   1.128
 2252TIP3    H2 6763   4.344   3.593   1.038
 2253TIP3   OH2 6764   5.876   5.418   2.108
 2253TIP3    H1 6765   5.933   5.446   2.179
 2253TIP3    H2 6766   5.890   5.323   2.102
 2254TIP3   OH2 6767   3.080   5.937   0.297
 2254TIP3    H1 6768   3.151   5.919   0.235
 2254TIP3    H2 6769   3.014   5.984   0.246
 2255TIP3   OH2 6770   4.485   0.714   0.096
 2255TIP3    H1 6771   4.431   0.761   0.160
 2255TIP3    H2 6772   4.521   0.641   0.145
 2256TIP3   OH2 6773   4.752   4.492   1.655
 2256TIP3    H1 6774   4.695   4.558   1.616
 2256TIP3    H2 6775   4.739   4.502   1.749
 2257TIP3   OH2 6776   2.101   1.221   4.107
 2257TIP3    H1 6777   2.051   1.147   4.072
 2257TIP3    H2 6778   2.089   1.215   4.202
 2258TIP3   OH2 6779   2.376   3.554   1.383
 2258TIP3    H1 6780   2.376   3.610   1.305
 2258TIP3    H2 6781   2.284   3.547   1.407
 2259TIP3   OH2 6782   3.316   0.937   4.224
 2259TIP3    H1 6783   3.285   0.867   4.282
 2259TIP3    H2 6784   3.236   0.976   4.188
 2260TIP3   OH2 6785   5.577   2.330   1.845
 2260TIP3    H1 6786   5.487   2.340   1.876
 2260TIP3    H2 6787   5.630   2.370   1.914
 2261TIP3   OH2 6788   6.046   4.496   4.201
 2261TIP3    H1 6789   6.030   4.403   4.182
 2261TIP3    H2 6790   5.992   4.543   4.138
 2262TIP3   OH2 6791   3.455   3.144   1.923
 2262TIP3    H1 6792   3.371   3.131   1.967
 2262TIP3    H2 6793   3.520   3.111   1.985
 2263TIP3   OH2 6794   4.753   0.568   2.734
 2263TIP3    H1 6795   4.825   0.621   2.700
 2263TIP3    H2 6796   4.787   0.479   2.736
 2264TIP3   OH2 6797   2.464   3.224   0.432
 2264TIP3    H1 6798   2.411   3.155   0.391
 2264TIP3    H2 6799   2.407   3.301   0.431
 2265TIP3   OH2 6800   1.534   0.097   1.086
 2265TIP3    H1 6801   1.587   0.102   1.165
 2265TIP3    H2 6802   1.580   0.035   1.030
 2266TIP3   OH2 6803   2.487   1.599   0.945
 2266TIP3    H1 6804   2.467   1.514   0.985
 2266TIP3    H2 6805   2.576   1.588   0.910
 2267TIP3   OH2 6806   6.103   2.717   2.670
 2267TIP3    H1 6807   6.098   2.681   2.759
 2267TIP3    H2 6808   6.034   2.672   2.622
 2268TIP3   OH2 6809   0.417   1.736   0.657
 2268TIP3    H1 6810   0.416   1.679   0.580
 2268TIP3    H2 6811   0.355   1.806   0.636
 2269TIP3   OH2 6812   5.727   3.061   0.973
 2269TIP3    H1 6813   5.692   3.003   0.906
 2269TIP3    H2 6814   5.820   3.069   0.951
 2270TIP3   OH2 6815   1.474   5.608   1.210
 2270TIP3    H1 6816   1.384   5.629   1.234
 2270TIP3    H2 6817   1.466   5.540   1.143
 2271TIP3   OH2 6818   6.222   5.621   3.366
 2271TIP3    H1 6819   6.257   5.675   3.437
 2271TIP3    H2 6820   6.128   5.641   3.365
 2272TIP3   OH2 6821   0.311   4.914   3.356
 2272TIP3    H1 6822   0.369   4.937   3.283
 2272TIP3    H2 6823   0.321   4.985   3.419
 2273TIP3   OH2 6824   3.529   5.381   3.780
 2273TIP3    H1 6825   3.439   5.364   3.807
 2273TIP3    H2 6826   3.541   5.330   3.700
 2274TIP3   OH2 6827   4.117   0.692   4.744
 2274TIP3    H1 6828   4.074   0.677   4.660
 2274TIP3    H2 6829   4.097   0.614   4.796
 2275TIP3   OH2 6830   4.955   0.513   5.137
 2275TIP3    H1 6831   4.949   0.437   5.195
 2275TIP3    H2 6832   4.912   0.584   5.186
 2276TIP3   OH2 6833   2.793   5.665   2.216
 2276TIP3    H1 6834   2.757   5.585   2.178
 2276TIP3    H2 6835   2.815   5.720   2.140
 2277TIP3   OH2 6836   5.271   5.173   3.013
 2277TIP3    H1 6837   5.287   5.085   2.979
 2277TIP3    H2 6838   5.301   5.232   2.943
 2278TIP3   OH2 6839   4.605   5.064   3.238
 2278TIP3    H1 6840   4.683   5.012   3.259
 2278TIP3    H2 6841   4.545   5.048   3.312
 2279TIP3   OH2 6842   3.545   5.376   5.181
 2279TIP3    H1 6843   3.558   5.425   5.100
 2279TIP3    H2 6844   3.569   5.286   5.159
 2280TIP3   OH2 6845   2.433   5.259   0.538
 2280TIP3    H1 6846   2.420   5.353   0.524
 2280TIP3    H2 6847   2.475   5.228   0.458
 2281TIP3   OH2 6848   2.483   1.933   0.455
 2281TIP3    H1 6849   2.405   1.892   0.494
 2281TIP3    H2 6850   2.459   2.025   0.446
 2282TIP3   OH2 6851   4.425   3.450   1.953
 2282TIP3    H1 6852   4.509   3.452   2.000
 2282TIP3    H2 6853   4.421   3.535   1.908
 2283TIP3   OH2 6854   0.193   4.578   3.840
 2283TIP3    H1 6855   0.186   4.559   3.934
 2283TIP3    H2 6856   0.247   4.507   3.805
 2284TIP3   OH2 6857   6.068   1.736   5.151
 2284TIP3    H1 6858   6.046   1.716   5.060
 2284TIP3    H2 6859   6.142   1.678   5.171
 2285TIP3   OH2 6860   2.481   5.514   1.790
 2285TIP3    H1 6861   2.525   5.584   1.741
 2285TIP3    H2 6862   2.428   5.469   1.725
 2286TIP3   OH2 6863   5.420   4.418   0.490
 2286TIP3    H1 6864   5.420   4.369   0.408
 2286TIP3    H2 6865   5.330   4.450   0.499
 2287TIP3   OH2 6866   1.776   3.427   0.564
 2287TIP3    H1 6867   1.745   3.510   0.527
 2287TIP3    H2 6868   1.697   3.387   0.601
 2288TIP3   OH2 6869   1.084   1.204   3.204
 2288TIP3    H1 6870   1.122   1.130   3.157
 2288TIP3    H2 6871   1.076   1.273   3.138
 2289TIP3   OH2 6872   2.006   4.061   3.901
 2289TIP3    H1 6873   2.099   4.038   3.906
 2289TIP3    H2 6874   1.968   3.993   3.845
 2290TIP3   OH2 6875   4.638   0.018   4.514
 2290TIP3    H1 6876   4.660   0.081   4.582
 2290TIP3    H2 6877   4.549   0.042   4.486
 2291TIP3   OH2 6878   5.452   2.034   1.973
 2291TIP3    H1 6879   5.461   1.948   2.014
 2291TIP3    H2 6880   5.512   2.031   1.898
 2292TIP3   OH2 6881   0.200   1.864   1.560
 2292TIP3    H1 6882   0.134   1.822   1.614
 2292TIP3    H2 6883   0.194   1.957   1.581
 2293TIP3   OH2 6884   4.434   1.169   1.973
 2293TIP3    H1 6885   4.496   1.185   1.902
 2293TIP3    H2 6886   4.373   1.243   1.969
 2294TIP3   OH2 6887   6.161   1.040   0.263
 2294TIP3    H1 6888   6.255   1.055   0.254
 2294TIP3    H2 6889   6.135   1.093   0.338
 2295TIP3   OH2 6890   2.546   3.543   0.050
 2295TIP3    H1 6891   2.550   3.581  -0.038
 2295TIP3    H2 6892   2.608   3.470   0.047
 2296TIP3   OH2 6893   3.811   4.261   1.184
 2296TIP3    H1 6894   3.774   4.178   1.152
 2296TIP3    H2 6895   3.807   4.253   1.279
 2297TIP3   OH2 6896   6.224   3.835   3.579
 2297TIP3    H1 6897   6.142   3.878   3.604
 2297TIP3    H2 6898   6.258   3.889   3.508
 2298TIP3   OH2 6899   4.825   3.217   4.333
 2298TIP3    H1 6900   4.797   3.306   4.313
 2298TIP3    H2 6901   4.749   3.176   4.374
 2299TIP3   OH2 6902   1.198   5.082   4.136
 2299TIP3    H1 6903   1.292   5.078   4.120
 2299TIP3    H2 6904   1.161   5.014   4.080
 2300TIP3   OH2 6905   5.605   2.600   1.736
 2300TIP3    H1 6906   5.632   2.655   1.809
 2300TIP3    H2 6907   5.567   2.522   1.777
 2301TIP3   OH2 6908   0.922   5.849   3.150
 2301TIP3    H1 6909   0.854   5.814   3.207
 2301TIP3    H2 6910   0.995   5.870   3.208
 2302TIP3   OH2 6911   2.958   3.763   3.459
 2302TIP3    H1 6912   2.934   3.681   3.416
 2302TIP3    H2 6913   3.021   3.803   3.399
 2303TIP3   OH2 6914   5.894   5.730   2.753
 2303TIP3    H1 6915   5.942   5.716   2.835
 2303TIP3    H2 6916   5.905   5.823   2.734
 2304TIP3   OH2 6917   4.332   2.039   3.707
 2304TIP3    H1 6918   4.264   2.105   3.693
 2304TIP3    H2 6919   4.311   1.969   3.645
 2305TIP3   OH2 6920   0.675   4.316   2.785
 2305TIP3    H1 6921   0.739   4.311   2.856
 2305TIP3    H2 6922   0.610   4.249   2.806
 2306TIP3   OH2 6923   0.983   2.319   4.493
 2306TIP3    H1 6924   1.025   2.385   4.549
 2306TIP3    H2 6925   1.055   2.278   4.446
 2307TIP3   OH2 6926   1.880   3.193   1.363
 2307TIP3    H1 6927   1.965   3.229   1.337
 2307TIP3    H2 6928   1.889   3.174   1.457
 2308TIP3   OH2 6929   2.643   4.796   0.399
 2308TIP3    H1 6930   2.670   4.849   0.324
 2308TIP3    H2 6931   2.656   4.706   0.371
 2309TIP3   OH2 6932   3.130   5.413   0.297
 2309TIP3    H1 6933   3.066   5.377   0.236
 2309TIP3    H2 6934   3.156   5.496   0.258
 2310TIP3   OH2 6935   6.286   2.086   0.877
 2310TIP3    H1 6936   6.332   2.099   0.794
 2310TIP3    H2 6937   6.348   2.038   0.931
 2311TIP3   OH2 6938   1.851   2.537   4.035
 2311TIP3    H1 6939   1.854   2.463   3.973
 2311TIP3    H2 6940   1.884   2.611   3.984
 2312TIP3   OH2 6941   3.367   5.519   2.402
 2312TIP3    H1 6942   3.412   5.511   2.318
 2312TIP3    H2 6943   3.317   5.438   2.411
 2313TIP3   OH2 6944   0.860   4.394   0.048
 2313TIP3    H1 6945   0.888   4.481   0.079
 2313TIP3    H2 6946   0.796   4.413  -0.021
 2314TIP3   OH2 6947   5.986   3.285   3.003
 2314TIP3    H1 6948   6.015   3.283   3.094
 2314TIP3    H2 6949   5.971   3.378   2.984
 2315TIP3   OH2 6950   2.349   1.881   3.108
 2315TIP3    H1 6951   2.353   1.791   3.077
 2315TIP3    H2 6952   2.255   1.900   3.114
 2316TIP3   OH2 6953   4.671   1.511   3.243
 2316TIP3    H1 6954   4.647   1.561   3.320
 2316TIP3    H2 6955   4.742   1.561   3.202
 2317TIP3   OH2 6956   4.785   3.828   4.411
 2317TIP3    H1 6957   4.877   3.853   4.421
 2317TIP3    H2 6958   4.777   3.800   4.320
 2318TIP3   OH2 6959   1.725   2.789   0.665
 2318TIP3    H1 6960   1.666   2.847   0.616
 2318TIP3    H2 6961   1.667   2.727   0.708
 2319TIP3   OH2 6962   3.859   3.688   1.427
 2319TIP3    H1 6963   3.910   3.747   1.484
 2319TIP3    H2 6964   3.805   3.747   1.374
 2320TIP3   OH2 6965   6.311   1.884   4.793
 2320TIP3    H1 6966   6.278   1.795   4.781
 2320TIP3    H2 6967   6.258   1.920   4.864
 2321TIP3   OH2 6968   5.417   1.258   4.413
 2321TIP3    H1 6969   5.332   1.294   4.387
 2321TIP3    H2 6970   5.411   1.165   4.392
 2322TIP3   OH2 6971   5.344   3.460   1.129
 2322TIP3    H1 6972   5.415   3.407   1.166
 2322TIP3    H2 6973   5.358   3.456   1.034
 2323TIP3   OH2 6974   3.275   3.718   1.879
 2323TIP3    H1 6975   3.209   3.658   1.910
 2323TIP3    H2 6976   3.307   3.679   1.798
 2324TIP3   OH2 6977   1.125   1.813   1.509
 2324TIP3    H1 6978   1.124   1.838   1.416
 2324TIP3    H2 6979   1.098   1.721   1.509
 2325TIP3   OH2 6980   3.025   0.821   2.037
 2325TIP3    H1 6981   3.046   0.727   2.039
 2325TIP3    H2 6982   3.108   0.864   2.059
 2326TIP3   OH2 6983   4.751   1.428   3.966
 2326TIP3    H1 6984   4.716   1.416   4.055
 2326TIP3    H2 6985   4.689   1.488   3.924
 2327TIP3   OH2 6986   1.620   2.305   3.115
 2327TIP3    H1 6987   1.536   2.261   3.097
 2327TIP3    H2 6988   1.650   2.266   3.196
 2328TIP3   OH2 6989   0.677   0.254   4.451
 2328TIP3    H1 6990   0.714   0.304   4.378
 2328TIP3    H2 6991   0.654   0.320   4.516
 2329TIP3   OH2 6992   0.420   3.689   3.109
 2329TIP3    H1 6993   0.430   3.662   3.018
 2329TIP3    H2 6994   0.451   3.613   3.160
 2330TIP3   OH2 6995   0.168   0.425   3.469
 2330TIP3    H1 6996   0.219   0.488   3.419
 2330TIP3    H2 6997   0.077   0.449   3.452
 2331TIP3   OH2 6998   3.887   3.575   4.571
 2331TIP3    H1 6999   3.876   3.635   4.645
 2331TIP3    H2 7000   3.819   3.508   4.584
 2332TIP3   OH2 7001   3.049   2.842   4.854
 2332TIP3    H1 7002   3.075   2.934   4.860
 2332TIP3    H2 7003   2.954   2.843   4.860
 2333TIP3   OH2 7004   4.662   1.002   3.051
 2333TIP3    H1 7005   4.620   1.088   3.053
 2333TIP3    H2 7006   4.754   1.020   3.072
 2334TIP3   OH2 7007   5.178   2.903   1.178
 2334TIP3    H1 7008   5.243   2.836   1.201
 2334TIP3    H2 7009   5.112   2.896   1.247
 2335TIP3   OH2 7010   2.032   3.740   1.174
 2335TIP3    H1 7011   2.022   3.803   1.245
 2335TIP3    H2 7012   2.126   3.742   1.154
 2336TIP3   OH2 7013   1.982   5.721   0.901
 2336TIP3    H1 7014   2.016   5.636   0.932
 2336TIP3    H2 7015   2.020   5.785   0.961
 2337TIP3   OH2 7016   5.746   5.823   0.600
 2337TIP3    H1 7017   5.766   5.903   0.649
 2337TIP3    H2 7018   5.708   5.764   0.665
 2338TIP3   OH2 7019   1.627   3.148   3.931
 2338TIP3    H1 7020   1.646   3.242   3.934
 2338TIP3    H2 7021   1.648   3.117   4.019
 2339TIP3   OH2 7022   5.061   5.485   3.019
 2339TIP3    H1 7023   4.998   5.506   3.088
 2339TIP3    H2 7024   5.146   5.493   3.061
 2340TIP3   OH2 7025   2.623   1.601   0.275
 2340TIP3    H1 7026   2.623   1.577   0.367
 2340TIP3    H2 7027   2.678   1.680   0.271
 2341TIP3   OH2 7028   5.080   1.087   5.082
 2341TIP3    H1 7029   5.081   1.072   4.988
 2341TIP3    H2 7030   5.035   1.171   5.092
 2342TIP3   OH2 7031   0.925   2.476   1.319
 2342TIP3    H1 7032   0.916   2.498   1.412
 2342TIP3    H2 7033   0.843   2.433   1.296
 2343TIP3   OH2 7034   2.396   2.772   2.515
 2343TIP3    H1 7035   2.359   2.686   2.494
 2343TIP3    H2 7036   2.424   2.807   2.431
 2344TIP3   OH2 7037   1.536   4.893   0.911
 2344TIP3    H1 7038   1.512   4.897   1.004
 2344TIP3    H2 7039   1.630   4.912   0.909
 2345TIP3   OH2 7040   4.885   5.421   1.982
 2345TIP3    H1 7041   4.861   5.438   1.891
 2345TIP3    H2 7042   4.944   5.493   2.005
 2346TIP3   OH2 7043   2.565   2.887   3.659
 2346TIP3    H1 7044   2.652   2.856   3.683
 2346TIP3    H2 7045   2.562   2.877   3.564
 2347TIP3   OH2 7046   0.115   4.710   3.300
 2347TIP3    H1 7047   0.151   4.798   3.300
 2347TIP3    H2 7048   0.083   4.697   3.210
 2348TIP3   OH2 7049   1.215   4.018   4.469
 2348TIP3    H1 7050   1.127   4.028   4.433
 2348TIP3    H2 7051   1.271   4.072   4.413
 2349TIP3   OH2 7052   5.097   4.323   2.344
 2349TIP3    H1 7053   5.144   4.367   2.414
 2349TIP3    H2 7054   5.097   4.230   2.369
 2350TIP3   OH2 7055   3.375   5.317   1.331
 2350TIP3    H1 7056   3.340   5.229   1.317
 2350TIP3    H2 7057   3.359   5.335   1.423
 2351TIP3   OH2 7058   3.068   5.349   1.854
 2351TIP3    H1 7059   3.114   5.395   1.924
 2351TIP3    H2 7060   2.977   5.379   1.861
 2352TIP3   OH2 7061   1.969   0.283   2.708
 2352TIP3    H1 7062   2.044   0.245   2.755
 2352TIP3    H2 7063   1.973   0.243   2.621
 2353TIP3   OH2 7064   0.744   4.983   3.597
 2353TIP3    H1 7065   0.836   5.009   3.589
 2353TIP3    H2 7066   0.748   4.891   3.625
 2354TIP3   OH2 7067   0.835   5.830   0.702
 2354TIP3    H1 7068   0.880   5.838   0.617
 2354TIP3    H2 7069   0.823   5.736   0.714
 2355TIP3   OH2 7070   4.138   5.777   4.443
 2355TIP3    H1 7071   4.170   5.774   4.533
 2355TIP3    H2 7072   4.068   5.843   4.444
 2356TIP3   OH2 7073   1.394   0.982   4.152
 2356TIP3    H1 7074   1.415   0.909   4.211
 2356TIP3    H2 7075   1.389   1.058   4.209
 2357TIP3   OH2 7076   1.690   2.847   4.280
 2357TIP3    H1 7077   1.776   2.858   4.320
 2357TIP3    H2 7078   1.699   2.771   4.223
 2358TIP3   OH2 7079   4.018   3.273   1.265
 2358TIP3    H1 7080   3.972   3.308   1.341
 2358TIP3    H2 7081   4.023   3.346   1.203
 2359TIP3   OH2 7082   1.293   1.528   1.457
 2359TIP3    H1 7083   1.226   1.597   1.466
 2359TIP3    H2 7084   1.256   1.468   1.393
 2360TIP3   OH2 7085   3.302   5.218   2.811
 2360TIP3    H1 7086   3.362   5.167   2.757
 2360TIP3    H2 7087   3.228   5.236   2.754
 2361TIP3   OH2 7088   2.289   2.807   0.929
 2361TIP3    H1 7089   2.229   2.734   0.942
 2361TIP3    H2 7090   2.257   2.850   0.849
 2362TIP3   OH2 7091   5.656   3.458   3.664
 2362TIP3    H1 7092   5.720   3.516   3.623
 2362TIP3    H2 7093   5.679   3.458   3.757
 2363TIP3   OH2 7094   0.957   2.038   2.122
 2363TIP3    H1 7095   1.033   1.990   2.087
 2363TIP3    H2 7096   0.887   2.020   2.059
 2364TIP3   OH2 7097   4.305   1.921   0.780
 2364TIP3    H1 7098   4.325   1.904   0.688
 2364TIP3    H2 7099   4.214   1.892   0.789
 2365TIP3   OH2 7100   4.343   3.005   1.580
 2365TIP3    H1 7101   4.378   3.060   1.509
 2365TIP3    H2 7102   4.325   3.067   1.651
 2366TIP3   OH2 7103   6.101   4.345   2.128
 2366TIP3    H1 7104   6.102   4.437   2.156
 2366TIP3    H2 7105   6.052   4.300   2.196
 2367TIP3   OH2 7106   3.220   1.081   0.166
 2367TIP3    H1 7107   3.202   1.174   0.179
 2367TIP3    H2 7108   3.304   1.066   0.209
 2368TIP3   OH2 7109   1.540   4.402   3.015
 2368TIP3    H1 7110   1.563   4.494   3.022
 2368TIP3    H2 7111   1.551   4.367   3.104
 2369TIP3   OH2 7112   6.320   5.165   3.286
 2369TIP3    H1 7113   6.230   5.138   3.268
 2369TIP3    H2 7114   6.331   5.149   3.380
 2370TIP3   OH2 7115   2.458   3.214   2.335
 2370TIP3    H1 7116   2.378   3.175   2.371
 2370TIP3    H2 7117   2.526   3.150   2.355
 2371TIP3   OH2 7118   2.669   0.968   1.461
 2371TIP3    H1 7119   2.760   0.970   1.491
 2371TIP3    H2 7120   2.671   0.913   1.383
 2372TIP3   OH2 7121   0.584   0.646   1.184
 2372TIP3    H1 7122   0.664   0.608   1.148
 2372TIP3    H2 7123   0.609   0.736   1.206
 2373TIP3   OH2 7124   6.218   2.476   2.290
 2373TIP3    H1 7125   6.219   2.527   2.371
 2373TIP3    H2 7126   6.310   2.459   2.271
 2374TIP3   OH2 7127   1.287   4.493   1.473
 2374TIP3    H1 7128   1.264   4.575   1.430
 2374TIP3    H2 7129   1.204   4.449   1.488
 2375TIP3   OH2 7130   3.115   1.487   2.455
 2375TIP3    H1 7131   3.196   1.438   2.438
 2375TIP3    H2 7132   3.117   1.559   2.393
 2376TIP3   OH2 7133   5.590   4.575   3.804
 2376TIP3    H1 7134   5.505   4.580   3.847
 2376TIP3    H2 7135   5.653   4.590   3.875
 2377TIP3   OH2 7136   5.710   4.257   2.109
 2377TIP3    H1 7137   5.748   4.172   2.088
 2377TIP3    H2 7138   5.636   4.266   2.049
 2378TIP3   OH2 7139   4.681   0.043   2.139
 2378TIP3    H1 7140   4.744   0.074   2.203
 2378TIP3    H2 7141   4.704   0.089   2.058
 2379TIP3   OH2 7142   2.134   2.643   0.127
 2379TIP3    H1 7143   2.204   2.578   0.121
 2379TIP3    H2 7144   2.178   2.723   0.156
 2380TIP3   OH2 7145   3.155   4.876   2.171
 2380TIP3    H1 7146   3.128   4.944   2.233
 2380TIP3    H2 7147   3.148   4.918   2.085
 2381TIP3   OH2 7148   0.645   3.964   0.537
 2381TIP3    H1 7149   0.631   3.990   0.628
 2381TIP3    H2 7150   0.576   3.900   0.520
 2382TIP3   OH2 7151   5.165   5.133   1.118
 2382TIP3    H1 7152   5.112   5.163   1.044
 2382TIP3    H2 7153   5.135   5.185   1.192
 2383TIP3   OH2 7154   2.348   4.495   2.100
 2383TIP3    H1 7155   2.329   4.476   2.008
 2383TIP3    H2 7156   2.440   4.469   2.111
 2384TIP3   OH2 7157   4.499   2.534   4.084
 2384TIP3    H1 7158   4.475   2.462   4.142
 2384TIP3    H2 7159   4.570   2.499   4.030
 2385TIP3   OH2 7160   3.511   4.057   2.402
 2385TIP3    H1 7161   3.605   4.056   2.385
 2385TIP3    H2 7162   3.480   3.973   2.368
 2386TIP3   OH2 7163   1.341   1.316   4.920
 2386TIP3    H1 7164   1.276   1.369   4.967
 2386TIP3    H2 7165   1.289   1.264   4.858
 2387TIP3   OH2 7166   1.863   3.769   2.696
 2387TIP3    H1 7167   1.776   3.739   2.667
 2387TIP3    H2 7168   1.862   3.863   2.681
 2388TIP3   OH2 7169   5.412   4.274   0.228
 2388TIP3    H1 7170   5.502   4.277   0.196
 2388TIP3    H2 7171   5.371   4.205   0.177
 2389TIP3   OH2 7172   0.195   2.018   0.268
 2389TIP3    H1 7173   0.272   2.052   0.222
 2389TIP3    H2 7174   0.133   2.090   0.266
 2390TIP3   OH2 7175   3.851   5.312   3.381
 2390TIP3    H1 7176   3.946   5.316   3.379
 2390TIP3    H2 7177   3.827   5.360   3.460
 2391TIP3   OH2 7178   2.099   1.636   4.427
 2391TIP3    H1 7179   2.022   1.589   4.460
 2391TIP3    H2 7180   2.134   1.579   4.359
 2392TIP3   OH2 7181   5.784   5.569   1.653
 2392TIP3    H1 7182   5.822   5.551   1.567
 2392TIP3    H2 7183   5.757   5.484   1.686
 2393TIP3   OH2 7184   2.578   4.000   5.034
 2393TIP3    H1 7185   2.582   4.078   5.090
 2393TIP3    H2 7186   2.588   4.034   4.945
 2394TIP3   OH2 7187   3.128   4.872   0.376
 2394TIP3    H1 7188   3.168   4.835   0.455
 2394TIP3    H2 7189   3.201   4.886   0.316
 2395TIP3   OH2 7190   4.924   4.878   2.186
 2395TIP3    H1 7191   4.933   4.906   2.095
 2395TIP3    H2 7192   4.857   4.935   2.222
 2396TIP3   OH2 7193   1.412   2.854   3.380
 2396TIP3    H1 7194   1.337   2.912   3.390
 2396TIP3    H2 7195   1.435   2.859   3.287
 2397TIP3   OH2 7196   4.664   5.042   0.022
 2397TIP3    H1 7197   4.691   4.999   0.103
 2397TIP3    H2 7198   4.591   5.099   0.049
 2398TIP3   OH2 7199   6.048   3.712   0.278
 2398TIP3    H1 7200   6.103   3.719   0.356
 2398TIP3    H2 7201   6.054   3.619   0.253
 2399TIP3   OH2 7202   4.962   3.871   2.571
 2399TIP3    H1 7203   4.939   3.843   2.483
 2399TIP3    H2 7204   5.020   3.803   2.604
 2400TIP3   OH2 7205   5.281   2.221   1.862
 2400TIP3    H1 7206   5.347   2.162   1.900
 2400TIP3    H2 7207   5.209   2.218   1.924
 2401TIP3   OH2 7208   6.114   1.219   0.472
 2401TIP3    H1 7209   6.185   1.276   0.502
 2401TIP3    H2 7210   6.036   1.274   0.475
 2402TIP3   OH2 7211   2.002   1.929   0.707
 2402TIP3    H1 7212   1.986   1.995   0.775
 2402TIP3    H2 7213   1.934   1.863   0.720
 2403TIP3   OH2 7214   4.869   1.740   0.327
 2403TIP3    H1 7215   4.934   1.733   0.398
 2403TIP3    H2 7216   4.794   1.785   0.368
 2404TIP3   OH2 7217   2.227   3.426   4.835
 2404TIP3    H1 7218   2.191   3.353   4.887
 2404TIP3    H2 7219   2.275   3.479   4.899
 2405TIP3   OH2 7220   6.171   2.299   3.826
 2405TIP3    H1 7221   6.120   2.363   3.876
 2405TIP3    H2 7222   6.119   2.282   3.748
 2406TIP3   OH2 7223   2.457   4.992   3.230
 2406TIP3    H1 7224   2.511   5.059   3.271
 2406TIP3    H2 7225   2.501   4.975   3.147
 2407TIP3   OH2 7226   2.394   4.857   4.320
 2407TIP3    H1 7227   2.336   4.862   4.244
 2407TIP3    H2 7228   2.454   4.786   4.299
 2408TIP3   OH2 7229   1.038   5.403   1.804
 2408TIP3    H1 7230   0.990   5.322   1.819
 2408TIP3    H2 7231   1.001   5.465   1.867
 2409TIP3   OH2 7232   1.486   5.948   1.508
 2409TIP3    H1 7233   1.546   5.908   1.445
 2409TIP3    H2 7234   1.439   6.015   1.459
 2410TIP3   OH2 7235   2.610   1.551   1.499
 2410TIP3    H1 7236   2.634   1.458   1.498
 2410TIP3    H2 7237   2.542   1.558   1.566
 2411TIP3   OH2 7238   5.804   3.657   0.769
 2411TIP3    H1 7239   5.719   3.653   0.725
 2411TIP3    H2 7240   5.867   3.628   0.702
 2412TIP3   OH2 7241   0.663   3.197   2.400
 2412TIP3    H1 7242   0.675   3.140   2.325
 2412TIP3    H2 7243   0.720   3.161   2.468
 2413TIP3   OH2 7244   3.519   5.018   4.114
 2413TIP3    H1 7245   3.583   4.950   4.093
 2413TIP3    H2 7246   3.441   4.994   4.066
 2414TIP3   OH2 7247   4.200   4.834   4.409
 2414TIP3    H1 7248   4.276   4.805   4.358
 2414TIP3    H2 7249   4.235   4.899   4.470
 2415TIP3   OH2 7250   5.460   5.054   1.942
 2415TIP3    H1 7251   5.439   4.993   2.013
 2415TIP3    H2 7252   5.445   5.003   1.862
 2416TIP3   OH2 7253   4.748   0.023   3.297
 2416TIP3    H1 7254   4.664   0.068   3.307
 2416TIP3    H2 7255   4.737  -0.029   3.217
 2417TIP3   OH2 7256   3.184   4.744   4.639
 2417TIP3    H1 7257   3.225   4.786   4.563
 2417TIP3    H2 7258   3.120   4.808   4.670
 2418TIP3   OH2 7259   0.601   2.994   3.435
 2418TIP3    H1 7260   0.511   2.977   3.409
 2418TIP3    H2 7261   0.602   2.982   3.530
 2419TIP3   OH2 7262   3.295   5.191   3.837
 2419TIP3    H1 7263   3.234   5.157   3.902
 2419TIP3    H2 7264   3.354   5.118   3.818
 2420TIP3   OH2 7265   4.513   2.162   3.140
 2420TIP3    H1 7266   4.422   2.143   3.166
 2420TIP3    H2 7267   4.531   2.100   3.069
 2421TIP3   OH2 7268   5.583   1.069   2.497
 2421TIP3    H1 7269   5.532   1.108   2.568
 2421TIP3    H2 7270   5.651   1.018   2.542
 2422TIP3   OH2 7271   2.983   4.128   1.112
 2422TIP3    H1 7272   3.008   4.036   1.125
 2422TIP3    H2 7273   3.014   4.172   1.191
 2423TIP3   OH2 7274   6.310   2.248   3.476
 2423TIP3    H1 7275   6.319   2.175   3.536
 2423TIP3    H2 7276   6.384   2.305   3.496
 2424TIP3   OH2 7277   4.494   4.243   2.183
 2424TIP3    H1 7278   4.500   4.178   2.112
 2424TIP3    H2 7279   4.550   4.208   2.252
 2425TIP3   OH2 7280   6.180   0.844   4.705
 2425TIP3    H1 7281   6.139   0.907   4.645
 2425TIP3    H2 7282   6.164   0.881   4.792
 2426TIP3   OH2 7283   0.119   0.360   4.373
 2426TIP3    H1 7284   0.082   0.345   4.460
 2426TIP3    H2 7285   0.173   0.282   4.356
 2427TIP3   OH2 7286   3.949   2.518   4.862
 2427TIP3    H1 7287   3.987   2.447   4.914
 2427TIP3    H2 7288   4.014   2.533   4.793
 2428TIP3   OH2 7289   0.359   0.175   2.591
 2428TIP3    H1 7290   0.268   0.157   2.612
 2428TIP3    H2 7291   0.377   0.123   2.513
 2429TIP3   OH2 7292   2.565   0.657   3.503
 2429TIP3    H1 7293   2.626   0.687   3.436
 2429TIP3    H2 7294   2.479   0.679   3.469
 2430TIP3   OH2 7295   4.829   1.158   2.850
 2430TIP3    H1 7296   4.783   1.076   2.829
 2430TIP3    H2 7297   4.918   1.131   2.871
 2431TIP3   OH2 7298   3.022   0.790   4.253
 2431TIP3    H1 7299   3.048   0.699   4.243
 2431TIP3    H2 7300   2.962   0.790   4.328
 2432TIP3   OH2 7301   3.402   4.227   2.640
 2432TIP3    H1 7302   3.468   4.206   2.574
 2432TIP3    H2 7303   3.348   4.148   2.645
 2433TIP3   OH2 7304   1.973   5.498   4.045
 2433TIP3    H1 7305   2.031   5.470   3.974
 2433TIP3    H2 7306   1.890   5.517   4.001
 2434TIP3   OH2 7307   3.195   2.192   2.626
 2434TIP3    H1 7308   3.136   2.137   2.573
 2434TIP3    H2 7309   3.183   2.160   2.715
 2435TIP3   OH2 7310   4.800   2.357   1.054
 2435TIP3    H1 7311   4.857   2.355   0.977
 2435TIP3    H2 7312   4.822   2.277   1.102
 2436TIP3   OH2 7313   3.047   4.581   4.279
 2436TIP3    H1 7314   2.986   4.582   4.205
 2436TIP3    H2 7315   3.098   4.662   4.269
 2437TIP3   OH2 7316   1.136   4.051   4.795
 2437TIP3    H1 7317   1.154   4.014   4.881
 2437TIP3    H2 7318   1.211   4.026   4.741
 2438TIP3   OH2 7319   4.286   0.993   4.599
 2438TIP3    H1 7320   4.264   1.050   4.525
 2438TIP3    H2 7321   4.260   1.043   4.676
 2439TIP3   OH2 7322   2.284   2.837   3.709
 2439TIP3    H1 7323   2.214   2.830   3.643
 2439TIP3    H2 7324   2.365   2.825   3.658
 2440TIP3   OH2 7325   3.467   1.210   3.650
 2440TIP3    H1 7326   3.554   1.214   3.611
 2440TIP3    H2 7327   3.410   1.181   3.579
 2441TIP3   OH2 7328   5.858   2.901   2.309
 2441TIP3    H1 7329   5.802   2.979   2.305
 2441TIP3    H2 7330   5.903   2.908   2.393
 2442TIP3   OH2 7331   1.655   1.038   3.284
 2442TIP3    H1 7332   1.614   1.063   3.367
 2442TIP3    H2 7333   1.733   1.092   3.278
 2443TIP3   OH2 7334   0.538   0.562  -0.024
 2443TIP3    H1 7335   0.592   0.484  -0.012
 2443TIP3    H2 7336   0.492   0.572   0.060
 2444TIP3   OH2 7337   3.588   3.636   3.068
 2444TIP3    H1 7338   3.618   3.546   3.053
 2444TIP3    H2 7339   3.668   3.685   3.086
 2445TIP3   OH2 7340   5.341   0.200   0.584
 2445TIP3    H1 7341   5.434   0.208   0.567
 2445TIP3    H2 7342   5.299   0.226   0.502
 2446TIP3   OH2 7343   1.739   2.019   3.801
 2446TIP3    H1 7344   1.793   1.955   3.754
 2446TIP3    H2 7345   1.749   2.100   3.750
 2447TIP3   OH2 7346   1.418   2.738   1.709
 2447TIP3    H1 7347   1.428   2.668   1.645
 2447TIP3    H2 7348   1.343   2.713   1.762
 2448TIP3   OH2 7349   1.105   2.684   0.926
 2448TIP3    H1 7350   1.034   2.684   0.990
 2448TIP3    H2 7351   1.184   2.669   0.977
 2449TIP3   OH2 7352   4.074   5.273   2.167
 2449TIP3    H1 7353   3.998   5.331   2.161
 2449TIP3    H2 7354   4.133   5.302   2.097
 2450TIP3   OH2 7355   2.297   1.160   1.570
 2450TIP3    H1 7356   2.246   1.238   1.549
 2450TIP3    H2 7357   2.266   1.133   1.656
 2451TIP3   OH2 7358   5.934   1.161   3.852
 2451TIP3    H1 7359   5.900   1.204   3.930
 2451TIP3    H2 7360   6.029   1.161   3.863
 2452TIP3   OH2 7361   0.641   3.001   5.075
 2452TIP3    H1 7362   0.662   3.034   4.988
 2452TIP3    H2 7363   0.699   3.049   5.134
 2453TIP3   OH2 7364   4.088   5.919   0.393
 2453TIP3    H1 7365   4.036   5.847   0.356
 2453TIP3    H2 7366   4.066   5.995   0.340
 2454TIP3   OH2 7367   4.120   4.763   1.158
 2454TIP3    H1 7368   4.163   4.699   1.214
 2454TIP3    H2 7369   4.162   4.846   1.180
 2455TIP3   OH2 7370   4.380   3.701   1.516
 2455TIP3    H1 7371   4.401   3.757   1.441
 2455TIP3    H2 7372   4.404   3.613   1.487
 2456TIP3   OH2 7373   4.260   4.462   0.972
 2456TIP3    H1 7374   4.164   4.464   0.972
 2456TIP3    H2 7375   4.284   4.413   0.893
 2457TIP3   OH2 7376   2.668   5.175   5.145
 2457TIP3    H1 7377   2.728   5.250   5.150
 2457TIP3    H2 7378   2.682   5.139   5.058
 2458TIP3   OH2 7379   3.000   4.685   1.644
 2458TIP3    H1 7380   3.019   4.688   1.738
 2458TIP3    H2 7381   3.084   4.707   1.602
 2459TIP3   OH2 7382   0.286   4.373   1.241
 2459TIP3    H1 7383   0.200   4.415   1.230
 2459TIP3    H2 7384   0.282   4.333   1.328
 2460TIP3   OH2 7385   1.278   0.834   0.445
 2460TIP3    H1 7386   1.353   0.889   0.425
 2460TIP3    H2 7387   1.314   0.746   0.457
 2461TIP3   OH2 7388   0.449   4.376   3.970
 2461TIP3    H1 7389   0.428   4.374   3.876
 2461TIP3    H2 7390   0.371   4.339   4.012
 2462TIP3   OH2 7391   0.180   1.568   4.280
 2462TIP3    H1 7392   0.157   1.529   4.364
 2462TIP3    H2 7393   0.129   1.649   4.276
 2463TIP3   OH2 7394   6.273   3.137   3.501
 2463TIP3    H1 7395   6.238   3.089   3.576
 2463TIP3    H2 7396   6.246   3.085   3.425
 2464TIP3   OH2 7397   6.078   2.522   1.453
 2464TIP3    H1 7398   6.050   2.446   1.402
 2464TIP3    H2 7399   6.002   2.544   1.507
 2465TIP3   OH2 7400   5.880   4.170   0.235
 2465TIP3    H1 7401   5.925   4.093   0.201
 2465TIP3    H2 7402   5.935   4.200   0.307
 2466TIP3   OH2 7403   1.928   3.856   2.308
 2466TIP3    H1 7404   2.000   3.883   2.365
 2466TIP3    H2 7405   1.885   3.938   2.283
 2467TIP3   OH2 7406   1.991   2.591   3.304
 2467TIP3    H1 7407   1.974   2.563   3.394
 2467TIP3    H2 7408   1.903   2.604   3.267
 2468TIP3   OH2 7409   5.431   5.939   1.262
 2468TIP3    H1 7410   5.445   5.928   1.168
 2468TIP3    H2 7411   5.518   5.931   1.300
 2469TIP3   OH2 7412   6.114   0.403   1.480
 2469TIP3    H1 7413   6.118   0.308   1.483
 2469TIP3    H2 7414   6.140   0.431   1.568
 2470TIP3   OH2 7415   4.468   5.281   3.129
 2470TIP3    H1 7416   4.511   5.206   3.170
 2470TIP3    H2 7417   4.473   5.263   3.035
 2471TIP3   OH2 7418   5.025   3.385   0.911
 2471TIP3    H1 7419   5.088   3.405   0.842
 2471TIP3    H2 7420   5.059   3.306   0.953
 2472TIP3   OH2 7421   2.370   3.850   4.908
 2472TIP3    H1 7422   2.429   3.924   4.924
 2472TIP3    H2 7423   2.385   3.827   4.817
 2473TIP3   OH2 7424   2.463   5.384   3.119
 2473TIP3    H1 7425   2.464   5.297   3.080
 2473TIP3    H2 7426   2.382   5.423   3.088
 2474TIP3   OH2 7427   2.291   0.132   4.365
 2474TIP3    H1 7428   2.312   0.196   4.433
 2474TIP3    H2 7429   2.362   0.067   4.371
 2475TIP3   OH2 7430   5.542   0.957   3.703
 2475TIP3    H1 7431   5.549   0.989   3.793
 2475TIP3    H2 7432   5.623   0.907   3.690
 2476TIP3   OH2 7433   4.357   1.923   0.504
 2476TIP3    H1 7434   4.328   1.969   0.425
 2476TIP3    H2 7435   4.453   1.922   0.497
 2477TIP3   OH2 7436   6.267   0.763   2.376
 2477TIP3    H1 7437   6.354   0.748   2.414
 2477TIP3    H2 7438   6.281   0.830   2.310
 2478TIP3   OH2 7439   0.393   2.662   4.746
 2478TIP3    H1 7440   0.461   2.614   4.793
 2478TIP3    H2 7441   0.435   2.744   4.720
 2479TIP3   OH2 7442   4.555   2.843   4.319
 2479TIP3    H1 7443   4.512   2.927   4.333
 2479TIP3    H2 7444   4.610   2.857   4.242
 2480TIP3   OH2 7445   5.848   3.669   1.094
 2480TIP3    H1 7446   5.823   3.603   1.029
 2480TIP3    H2 7447   5.765   3.696   1.134
 2481TIP3   OH2 7448   4.037   3.007   1.801
 2481TIP3    H1 7449   4.123   2.994   1.842
 2481TIP3    H2 7450   3.976   2.962   1.859
 2482TIP3   OH2 7451   5.996   3.368   4.079
 2482TIP3    H1 7452   5.945   3.335   4.005
 2482TIP3    H2 7453   6.040   3.291   4.115
 2483TIP3   OH2 7454   6.105   3.272   3.257
 2483TIP3    H1 7455   6.025   3.231   3.290
 2483TIP3    H2 7456   6.145   3.312   3.334
 2484TIP3   OH2 7457   3.086   4.887   2.648
 2484TIP3    H1 7458   2.993   4.876   2.670
 2484TIP3    H2 7459   3.124   4.801   2.665
 2485TIP3   OH2 7460   1.009   3.027   0.448
 2485TIP3    H1 7461   1.016   2.961   0.517
 2485TIP3    H2 7462   0.938   2.997   0.392
 2486TIP3   OH2 7463   5.211   3.334   3.355
 2486TIP3    H1 7464   5.140   3.270   3.347
 2486TIP3    H2 7465   5.247   3.341   3.267
 2487TIP3   OH2 7466   0.453   2.962   4.138
 2487TIP3    H1 7467   0.414   2.957   4.051
 2487TIP3    H2 7468   0.495   3.048   4.141
 2488TIP3   OH2 7469   2.049   3.771   1.976
 2488TIP3    H1 7470   2.061   3.746   1.885
 2488TIP3    H2 7471   2.134   3.802   2.005
 2489TIP3   OH2 7472   2.088   0.740   2.709
 2489TIP3    H1 7473   1.994   0.732   2.695
 2489TIP3    H2 7474   2.127   0.677   2.649
 2490TIP3   OH2 7475   2.486   3.065   5.152
 2490TIP3    H1 7476   2.465   3.158   5.164
 2490TIP3    H2 7477   2.406   3.019   5.178
 2491TIP3   OH2 7478   3.347   2.979   4.527
 2491TIP3    H1 7479   3.349   3.075   4.536
 2491TIP3    H2 7480   3.410   2.948   4.592
 2492TIP3   OH2 7481   3.267   5.639   3.761
 2492TIP3    H1 7482   3.224   5.553   3.756
 2492TIP3    H2 7483   3.199   5.698   3.792
 2493TIP3   OH2 7484   4.040   3.777   5.133
 2493TIP3    H1 7485   4.026   3.686   5.158
 2493TIP3    H2 7486   4.030   3.826   5.215
 2494TIP3   OH2 7487   4.919   4.791   3.745
 2494TIP3    H1 7488   4.946   4.746   3.825
 2494TIP3    H2 7489   4.950   4.734   3.674
 2495TIP3   OH2 7490   0.609   3.222   1.875
 2495TIP3    H1 7491   0.544   3.290   1.892
 2495TIP3    H2 7492   0.588   3.190   1.787
 2496TIP3   OH2 7493   4.582   0.649   0.732
 2496TIP3    H1 7494   4.531   0.580   0.773
 2496TIP3    H2 7495   4.613   0.702   0.806
 2497TIP3   OH2 7496   2.014   4.931   4.225
 2497TIP3    H1 7497   2.080   4.863   4.212
 2497TIP3    H2 7498   1.940   4.904   4.170
 2498TIP3   OH2 7499   0.274   5.952   0.572
 2498TIP3    H1 7500   0.250   5.933   0.481
 2498TIP3    H2 7501   0.362   5.916   0.582
 2499TIP3   OH2 7502   4.229   3.833   1.726
 2499TIP3    H1 7503   4.169   3.760   1.713
 2499TIP3    H2 7504   4.292   3.824   1.654
 2500TIP3   OH2 7505   1.252   2.061   0.854
 2500TIP3    H1 7506   1.272   2.155   0.853
 2500TIP3    H2 7507   1.168   2.054   0.808
 2501TIP3   OH2 7508   1.865   2.357   3.413
 2501TIP3    H1 7509   1.947   2.344   3.459
 2501TIP3    H2 7510   1.873   2.305   3.332
 2502TIP3   OH2 7511   5.747   3.253   2.741
 2502TIP3    H1 7512   5.741   3.257   2.837
 2502TIP3    H2 7513   5.834   3.287   2.721
 2503TIP3   OH2 7514   3.967   3.932   1.047
 2503TIP3    H1 7515   3.984   4.003   0.986
 2503TIP3    H2 7516   3.975   3.853   0.994
 2504TIP3   OH2 7517   5.265   3.082   2.685
 2504TIP3    H1 7518   5.222   3.021   2.624
 2504TIP3    H2 7519   5.239   3.169   2.654
 2505TIP3   OH2 7520   2.185   4.960   3.290
 2505TIP3    H1 7521   2.274   4.986   3.264
 2505TIP3    H2 7522   2.144   5.042   3.318
 2506TIP3   OH2 7523   5.739   1.184   0.770
 2506TIP3    H1 7524   5.650   1.174   0.737
 2506TIP3    H2 7525   5.775   1.095   0.770
 2507TIP3   OH2 7526   0.702   3.933   2.202
 2507TIP3    H1 7527   0.758   3.885   2.264
 2507TIP3    H2 7528   0.718   3.889   2.118
 2508TIP3   OH2 7529   4.712   2.717   3.795
 2508TIP3    H1 7530   4.762   2.641   3.767
 2508TIP3    H2 7531   4.776   2.789   3.799
 2509TIP3   OH2 7532   5.430   4.995   0.352
 2509TIP3    H1 7533   5.387   4.914   0.324
 2509TIP3    H2 7534   5.358   5.057   0.364
 2510TIP3   OH2 7535   5.034   3.390   5.038
 2510TIP3    H1 7536   5.005   3.409   4.949
 2510TIP3    H2 7537   5.128   3.372   5.029
 2511TIP3   OH2 7538   1.299   3.476   0.598
 2511TIP3    H1 7539   1.269   3.560   0.634
 2511TIP3    H2 7540   1.218   3.433   0.568
 2512TIP3   OH2 7541   3.117   4.194   0.748
 2512TIP3    H1 7542   3.101   4.199   0.654
 2512TIP3    H2 7543   3.201   4.148   0.755
 2513TIP3   OH2 7544   2.188   5.255   0.937
 2513TIP3    H1 7545   2.184   5.193   0.865
 2513TIP3    H2 7546   2.097   5.263   0.968
 2514TIP3   OH2 7547   3.274   4.656   2.281
 2514TIP3    H1 7548   3.354   4.688   2.323
 2514TIP3    H2 7549   3.236   4.733   2.239
 2515TIP3   OH2 7550   5.447   1.346   1.762
 2515TIP3    H1 7551   5.396   1.343   1.843
 2515TIP3    H2 7552   5.535   1.372   1.790
 2516TIP3   OH2 7553   4.898   5.357   0.190
 2516TIP3    H1 7554   4.963   5.373   0.259
 2516TIP3    H2 7555   4.833   5.301   0.232
 2517TIP3   OH2 7556   4.585   2.879   0.667
 2517TIP3    H1 7557   4.664   2.929   0.684
 2517TIP3    H2 7558   4.579   2.818   0.741
 2518TIP3   OH2 7559   0.834   1.369   0.386
 2518TIP3    H1 7560   0.815   1.276   0.398
 2518TIP3    H2 7561   0.893   1.373   0.311
 2519TIP3   OH2 7562   3.172   0.454   1.766
 2519TIP3    H1 7563   3.153   0.437   1.674
 2519TIP3    H2 7564   3.102   0.513   1.795
 2520TIP3   OH2 7565   5.406   0.748   4.722
 2520TIP3    H1 7566   5.400   0.843   4.719
 2520TIP3    H2 7567   5.394   0.725   4.814
 2521TIP3   OH2 7568   2.741   5.327   4.890
 2521TIP3    H1 7569   2.805   5.337   4.960
 2521TIP3    H2 7570   2.727   5.417   4.858
 2522TIP3   OH2 7571   1.566   2.561   3.130
 2522TIP3    H1 7572   1.486   2.571   3.080
 2522TIP3    H2 7573   1.588   2.468   3.124
 2523TIP3   OH2 7574   2.874   5.242   2.435
 2523TIP3    H1 7575   2.913   5.309   2.380
 2523TIP3    H2 7576   2.779   5.259   2.430
 2524TIP3   OH2 7577   2.048   4.707   2.359
 2524TIP3    H1 7578   2.027   4.659   2.279
 2524TIP3    H2 7579   2.085   4.790   2.329
 2525TIP3   OH2 7580   6.033   4.655   3.257
 2525TIP3    H1 7581   6.031   4.608   3.341
 2525TIP3    H2 7582   6.016   4.747   3.281
 2526TIP3   OH2 7583   6.223   1.293   1.752
 2526TIP3    H1 7584   6.247   1.214   1.800
 2526TIP3    H2 7585   6.301   1.348   1.756
 2527TIP3   OH2 7586   6.187   4.597   2.220
 2527TIP3    H1 7587   6.113   4.612   2.278
 2527TIP3    H2 7588   6.262   4.632   2.267
 2528TIP3   OH2 7589   0.145   1.624   4.947
 2528TIP3    H1 7590   0.070   1.618   4.889
 2528TIP3    H2 7591   0.108   1.644   5.033
 2529TIP3   OH2 7592   5.334   4.505   4.954
 2529TIP3    H1 7593   5.378   4.420   4.955
 2529TIP3    H2 7594   5.348   4.538   4.865
 2530TIP3   OH2 7595   4.170   4.827   3.154
 2530TIP3    H1 7596   4.155   4.803   3.246
 2530TIP3    H2 7597   4.089   4.803   3.109
 2531TIP3   OH2 7598   3.835   0.137   3.836
 2531TIP3    H1 7599   3.757   0.084   3.848
 2531TIP3    H2 7600   3.814   0.222   3.875
 2532TIP3   OH2 7601   1.226   2.061   1.294
 2532TIP3    H1 7602   1.179   1.991   1.249
 2532TIP3    H2 7603   1.313   2.060   1.255
 2533TIP3   OH2 7604   5.287   5.884   2.137
 2533TIP3    H1 7605   5.349   5.883   2.065
 2533TIP3    H2 7606   5.232   5.960   2.121
 2534TIP3   OH2 7607   0.710   4.198   2.303
 2534TIP3    H1 7608   0.692   4.107   2.282
 2534TIP3    H2 7609   0.786   4.221   2.249
 2535TIP3   OH2 7610   0.985   3.277   0.801
 2535TIP3    H1 7611   0.961   3.297   0.710
 2535TIP3    H2 7612   1.053   3.211   0.794
 2536TIP3   OH2 7613   3.443   0.948   0.694
 2536TIP3    H1 7614   3.396   0.868   0.719
 2536TIP3    H2 7615   3.493   0.924   0.616
 2537TIP3   OH2 7616   5.603   4.607   3.532
 2537TIP3    H1 7617   5.662   4.680   3.513
 2537TIP3    H2 7618   5.624   4.583   3.622
 2538TIP3   OH2 7619   0.483   1.291   0.994
 2538TIP3    H1 7620   0.467   1.328   1.081
 2538TIP3    H2 7621   0.495   1.367   0.937
 2539TIP3   OH2 7622   3.103   2.260   3.430
 2539TIP3    H1 7623   3.031   2.295   3.482
 2539TIP3    H2 7624   3.106   2.167   3.452
 2540TIP3   OH2 7625   3.202   2.725   3.312
 2540TIP3    H1 7626   3.174   2.693   3.398
 2540TIP3    H2 7627   3.297   2.722   3.316
 2541TIP3   OH2 7628   4.559   5.541   0.681
 2541TIP3    H1 7629   4.499   5.515   0.750
 2541TIP3    H2 7630   4.575   5.461   0.631
 2542TIP3   OH2 7631   2.225   3.631   4.506
 2542TIP3    H1 7632   2.300   3.602   4.456
 2542TIP3    H2 7633   2.180   3.551   4.532
 2543TIP3   OH2 7634   1.179   0.501   4.385
 2543TIP3    H1 7635   1.146   0.413   4.405
 2543TIP3    H2 7636   1.216   0.532   4.468
 2544TIP3   OH2 7637   1.507   2.565   1.475
 2544TIP3    H1 7638   1.587   2.516   1.453
 2544TIP3    H2 7639   1.509   2.641   1.417
 2545TIP3   OH2 7640   4.646   0.803   2.500
 2545TIP3    H1 7641   4.689   0.747   2.435
 2545TIP3    H2 7642   4.620   0.881   2.450
 2546TIP3   OH2 7643   3.568   1.906   4.941
 2546TIP3    H1 7644   3.511   1.938   4.871
 2546TIP3    H2 7645   3.570   1.977   5.005
 2547TIP3   OH2 7646   4.358   2.989   0.291
 2547TIP3    H1 7647   4.305   2.942   0.227
 2547TIP3    H2 7648   4.361   2.932   0.367
 2548TIP3   OH2 7649   4.133   1.351   2.968
 2548TIP3    H1 7650   4.050   1.317   3.001
 2548TIP3    H2 7651   4.110   1.398   2.888
 2549TIP3   OH2 7652   3.447   3.545   4.652
 2549TIP3    H1 7653   3.517   3.520   4.593
 2549TIP3    H2 7654   3.373   3.565   4.595
 2550TIP3   OH2 7655   3.672   3.827   5.071
 2550TIP3    H1 7656   3.581   3.851   5.054
 2550TIP3    H2 7657   3.700   3.887   5.141
 2551TIP3   OH2 7658   0.866   5.551   3.097
 2551TIP3    H1 7659   0.903   5.475   3.143
 2551TIP3    H2 7660   0.810   5.594   3.161
 2552TIP3   OH2 7661   2.707   2.012   1.903
 2552TIP3    H1 7662   2.782   2.066   1.929
 2552TIP3    H2 7663   2.631   2.067   1.917
 2553TIP3   OH2 7664   2.276   1.225   0.068
 2553TIP3    H1 7665   2.306   1.175   0.144
 2553TIP3    H2 7666   2.340   1.295   0.058
 2554TIP3   OH2 7667   4.425   4.067   4.105
 2554TIP3    H1 7668   4.444   3.988   4.155
 2554TIP3    H2 7669   4.340   4.050   4.065
 2555TIP3   OH2 7670   3.450   1.269   0.156
 2555TIP3    H1 7671   3.426   1.281   0.064
 2555TIP3    H2 7672   3.536   1.226   0.153
 2556TIP3   OH2 7673   4.400   3.394   3.953
 2556TIP3    H1 7674   4.417   3.386   3.859
 2556TIP3    H2 7675   4.306   3.406   3.960
 2557TIP3   OH2 7676   3.146   3.592   1.362
 2557TIP3    H1 7677   3.212   3.617   1.297
 2557TIP3    H2 7678   3.063   3.613   1.321
 2558TIP3   OH2 7679   2.643   0.466   1.958
 2558TIP3    H1 7680   2.552   0.480   1.984
 2558TIP3    H2 7681   2.668   0.384   2.000
 2559TIP3   OH2 7682   6.019   1.686   4.892
 2559TIP3    H1 7683   6.043   1.595   4.875
 2559TIP3    H2 7684   5.998   1.722   4.806
 2560TIP3   OH2 7685   3.550   2.660   1.923
 2560TIP3    H1 7686   3.591   2.733   1.877
 2560TIP3    H2 7687   3.459   2.660   1.892
 2561TIP3   OH2 7688   0.427   3.323   3.898
 2561TIP3    H1 7689   0.373   3.275   3.960
 2561TIP3    H2 7690   0.486   3.375   3.953
 2562TIP3   OH2 7691   2.737   1.683   1.307
 2562TIP3    H1 7692   2.812   1.627   1.291
 2562TIP3    H2 7693   2.680   1.632   1.365
 2563TIP3   OH2 7694   2.114   5.951   2.134
 2563TIP3    H1 7695   2.156   5.901   2.064
 2563TIP3    H2 7696   2.040   5.994   2.092
 2564TIP3   OH2 7697   3.057   5.159   4.018
 2564TIP3    H1 7698   3.092   5.247   4.029
 2564TIP3    H2 7699   3.061   5.120   4.105
 2565TIP3   OH2 7700   1.447   2.526   2.242
 2565TIP3    H1 7701   1.372   2.488   2.287
 2565TIP3    H2 7702   1.520   2.467   2.262
 2566TIP3   OH2 7703   0.073   3.288   2.022
 2566TIP3    H1 7704   0.022   3.256   2.096
 2566TIP3    H2 7705   0.008   3.315   1.957
 2567TIP3   OH2 7706   3.846   3.558   4.301
 2567TIP3    H1 7707   3.916   3.494   4.287
 2567TIP3    H2 7708   3.856   3.586   4.392
 2568TIP3   OH2 7709   3.836   2.487   4.542
 2568TIP3    H1 7710   3.900   2.448   4.603
 2568TIP3    H2 7711   3.885   2.557   4.499
 2569TIP3   OH2 7712   4.890   4.259   0.987
 2569TIP3    H1 7713   4.929   4.324   0.929
 2569TIP3    H2 7714   4.806   4.297   1.013
 2570TIP3   OH2 7715   2.891   2.330   0.949
 2570TIP3    H1 7716   2.876   2.383   1.027
 2570TIP3    H2 7717   2.833   2.255   0.959
 2571TIP3   OH2 7718   0.685   2.053   1.377
 2571TIP3    H1 7719   0.736   1.972   1.383
 2571TIP3    H2 7720   0.629   2.051   1.455
 2572TIP3   OH2 7721   4.284   1.270   2.609
 2572TIP3    H1 7722   4.287   1.210   2.683
 2572TIP3    H2 7723   4.372   1.310   2.606
 2573TIP3   OH2 7724   0.728   4.370   4.018
 2573TIP3    H1 7725   0.764   4.387   3.931
 2573TIP3    H2 7726   0.641   4.332   4.001
 2574TIP3   OH2 7727   0.580   3.677   4.990
 2574TIP3    H1 7728   0.543   3.648   5.073
 2574TIP3    H2 7729   0.510   3.660   4.926
 2575TIP3   OH2 7730   3.942   4.890   1.358
 2575TIP3    H1 7731   3.965   4.983   1.361
 2575TIP3    H2 7732   4.016   4.848   1.313
 2576TIP3   OH2 7733   3.019   1.504   3.883
 2576TIP3    H1 7734   3.004   1.581   3.937
 2576TIP3    H2 7735   3.101   1.468   3.916
 2577TIP3   OH2 7736   0.614   3.104   4.481
 2577TIP3    H1 7737   0.580   3.108   4.391
 2577TIP3    H2 7738   0.703   3.072   4.472
 2578TIP3   OH2 7739   2.083   4.328   3.093
 2578TIP3    H1 7740   2.170   4.292   3.075
 2578TIP3    H2 7741   2.081   4.411   3.044
 2579TIP3   OH2 7742   4.488   3.097   3.261
 2579TIP3    H1 7743   4.393   3.090   3.271
 2579TIP3    H2 7744   4.505   3.063   3.173
 2580TIP3   OH2 7745   1.488   4.227   4.113
 2580TIP3    H1 7746   1.442   4.226   4.197
 2580TIP3    H2 7747   1.421   4.247   4.048
 2581TIP3   OH2 7748   3.010   2.168   0.745
 2581TIP3    H1 7749   2.953   2.242   0.762
 2581TIP3    H2 7750   3.093   2.207   0.718
 2582TIP3   OH2 7751   0.168   5.353   0.154
 2582TIP3    H1 7752   0.235   5.341   0.221
 2582TIP3    H2 7753   0.188   5.438   0.115
 2583TIP3   OH2 7754   5.756   5.057   0.806
 2583TIP3    H1 7755   5.790   4.997   0.873
 2583TIP3    H2 7756   5.828   5.070   0.745
 2584TIP3   OH2 7757   6.271   4.210   5.133
 2584TIP3    H1 7758   6.351   4.199   5.083
 2584TIP3    H2 7759   6.251   4.122   5.167
 2585TIP3   OH2 7760   6.095   0.871   2.086
 2585TIP3    H1 7761   6.065   0.795   2.036
 2585TIP3    H2 7762   6.036   0.941   2.059
 2586TIP3   OH2 7763   5.553   0.058   4.711
 2586TIP3    H1 7764   5.517   0.074   4.799
 2586TIP3    H2 7765   5.601   0.138   4.690
 2587TIP3   OH2 7766   2.669   3.654   3.682
 2587TIP3    H1 7767   2.739   3.718   3.692
 2587TIP3    H2 7768   2.590   3.706   3.668
 2588TIP3   OH2 7769   4.027   5.617   5.133
 2588TIP3    H1 7770   4.077   5.675   5.190
 2588TIP3    H2 7771   3.937   5.650   5.138
 2589TIP3   OH2 7772   4.691   3.819   2.862
 2589TIP3    H1 7773   4.700   3.894   2.803
 2589TIP3    H2 7774   4.758   3.834   2.929
 2590TIP3   OH2 7775   1.991   1.109   1.481
 2590TIP3    H1 7776   2.011   1.021   1.512
 2590TIP3    H2 7777   2.045   1.166   1.536
 2591TIP3   OH2 7778   3.270   3.217   3.264
 2591TIP3    H1 7779   3.281   3.158   3.189
 2591TIP3    H2 7780   3.257   3.158   3.339
 2592TIP3   OH2 7781   2.229   0.585   4.606
 2592TIP3    H1 7782   2.282   0.656   4.642
 2592TIP3    H2 7783   2.262   0.506   4.648
 2593TIP3   OH2 7784   5.539   2.833   2.504
 2593TIP3    H1 7785   5.524   2.806   2.594
 2593TIP3    H2 7786   5.594   2.911   2.511
 2594TIP3   OH2 7787   0.168   0.715   0.803
 2594TIP3    H1 7788   0.217   0.647   0.849
 2594TIP3    H2 7789   0.077   0.702   0.832
 2595TIP3   OH2 7790   5.160   5.990   3.215
 2595TIP3    H1 7791   5.118   5.905   3.225
 2595TIP3    H2 7792   5.108   6.049   3.270
 2596TIP3   OH2 7793   0.641   5.240   2.125
 2596TIP3    H1 7794   0.607   5.150   2.124
 2596TIP3    H2 7795   0.651   5.260   2.218
 2597TIP3   OH2 7796   4.261   4.945   1.349
 2597TIP3    H1 7797   4.345   4.971   1.385
 2597TIP3    H2 7798   4.253   4.995   1.268
 2598TIP3   OH2 7799   3.662   1.243   1.023
 2598TIP3    H1 7800   3.670   1.313   0.958
 2598TIP3    H2 7801   3.575   1.257   1.062
 2599TIP3   OH2 7802   4.308   3.594   3.459
 2599TIP3    H1 7803   4.225   3.642   3.457
 2599TIP3    H2 7804   4.374   3.657   3.432
 2600TIP3   OH2 7805   3.823   5.297   3.975
 2600TIP3    H1 7806   3.866   5.375   3.941
 2600TIP3    H2 7807   3.787   5.253   3.898
 2601TIP3   OH2 7808   4.959   2.315   0.497
 2601TIP3    H1 7809   5.019   2.385   0.520
 2601TIP3    H2 7810   5.015   2.242   0.472
 2602TIP3   OH2 7811   4.624   3.811  -0.028
 2602TIP3    H1 7812   4.646   3.765   0.053
 2602TIP3    H2 7813   4.551   3.868  -0.004
 2603TIP3   OH2 7814   3.420   4.588   5.010
 2603TIP3    H1 7815   3.450   4.677   5.032
 2603TIP3    H2 7816   3.484   4.556   4.947
 2604TIP3   OH2 7817   1.066   3.149   3.283
 2604TIP3    H1 7818   1.013   3.135   3.205
 2604TIP3    H2 7819   1.136   3.084   3.277
 2605TIP3   OH2 7820   0.777   3.976   2.762
 2605TIP3    H1 7821   0.720   4.034   2.711
 2605TIP3    H2 7822   0.718   3.909   2.797
 2606TIP3   OH2 7823   3.001   4.129   1.603
 2606TIP3    H1 7824   2.983   4.078   1.682
 2606TIP3    H2 7825   2.927   4.111   1.546
 2607TIP3   OH2 7826   3.545   2.731   4.222
 2607TIP3    H1 7827   3.635   2.706   4.204
 2607TIP3    H2 7828   3.492   2.670   4.170
 2608TIP3   OH2 7829   3.725   4.167   1.691
 2608TIP3    H1 7830   3.643   4.120   1.677
 2608TIP3    H2 7831   3.739   4.215   1.609
 2609TIP3   OH2 7832   0.466   1.997   3.355
 2609TIP3    H1 7833   0.384   2.035   3.388
 2609TIP3    H2 7834   0.535   2.053   3.392
 2610TIP3   OH2 7835   5.489   5.595   2.441
 2610TIP3    H1 7836   5.437   5.521   2.472
 2610TIP3    H2 7837   5.424   5.653   2.401
 2611TIP3   OH2 7838   5.056   4.625   3.943
 2611TIP3    H1 7839   5.122   4.691   3.924
 2611TIP3    H2 7840   5.077   4.596   4.032
 2612TIP3   OH2 7841   3.051   1.971   2.470
 2612TIP3    H1 7842   3.028   2.035   2.403
 2612TIP3    H2 7843   2.967   1.930   2.494
 2613TIP3   OH2 7844   6.031   3.693   3.379
 2613TIP3    H1 7845   6.102   3.756   3.376
 2613TIP3    H2 7846   6.056   3.625   3.316
 2614TIP3   OH2 7847   5.487   5.327   0.273
 2614TIP3    H1 7848   5.530   5.257   0.322
 2614TIP3    H2 7849   5.424   5.283   0.217
 2615TIP3   OH2 7850   3.716   2.557   3.013
 2615TIP3    H1 7851   3.776   2.487   3.039
 2615TIP3    H2 7852   3.654   2.563   3.086
 2616TIP3   OH2 7853   0.334   4.919   4.798
 2616TIP3    H1 7854   0.280   4.958   4.730
 2616TIP3    H2 7855   0.273   4.869   4.852
 2617TIP3   OH2 7856   2.748   4.351   3.831
 2617TIP3    H1 7857   2.790   4.368   3.747
 2617TIP3    H2 7858   2.703   4.433   3.853
 2618TIP3   OH2 7859   5.853   2.473   3.378
 2618TIP3    H1 7860   5.829   2.557   3.418
 2618TIP3    H2 7861   5.770   2.427   3.369
 2619TIP3   OH2 7862   4.473   1.379   2.394
 2619TIP3    H1 7863   4.424   1.308   2.354
 2619TIP3    H2 7864   4.444   1.458   2.349
 2620TIP3   OH2 7865   4.420   0.166   2.740
 2620TIP3    H1 7866   4.464   0.174   2.655
 2620TIP3    H2 7867   4.363   0.089   2.729
 2621TIP3   OH2 7868   4.686   0.807   3.283
 2621TIP3    H1 7869   4.597   0.771   3.281
 2621TIP3    H2 7870   4.684   0.879   3.220
 2622TIP3   OH2 7871   0.085   0.735   4.629
 2622TIP3    H1 7872   0.137   0.785   4.692
 2622TIP3    H2 7873  -0.005   0.744   4.659
 2623TIP3   OH2 7874   1.073   2.798   3.386
 2623TIP3    H1 7875   1.114   2.850   3.455
 2623TIP3    H2 7876   1.123   2.818   3.307
 2624TIP3   OH2 7877   0.383   2.940   0.932
 2624TIP3    H1 7878   0.333   3.016   0.961
 2624TIP3    H2 7879   0.449   2.976   0.872
 2625TIP3   OH2 7880   3.944   4.562   2.754
 2625TIP3    H1 7881   3.898   4.534   2.834
 2625TIP3    H2 7882   3.938   4.487   2.695
 2626TIP3   OH2 7883   2.667   5.943   2.708
 2626TIP3    H1 7884   2.647   5.932   2.615
 2626TIP3    H2 7885   2.643   6.034   2.727
 2627TIP3   OH2 7886   5.946   4.208   4.417
 2627TIP3    H1 7887   5.985   4.191   4.332
 2627TIP3    H2 7888   5.986   4.290   4.446
 2628TIP3   OH2 7889   1.324   0.448   2.939
 2628TIP3    H1 7890   1.346   0.431   2.847
 2628TIP3    H2 7891   1.391   0.401   2.989
 2629TIP3   OH2 7892   3.797   1.082   1.694
 2629TIP3    H1 7893   3.824   1.162   1.650
 2629TIP3    H2 7894   3.880   1.037   1.714
 2630TIP3   OH2 7895   4.164   0.681   3.352
 2630TIP3    H1 7896   4.227   0.650   3.287
 2630TIP3    H2 7897   4.206   0.662   3.436
 2631TIP3   OH2 7898   1.535   2.120   0.084
 2631TIP3    H1 7899   1.618   2.136   0.130
 2631TIP3    H2 7900   1.474   2.096   0.153
 2632TIP3   OH2 7901   3.608   0.901   1.597
 2632TIP3    H1 7902   3.685   0.845   1.590
 2632TIP3    H2 7903   3.593   0.908   1.692
 2633TIP3   OH2 7904   3.799   4.546   3.674
 2633TIP3    H1 7905   3.838   4.582   3.754
 2633TIP3    H2 7906   3.858   4.475   3.649
 2634TIP3   OH2 7907   2.662   0.222   4.803
 2634TIP3    H1 7908   2.719   0.188   4.734
 2634TIP3    H2 7909   2.577   0.183   4.785
 2635TIP3   OH2 7910   1.543   3.934   2.132
 2635TIP3    H1 7911   1.583   3.850   2.153
 2635TIP3    H2 7912   1.606   3.999   2.165
 2636TIP3   OH2 7913   4.945   3.818   1.581
 2636TIP3    H1 7914   4.873   3.782   1.528
 2636TIP3    H2 7915   5.008   3.746   1.588
 2637TIP3   OH2 7916   3.320   2.759   4.823
 2637TIP3    H1 7917   3.226   2.774   4.831
 2637TIP3    H2 7918   3.328   2.671   4.788
 2638TIP3   OH2 7919   1.391   1.021   3.877
 2638TIP3    H1 7920   1.335   1.094   3.849
 2638TIP3    H2 7921   1.379   1.016   3.972
 2639TIP3   OH2 7922   2.816   3.747   0.956
 2639TIP3    H1 7923   2.910   3.761   0.964
 2639TIP3    H2 7924   2.786   3.816   0.897
 2640TIP3   OH2 7925   4.078   2.923   1.530
 2640TIP3    H1 7926   4.172   2.940   1.522
 2640TIP3    H2 7927   4.061   2.932   1.624
 2641TIP3   OH2 7928   5.176   5.911   1.618
 2641TIP3    H1 7929   5.096   5.868   1.587
 2641TIP3    H2 7930   5.219   5.844   1.672
 2642TIP3   OH2 7931   6.220   3.604   1.947
 2642TIP3    H1 7932   6.260   3.638   1.867
 2642TIP3    H2 7933   6.287   3.614   2.014
 2643TIP3   OH2 7934   5.764   0.964   2.289
 2643TIP3    H1 7935   5.732   0.954   2.200
 2643TIP3    H2 7936   5.685   0.973   2.342
 2644TIP3   OH2 7937   1.365   3.208   4.744
 2644TIP3    H1 7938   1.280   3.184   4.708
 2644TIP3    H2 7939   1.424   3.137   4.718
 2645TIP3   OH2 7940   5.124   3.087   4.826
 2645TIP3    H1 7941   5.185   3.014   4.828
 2645TIP3    H2 7942   5.040   3.048   4.804
 2646TIP3   OH2 7943   1.799   0.179   5.219
 2646TIP3    H1 7944   1.820   0.208   5.131
 2646TIP3    H2 7945   1.703   0.179   5.223
 2647TIP3   OH2 7946   2.985   4.392   1.935
 2647TIP3    H1 7947   3.031   4.316   1.899
 2647TIP3    H2 7948   3.054   4.456   1.953
 2648TIP3   OH2 7949   4.174   0.336   2.055
 2648TIP3    H1 7950   4.101   0.309   1.999
 2648TIP3    H2 7951   4.249   0.340   1.996
 2649TIP3   OH2 7952   2.231   3.096   2.605
 2649TIP3    H1 7953   2.325   3.089   2.626
 2649TIP3    H2 7954   2.222   3.048   2.522
 2650TIP3   OH2 7955   5.926   5.496   0.741
 2650TIP3    H1 7956   5.886   5.419   0.781
 2650TIP3    H2 7957   5.954   5.467   0.654
 2651TIP3   OH2 7958   1.709   5.721   3.424
 2651TIP3    H1 7959   1.774   5.653   3.411
 2651TIP3    H2 7960   1.674   5.738   3.336
 2652TIP3   OH2 7961   4.478   2.051   1.754
 2652TIP3    H1 7962   4.550   2.106   1.724
 2652TIP3    H2 7963   4.455   1.997   1.678
 2653TIP3   OH2 7964   4.331   5.061   4.537
 2653TIP3    H1 7965   4.241   5.090   4.526
 2653TIP3    H2 7966   4.348   5.069   4.631
 2654TIP3   OH2 7967   5.755   5.667   2.346
 2654TIP3    H1 7968   5.817   5.631   2.410
 2654TIP3    H2 7969   5.669   5.639   2.377
 2655TIP3   OH2 7970   3.797   0.050   0.065
 2655TIP3    H1 7971   3.887   0.034   0.095
 2655TIP3    H2 7972   3.807   0.102  -0.015
 2656TIP3   OH2 7973   4.484   4.583   4.599
 2656TIP3    H1 7974   4.471   4.673   4.629
 2656TIP3    H2 7975   4.420   4.572   4.528
 2657TIP3   OH2 7976   0.413   5.295   1.746
 2657TIP3    H1 7977   0.347   5.230   1.722
 2657TIP3    H2 7978   0.496   5.257   1.716
 2658TIP3   OH2 7979   1.943   3.681   0.361
 2658TIP3    H1 7980   1.853   3.708   0.382
 2658TIP3    H2 7981   1.969   3.627   0.436
 2659TIP3   OH2 7982   6.245   0.364   3.982
 2659TIP3    H1 7983   6.225   0.368   3.888
 2659TIP3    H2 7984   6.159   0.362   4.024
 2660TIP3   OH2 7985   3.758   4.414   2.039
 2660TIP3    H1 7986   3.706   4.491   2.020
 2660TIP3    H2 7987   3.825   4.412   1.970
 2661TIP3   OH2 7988   6.154   0.444   4.865
 2661TIP3    H1 7989   6.112   0.470   4.783
 2661TIP3    H2 7990   6.245   0.474   4.856
 2662TIP3   OH2 7991   4.774   3.672   0.559
 2662TIP3    H1 7992   4.714   3.627   0.618
 2662TIP3    H2 7993   4.783   3.759   0.596
 2663TIP3   OH2 7994   6.092   5.542   1.613
 2663TIP3    H1 7995   6.176   5.587   1.606
 2663TIP3    H2 7996   6.029   5.602   1.573
 2664TIP3   OH2 7997   1.270   5.564   1.818
 2664TIP3    H1 7998   1.187   5.548   1.773
 2664TIP3    H2 7999   1.314   5.630   1.765
 2665TIP3   OH2 8000   1.763   1.282   1.079
 2665TIP3    H1 8001   1.839   1.225   1.073
 2665TIP3    H2 8002   1.799   1.370   1.083
 2666TIP3   OH2 8003   4.211   4.274   0.186
 2666TIP3    H1 8004   4.135   4.272   0.129
 2666TIP3    H2 8005   4.285   4.259   0.127
 2667TIP3   OH2 8006   3.751   2.677   1.620
 2667TIP3    H1 8007   3.707   2.740   1.677
 2667TIP3    H2 8008   3.844   2.690   1.638
 2668TIP3   OH2 8009   0.731   1.094   0.690
 2668TIP3    H1 8010   0.767   1.117   0.775
 2668TIP3    H2 8011   0.801   1.117   0.628
 2669TIP3   OH2 8012   2.632   1.319   1.797
 2669TIP3    H1 8013   2.582   1.387   1.842
 2669TIP3    H2 8014   2.718   1.321   1.838
 2670TIP3   OH2 8015   3.362   1.354   2.392
 2670TIP3    H1 8016   3.433   1.295   2.416
 2670TIP3    H2 8017   3.390   1.393   2.309
 2671TIP3   OH2 8018   5.646   4.763   1.271
 2671TIP3    H1 8019   5.722   4.819   1.284
 2671TIP3    H2 8020   5.675   4.696   1.209
 2672TIP3   OH2 8021   0.429   3.738   3.393
 2672TIP3    H1 8022   0.423   3.645   3.415
 2672TIP3    H2 8023   0.428   3.740   3.297
 2673TIP3   OH2 8024   3.828   3.404   1.465
 2673TIP3    H1 8025   3.822   3.498   1.449
 2673TIP3    H2 8026   3.846   3.397   1.558
 2674TIP3   OH2 8027   2.915   3.110   3.417
 2674TIP3    H1 8028   2.908   3.072   3.329
 2674TIP3    H2 8029   2.982   3.056   3.461
 2675TIP3   OH2 8030   3.757   5.623   1.321
 2675TIP3    H1 8031   3.667   5.623   1.289
 2675TIP3    H2 8032   3.748   5.641   1.415
 2676TIP3   OH2 8033   3.916   4.311   4.731
 2676TIP3    H1 8034   3.926   4.329   4.637
 2676TIP3    H2 8035   3.858   4.235   4.735
 2677TIP3   OH2 8036   2.699   0.116   4.561
 2677TIP3    H1 8037   2.754   0.141   4.487
 2677TIP3    H2 8038   2.625   0.070   4.522
 2678TIP3   OH2 8039   2.413   2.224   4.281
 2678TIP3    H1 8040   2.457   2.307   4.296
 2678TIP3    H2 8041   2.483   2.159   4.284
 2679TIP3   OH2 8042   3.914   3.878   0.309
 2679TIP3    H1 8043   3.847   3.937   0.343
 2679TIP3    H2 8044   3.869   3.824   0.245
 2680TIP3   OH2 8045   4.549   3.013   1.843
 2680TIP3    H1 8046   4.555   2.933   1.791
 2680TIP3    H2 8047   4.638   3.031   1.871
 2681TIP3   OH2 8048   1.932   5.129   1.092
 2681TIP3    H1 8049   1.857   5.101   1.144
 2681TIP3    H2 8050   2.008   5.089   1.134
 2682TIP3   OH2 8051   6.266   0.829   1.601
 2682TIP3    H1 8052   6.189   0.844   1.656
 2682TIP3    H2 8053   6.335   0.804   1.663
 2683TIP3   OH2 8054   2.449   2.767   0.066
 2683TIP3    H1 8055   2.491   2.746  -0.017
 2683TIP3    H2 8056   2.479   2.699   0.127
 2684TIP3   OH2 8057   3.110   1.503   4.251
 2684TIP3    H1 8058   3.079   1.593   4.258
 2684TIP3    H2 8059   3.037   1.450   4.282
 2685TIP3   OH2 8060   0.557   3.646   1.209
 2685TIP3    H1 8061   0.638   3.609   1.173
 2685TIP3    H2 8062   0.488   3.613   1.150
 2686TIP3   OH2 8063   1.330   5.020   5.011
 2686TIP3    H1 8064   1.328   4.941   4.957
 2686TIP3    H2 8065   1.332   4.987   5.101
 2687TIP3   OH2 8066   4.432   0.418   2.848
 2687TIP3    H1 8067   4.431   0.335   2.802
 2687TIP3    H2 8068   4.411   0.483   2.782
 2688TIP3   OH2 8069   3.122   5.425   4.097
 2688TIP3    H1 8070   3.037   5.411   4.138
 2688TIP3    H2 8071   3.123   5.518   4.075
 2689TIP3   OH2 8072   2.357   1.222   4.910
 2689TIP3    H1 8073   2.338   1.304   4.865
 2689TIP3    H2 8074   2.289   1.162   4.880
 2690TIP3   OH2 8075   5.066   2.756   0.350
 2690TIP3    H1 8076   5.106   2.736   0.434
 2690TIP3    H2 8077   5.121   2.711   0.286
 2691TIP3   OH2 8078   5.566   3.311   2.539
 2691TIP3    H1 8079   5.626   3.283   2.608
 2691TIP3    H2 8080   5.500   3.363   2.583
 2692TIP3   OH2 8081   0.922   0.246   5.052
 2692TIP3    H1 8082   0.907   0.224   4.960
 2692TIP3    H2 8083   0.835   0.265   5.086
 2693TIP3   OH2 8084   4.628   3.450   2.134
 2693TIP3    H1 8085   4.665   3.471   2.220
 2693TIP3    H2 8086   4.679   3.376   2.103
 2694TIP3   OH2 8087   2.911   4.316   0.914
 2694TIP3    H1 8088   2.937   4.265   0.991
 2694TIP3    H2 8089   2.954   4.273   0.841
 2695TIP3   OH2 8090   1.660   4.909   5.118
 2695TIP3    H1 8091   1.720   4.863   5.175
 2695TIP3    H2 8092   1.702   4.909   5.032
 2696TIP3   OH2 8093   6.242   1.039   1.397
 2696TIP3    H1 8094   6.267   0.975   1.463
 2696TIP3    H2 8095   6.320   1.092   1.383
 2697TIP3   OH2 8096   1.014   1.138   2.830
 2697TIP3    H1 8097   0.953   1.080   2.876
 2697TIP3    H2 8098   1.015   1.104   2.740
 2698TIP3   OH2 8099   1.339   1.805   2.070
 2698TIP3    H1 8100   1.423   1.771   2.101
 2698TIP3    H2 8101   1.280   1.795   2.144
 2699TIP3   OH2 8102   3.702   3.951   2.888
 2699TIP3    H1 8103   3.772   3.910   2.938
 2699TIP3    H2 8104   3.745   3.985   2.809
 2700TIP3   OH2 8105   4.839   5.435   1.672
 2700TIP3    H1 8106   4.796   5.478   1.598
 2700TIP3    H2 8107   4.826   5.342   1.656
 2701TIP3   OH2 8108   4.439   1.065   2.732
 2701TIP3    H1 8109   4.425   1.098   2.820
 2701TIP3    H2 8110   4.533   1.047   2.727
 2702TIP3   OH2 8111   5.401   3.229   2.890
 2702TIP3    H1 8112   5.493   3.203   2.891
 2702TIP3    H2 8113   5.364   3.186   2.812
 2703TIP3   OH2 8114   2.201   4.158   4.653
 2703TIP3    H1 8115   2.257   4.163   4.575
 2703TIP3    H2 8116   2.173   4.067   4.657
 2704TIP3   OH2 8117   2.892   4.843   0.603
 2704TIP3    H1 8118   2.863   4.925   0.641
 2704TIP3    H2 8119   2.819   4.814   0.547
 2705TIP3   OH2 8120   2.574   3.001   1.998
 2705TIP3    H1 8121   2.644   3.007   1.933
 2705TIP3    H2 8122   2.519   2.929   1.967
 2706TIP3   OH2 8123   5.550   5.269   3.331
 2706TIP3    H1 8124   5.582   5.343   3.278
 2706TIP3    H2 8125   5.461   5.293   3.354
 2707TIP3   OH2 8126   0.740   3.611   4.607
 2707TIP3    H1 8127   0.757   3.664   4.685
 2707TIP3    H2 8128   0.778   3.661   4.535
 2708TIP3   OH2 8129   0.963   3.508   0.938
 2708TIP3    H1 8130   0.912   3.574   0.889
 2708TIP3    H2 8131   0.959   3.430   0.883
 2709TIP3   OH2 8132   5.019   0.664   1.230
 2709TIP3    H1 8133   5.037   0.746   1.275
 2709TIP3    H2 8134   4.983   0.606   1.297
 2710TIP3   OH2 8135   2.278   3.943   3.806
 2710TIP3    H1 8136   2.293   3.888   3.729
 2710TIP3    H2 8137   2.300   4.032   3.776
 2711TIP3   OH2 8138   0.446   4.833   2.399
 2711TIP3    H1 8139   0.478   4.860   2.484
 2711TIP3    H2 8140   0.371   4.890   2.382
 2712TIP3   OH2 8141   0.646   4.346   1.113
 2712TIP3    H1 8142   0.657   4.415   1.179
 2712TIP3    H2 8143   0.678   4.386   1.032
 2713TIP3   OH2 8144   5.656   5.932   2.544
 2713TIP3    H1 8145   5.668   5.838   2.560
 2713TIP3    H2 8146   5.646   5.939   2.449
 2714TIP3   OH2 8147   2.277   4.979   4.899
 2714TIP3    H1 8148   2.291   4.971   4.805
 2714TIP3    H2 8149   2.364   4.998   4.934
 2715TIP3   OH2 8150   2.278   5.807   3.041
 2715TIP3    H1 8151   2.312   5.889   3.007
 2715TIP3    H2 8152   2.182   5.818   3.038
 2716TIP3   OH2 8153   0.817   0.985   2.977
 2716TIP3    H1 8154   0.760   0.992   2.901
 2716TIP3    H2 8155   0.845   0.894   2.978
 2717TIP3   OH2 8156   0.807   5.506   1.287
 2717TIP3    H1 8157   0.810   5.597   1.315
 2717TIP3    H2 8158   0.884   5.465   1.327
 2718TIP3   OH2 8159   2.105   1.758   1.081
 2718TIP3    H1 8160   2.166   1.790   1.015
 2718TIP3    H2 8161   2.051   1.835   1.102
 2719TIP3   OH2 8162   1.674   5.531   1.952
 2719TIP3    H1 8163   1.701   5.609   1.904
 2719TIP3    H2 8164   1.661   5.464   1.885
 2720TIP3   OH2 8165   5.996   3.607   1.804
 2720TIP3    H1 8166   6.000   3.526   1.754
 2720TIP3    H2 8167   6.075   3.606   1.858
 2721TIP3   OH2 8168   1.334   1.222   0.216
 2721TIP3    H1 8169   1.413   1.238   0.165
 2721TIP3    H2 8170   1.331   1.293   0.280
 2722TIP3   OH2 8171   2.118   3.676   2.599
 2722TIP3    H1 8172   2.090   3.612   2.534
 2722TIP3    H2 8173   2.037   3.704   2.642
 2723TIP3   OH2 8174   3.658   0.493   2.094
 2723TIP3    H1 8175   3.691   0.475   2.006
 2723TIP3    H2 8176   3.720   0.449   2.152
 2724TIP3   OH2 8177   0.458   2.678   3.161
 2724TIP3    H1 8178   0.526   2.611   3.150
 2724TIP3    H2 8179   0.391   2.635   3.215
 2725TIP3   OH2 8180   3.871   2.632   2.146
 2725TIP3    H1 8181   3.865   2.591   2.232
 2725TIP3    H2 8182   3.783   2.625   2.110
 2726TIP3   OH2 8183   1.869   5.588   0.241
 2726TIP3    H1 8184   1.886   5.636   0.322
 2726TIP3    H2 8185   1.951   5.596   0.191
 2727TIP3   OH2 8186   0.802   2.749   0.139
 2727TIP3    H1 8187   0.768   2.677   0.192
 2727TIP3    H2 8188   0.788   2.721   0.048
 2728TIP3   OH2 8189   2.056   2.797   1.993
 2728TIP3    H1 8190   2.128   2.849   1.957
 2728TIP3    H2 8191   1.992   2.862   2.022
 2729TIP3   OH2 8192   2.302   1.870   3.603
 2729TIP3    H1 8193   2.365   1.911   3.662
 2729TIP3    H2 8194   2.299   1.927   3.526
 2730TIP3   OH2 8195   1.931   0.522   1.749
 2730TIP3    H1 8196   1.855   0.564   1.708
 2730TIP3    H2 8197   1.894   0.467   1.818
 2731TIP3   OH2 8198   5.498   5.529   2.860
 2731TIP3    H1 8199   5.439   5.460   2.828
 2731TIP3    H2 8200   5.578   5.517   2.810
 2732TIP3   OH2 8201   2.448   1.593   2.619
 2732TIP3    H1 8202   2.425   1.543   2.698
 2732TIP3    H2 8203   2.410   1.679   2.633
 2733TIP3   OH2 8204   3.737   1.050   4.485
 2733TIP3    H1 8205   3.701   1.123   4.536
 2733TIP3    H2 8206   3.795   1.092   4.421
 2734TIP3   OH2 8207   2.344   5.553   4.342
 2734TIP3    H1 8208   2.387   5.525   4.424
 2734TIP3    H2 8209   2.399   5.517   4.273
 2735TIP3   OH2 8210   4.542   2.060   4.208
 2735TIP3    H1 8211   4.474   2.046   4.141
 2735TIP3    H2 8212   4.545   1.978   4.257
 2736TIP3   OH2 8213   2.923   0.061   4.090
 2736TIP3    H1 8214   2.866   0.004   4.039
 2736TIP3    H2 8215   2.996   0.081   4.030
 2737TIP3   OH2 8216   6.351   1.385   3.973
 2737TIP3    H1 8217   6.290   1.459   3.979
 2737TIP3    H2 8218   6.302   1.318   3.926
 2738TIP3   OH2 8219   5.418   5.040   3.505
 2738TIP3    H1 8220   5.365   5.095   3.563
 2738TIP3    H2 8221   5.507   5.048   3.539
 2739TIP3   OH2 8222   0.959   5.356   4.690
 2739TIP3    H1 8223   0.937   5.275   4.734
 2739TIP3    H2 8224   0.926   5.425   4.747
 2740TIP3   OH2 8225   5.909   5.263   1.290
 2740TIP3    H1 8226   5.924   5.244   1.198
 2740TIP3    H2 8227   5.874   5.181   1.326
 2741TIP3   OH2 8228   5.951   5.891   1.286
 2741TIP3    H1 8229   5.957   5.858   1.376
 2741TIP3    H2 8230   6.027   5.949   1.277
 2742TIP3   OH2 8231   2.619   1.565   4.556
 2742TIP3    H1 8232   2.579   1.651   4.561
 2742TIP3    H2 8233   2.681   1.572   4.483
 2743TIP3   OH2 8234   2.103   4.067   4.332
 2743TIP3    H1 8235   2.105   4.050   4.426
 2743TIP3    H2 8236   2.078   3.983   4.293
 2744TIP3   OH2 8237   2.635   2.231   4.053
 2744TIP3    H1 8238   2.696   2.274   3.993
 2744TIP3    H2 8239   2.612   2.300   4.116
 2745TIP3   OH2 8240   6.247   1.067   1.937
 2745TIP3    H1 8241   6.192   0.996   1.971
 2745TIP3    H2 8242   6.261   1.125   2.012
 2746TIP3   OH2 8243   2.854   3.573   4.840
 2746TIP3    H1 8244   2.878   3.592   4.749
 2746TIP3    H2 8245   2.830   3.658   4.876
 2747TIP3   OH2 8246   3.304   3.237   2.293
 2747TIP3    H1 8247   3.378   3.185   2.325
 2747TIP3    H2 8248   3.308   3.318   2.345
 2748TIP3   OH2 8249   6.309   2.388   4.626
 2748TIP3    H1 8250   6.386   2.341   4.593
 2748TIP3    H2 8251   6.321   2.478   4.595
 2749TIP3   OH2 8252   1.264   5.621   4.231
 2749TIP3    H1 8253   1.349   5.579   4.219
 2749TIP3    H2 8254   1.266   5.656   4.320
 2750TIP3   OH2 8255   1.681   3.161   1.158
 2750TIP3    H1 8256   1.756   3.175   1.216
 2750TIP3    H2 8257   1.704   3.081   1.109
 2751TIP3   OH2 8258   5.105   2.724   2.789
 2751TIP3    H1 8259   5.149   2.773   2.720
 2751TIP3    H2 8260   5.020   2.768   2.798
 2752TIP3   OH2 8261   5.077   3.292   4.147
 2752TIP3    H1 8262   5.171   3.280   4.163
 2752TIP3    H2 8263   5.035   3.266   4.229
 2753TIP3   OH2 8264   2.043   3.574   3.549
 2753TIP3    H1 8265   2.088   3.530   3.477
 2753TIP3    H2 8266   2.055   3.667   3.531
 2754TIP3   OH2 8267   3.849   3.135   3.526
 2754TIP3    H1 8268   3.889   3.221   3.516
 2754TIP3    H2 8269   3.921   3.077   3.549
 2755TIP3   OH2 8270   6.307   4.242   4.570
 2755TIP3    H1 8271   6.347   4.301   4.633
 2755TIP3    H2 8272   6.342   4.270   4.485
 2756TIP3   OH2 8273   2.062   4.016   0.440
 2756TIP3    H1 8274   1.982   4.024   0.491
 2756TIP3    H2 8275   2.035   3.974   0.358
 2757TIP3   OH2 8276   6.111   0.716   4.105
 2757TIP3    H1 8277   6.063   0.692   4.025
 2757TIP3    H2 8278   6.197   0.675   4.094
 2758TIP3   OH2 8279   2.800   0.531   0.176
 2758TIP3    H1 8280   2.853   0.598   0.133
 2758TIP3    H2 8281   2.842   0.448   0.151
 2759TIP3   OH2 8282   2.852   5.529   3.606
 2759TIP3    H1 8283   2.827   5.621   3.606
 2759TIP3    H2 8284   2.908   5.519   3.683
 2760TIP3   OH2 8285   0.088   3.287   2.620
 2760TIP3    H1 8286   0.001   3.247   2.610
 2760TIP3    H2 8287   0.078   3.346   2.695
 2761TIP3   OH2 8288   1.039   5.833   4.166
 2761TIP3    H1 8289   1.101   5.761   4.149
 2761TIP3    H2 8290   0.969   5.792   4.217
 2762TIP3   OH2 8291   2.392   2.649   1.127
 2762TIP3    H1 8292   2.345   2.687   1.052
 2762TIP3    H2 8293   2.484   2.653   1.102
 2763TIP3   OH2 8294   4.657   4.818   4.390
 2763TIP3    H1 8295   4.637   4.911   4.386
 2763TIP3    H2 8296   4.603   4.784   4.461
 2764TIP3   OH2 8297   2.869   2.850   1.207
 2764TIP3    H1 8298   2.872   2.945   1.216
 2764TIP3    H2 8299   2.814   2.821   1.280
 2765TIP3   OH2 8300   3.782   2.746   4.855
 2765TIP3    H1 8301   3.838   2.668   4.856
 2765TIP3    H2 8302   3.699   2.716   4.892
 2766TIP3   OH2 8303   0.524   3.160   0.045
 2766TIP3    H1 8304   0.453   3.219   0.020
 2766TIP3    H2 8305   0.487   3.072   0.037
 2767TIP3   OH2 8306   3.755   0.949   1.938
 2767TIP3    H1 8307   3.737   0.986   1.852
 2767TIP3    H2 8308   3.811   1.013   1.981
 2768TIP3   OH2 8309   5.628   1.388   4.237
 2768TIP3    H1 8310   5.581   1.356   4.314
 2768TIP3    H2 8311   5.643   1.481   4.255
 2769TIP3   OH2 8312   2.785   5.229   0.933
 2769TIP3    H1 8313   2.842   5.252   0.859
 2769TIP3    H2 8314   2.701   5.207   0.892
 2770TIP3   OH2 8315   3.063   1.608   1.703
 2770TIP3    H1 8316   3.061   1.668   1.627
 2770TIP3    H2 8317   3.134   1.641   1.757
 2771TIP3   OH2 8318   2.302   1.637   2.966
 2771TIP3    H1 8319   2.359   1.569   2.930
 2771TIP3    H2 8320   2.214   1.602   2.956
 2772TIP3   OH2 8321   5.545   3.721   2.254
 2772TIP3    H1 8322   5.585   3.734   2.340
 2772TIP3    H2 8323   5.581   3.791   2.200
 2773TIP3   OH2 8324   0.111   1.912   4.580
 2773TIP3    H1 8325   0.068   1.899   4.665
 2773TIP3    H2 8326   0.191   1.960   4.600
 2774TIP3   OH2 8327   2.201   1.567   0.645
 2774TIP3    H1 8328   2.270   1.508   0.616
 2774TIP3    H2 8329   2.122   1.513   0.648
 2775TIP3   OH2 8330   3.753   5.066   1.927
 2775TIP3    H1 8331   3.846   5.044   1.937
 2775TIP3    H2 8332   3.753   5.160   1.908
 2776TIP3   OH2 8333   1.889   5.299   1.410
 2776TIP3    H1 8334   1.895   5.387   1.446
 2776TIP3    H2 8335   1.926   5.307   1.322
 2777TIP3   OH2 8336   1.790   4.749   2.832
 2777TIP3    H1 8337   1.762   4.839   2.814
 2777TIP3    H2 8338   1.838   4.723   2.754
 2778TIP3   OH2 8339   2.341   1.299   0.612
 2778TIP3    H1 8340   2.398   1.272   0.540
 2778TIP3    H2 8341   2.345   1.227   0.674
 2779TIP3   OH2 8342   4.487   5.148   3.864
 2779TIP3    H1 8343   4.432   5.138   3.787
 2779TIP3    H2 8344   4.474   5.239   3.891
 2780TIP3   OH2 8345   1.454   4.861   3.634
 2780TIP3    H1 8346   1.364   4.836   3.651
 2780TIP3    H2 8347   1.480   4.807   3.559
 2781TIP3   OH2 8348   4.814   4.188   0.033
 2781TIP3    H1 8349   4.828   4.115  -0.027
 2781TIP3    H2 8350   4.902   4.214   0.059
 2782TIP3   OH2 8351   4.372   2.823   0.534
 2782TIP3    H1 8352   4.369   2.729   0.551
 2782TIP3    H2 8353   4.448   2.855   0.582
 2783TIP3   OH2 8354   3.146   3.718   1.625
 2783TIP3    H1 8355   3.174   3.658   1.556
 2783TIP3    H2 8356   3.105   3.661   1.691
 2784TIP3   OH2 8357   4.047   3.659   3.444
 2784TIP3    H1 8358   3.993   3.625   3.373
 2784TIP3    H2 8359   4.014   3.615   3.522
 2785TIP3   OH2 8360   4.309   3.966   0.881
 2785TIP3    H1 8361   4.388   3.935   0.924
 2785TIP3    H2 8362   4.310   3.923   0.795
 2786TIP3   OH2 8363   1.965   3.530   5.154
 2786TIP3    H1 8364   2.047   3.579   5.151
 2786TIP3    H2 8365   1.913   3.566   5.082
 2787TIP3   OH2 8366   0.956   4.256   2.185
 2787TIP3    H1 8367   0.938   4.339   2.142
 2787TIP3    H2 8368   0.998   4.280   2.268
 2788TIP3   OH2 8369   2.948   4.880   3.452
 2788TIP3    H1 8370   2.986   4.865   3.366
 2788TIP3    H2 8371   2.854   4.879   3.437
 2789TIP3   OH2 8372   4.959   5.436   2.552
 2789TIP3    H1 8373   4.924   5.511   2.502
 2789TIP3    H2 8374   4.950   5.362   2.492
 2790TIP3   OH2 8375   3.333   1.957   0.301
 2790TIP3    H1 8376   3.349   2.051   0.308
 2790TIP3    H2 8377   3.333   1.926   0.391
 2791TIP3   OH2 8378   2.217   5.702   2.354
 2791TIP3    H1 8379   2.180   5.780   2.313
 2791TIP3    H2 8380   2.312   5.717   2.352
 2792TIP3   OH2 8381   5.685   1.333   1.894
 2792TIP3    H1 8382   5.770   1.320   1.852
 2792TIP3    H2 8383   5.699   1.303   1.984
 2793TIP3   OH2 8384   3.392   1.766   3.766
 2793TIP3    H1 8385   3.410   1.833   3.700
 2793TIP3    H2 8386   3.305   1.732   3.743
 2794TIP3   OH2 8387   1.507   4.667   5.051
 2794TIP3    H1 8388   1.563   4.744   5.064
 2794TIP3    H2 8389   1.539   4.627   4.970
 2795TIP3   OH2 8390   2.113   2.416   3.512
 2795TIP3    H1 8391   2.206   2.441   3.505
 2795TIP3    H2 8392   2.083   2.460   3.592
 2796TIP3   OH2 8393   1.097   0.860   2.176
 2796TIP3    H1 8394   1.075   0.953   2.176
 2796TIP3    H2 8395   1.122   0.841   2.085
 2797TIP3   OH2 8396   2.205   2.820   1.273
 2797TIP3    H1 8397   2.239   2.735   1.245
 2797TIP3    H2 8398   2.191   2.811   1.367
 2798TIP3   OH2 8399   5.264   2.642   2.198
 2798TIP3    H1 8400   5.216   2.592   2.263
 2798TIP3    H2 8401   5.302   2.715   2.247
 2799TIP3   OH2 8402   4.927   2.232   2.701
 2799TIP3    H1 8403   5.022   2.242   2.706
 2799TIP3    H2 8404   4.896   2.251   2.790
 2800TIP3   OH2 8405   0.238   5.695   5.047
 2800TIP3    H1 8406   0.190   5.684   4.965
 2800TIP3    H2 8407   0.318   5.642   5.035
 2801TIP3   OH2 8408   3.439   2.758   3.384
 2801TIP3    H1 8409   3.493   2.837   3.385
 2801TIP3    H2 8410   3.464   2.710   3.462
 2802TIP3   OH2 8411   2.570   1.893   1.482
 2802TIP3    H1 8412   2.580   1.801   1.458
 2802TIP3    H2 8413   2.476   1.911   1.472
 2803TIP3   OH2 8414   5.739   3.909   2.120
 2803TIP3    H1 8415   5.812   3.866   2.074
 2803TIP3    H2 8416   5.778   3.944   2.200
 2804TIP3   OH2 8417   1.136   2.785   1.205
 2804TIP3    H1 8418   1.141   2.763   1.298
 2804TIP3    H2 8419   1.226   2.775   1.173
 2805TIP3   OH2 8420   1.478   2.613   5.094
 2805TIP3    H1 8421   1.436   2.527   5.086
 2805TIP3    H2 8422   1.564   2.594   5.131
 2806TIP3   OH2 8423   5.393   2.396   2.509
 2806TIP3    H1 8424   5.484   2.369   2.502
 2806TIP3    H2 8425   5.353   2.365   2.427
 2807TIP3   OH2 8426   3.393   2.534   4.705
 2807TIP3    H1 8427   3.458   2.570   4.646
 2807TIP3    H2 8428   3.365   2.453   4.664
 2808TIP3   OH2 8429   0.551   2.732   1.827
 2808TIP3    H1 8430   0.456   2.723   1.817
 2808TIP3    H2 8431   0.585   2.731   1.737
 2809TIP3   OH2 8432   1.619   5.302   2.938
 2809TIP3    H1 8433   1.561   5.356   2.885
 2809TIP3    H2 8434   1.561   5.237   2.979
 2810TIP3   OH2 8435   2.746   0.848   0.070
 2810TIP3    H1 8436   2.673   0.858   0.009
 2810TIP3    H2 8437   2.808   0.791   0.024
 2811TIP3   OH2 8438   2.354   1.327   3.707
 2811TIP3    H1 8439   2.348   1.324   3.802
 2811TIP3    H2 8440   2.271   1.292   3.676
 2812TIP3   OH2 8441   4.301   4.450   0.441
 2812TIP3    H1 8442   4.238   4.418   0.377
 2812TIP3    H2 8443   4.371   4.488   0.388
 2813TIP3   OH2 8444   4.751   3.093   2.710
 2813TIP3    H1 8445   4.704   3.145   2.775
 2813TIP3    H2 8446   4.735   3.138   2.627
 2814TIP3   OH2 8447   5.616   2.369   3.312
 2814TIP3    H1 8448   5.574   2.285   3.331
 2814TIP3    H2 8449   5.551   2.419   3.264
 2815TIP3   OH2 8450   3.637   0.293   2.394
 2815TIP3    H1 8451   3.672   0.266   2.479
 2815TIP3    H2 8452   3.557   0.341   2.416
 2816TIP3   OH2 8453   2.297   5.835   1.321
 2816TIP3    H1 8454   2.288   5.743   1.348
 2816TIP3    H2 8455   2.390   5.845   1.301
 2817TIP3   OH2 8456   0.792   4.456   2.462
 2817TIP3    H1 8457   0.731   4.385   2.443
 2817TIP3    H2 8458   0.876   4.413   2.479
 2818TIP3   OH2 8459   1.176   4.244   0.828
 2818TIP3    H1 8460   1.104   4.307   0.827
 2818TIP3    H2 8461   1.243   4.284   0.884
 2819TIP3   OH2 8462   3.641   0.712   0.241
 2819TIP3    H1 8463   3.638   0.789   0.184
 2819TIP3    H2 8464   3.549   0.689   0.255
 2820TIP3   OH2 8465   1.203   1.686   0.960
 2820TIP3    H1 8466   1.260   1.665   1.034
 2820TIP3    H2 8467   1.117   1.649   0.985
 2821TIP3   OH2 8468   1.647   2.678   0.023
 2821TIP3    H1 8469   1.603   2.665   0.108
 2821TIP3    H2 8470   1.575   2.697  -0.038
 2822TIP3   OH2 8471   5.687   2.720   3.055
 2822TIP3    H1 8472   5.630   2.645   3.034
 2822TIP3    H2 8473   5.732   2.740   2.973
 2823TIP3   OH2 8474   5.345   0.337   2.738
 2823TIP3    H1 8475   5.251   0.334   2.753
 2823TIP3    H2 8476   5.379   0.394   2.807
 2824TIP3   OH2 8477   6.144   5.588   1.214
 2824TIP3    H1 8478   6.214   5.651   1.227
 2824TIP3    H2 8479   6.139   5.539   1.296
 2825TIP3   OH2 8480   3.807   4.834   4.536
 2825TIP3    H1 8481   3.715   4.824   4.509
 2825TIP3    H2 8482   3.810   4.920   4.579
 2826TIP3   OH2 8483   0.260   0.320   3.005
 2826TIP3    H1 8484   0.332   0.288   2.951
 2826TIP3    H2 8485   0.302   0.378   3.068
 2827TIP3   OH2 8486   0.910   0.256   2.551
 2827TIP3    H1 8487   0.856   0.267   2.629
 2827TIP3    H2 8488   0.854   0.284   2.479
 2828TIP3   OH2 8489   3.143   4.025   2.381
 2828TIP3    H1 8490   3.172   4.085   2.312
 2828TIP3    H2 8491   3.103   4.082   2.447
 2829TIP3   OH2 8492   0.175   2.288   1.081
 2829TIP3    H1 8493   0.249   2.300   1.022
 2829TIP3    H2 8494   0.152   2.196   1.073
 2830TIP3   OH2 8495   3.546   1.675   0.007
 2830TIP3    H1 8496   3.597   1.597   0.028
 2830TIP3    H2 8497   3.598   1.747   0.042
 2831TIP3   OH2 8498   3.499   1.821   1.540
 2831TIP3    H1 8499   3.509   1.818   1.445
 2831TIP3    H2 8500   3.425   1.764   1.559
 2832TIP3   OH2 8501   6.296   1.454   0.520
 2832TIP3    H1 8502   6.274   1.448   0.427
 2832TIP3    H2 8503   6.299   1.548   0.537
 2833TIP3   OH2 8504   6.323   1.446   3.033
 2833TIP3    H1 8505   6.387   1.491   3.088
 2833TIP3    H2 8506   6.311   1.503   2.957
 2834TIP3   OH2 8507   1.825   2.749   4.700
 2834TIP3    H1 8508   1.824   2.770   4.793
 2834TIP3    H2 8509   1.821   2.834   4.656
 2835TIP3   OH2 8510   3.455   4.578   1.766
 2835TIP3    H1 8511   3.452   4.581   1.671
 2835TIP3    H2 8512   3.389   4.642   1.794
 2836TIP3   OH2 8513   1.688   1.258   1.965
 2836TIP3    H1 8514   1.736   1.242   2.046
 2836TIP3    H2 8515   1.635   1.336   1.984
 2837TIP3   OH2 8516   3.059   5.342   4.942
 2837TIP3    H1 8517   3.140   5.292   4.954
 2837TIP3    H2 8518   3.006   5.320   5.019
 2838TIP3   OH2 8519   3.806   5.816   0.106
 2838TIP3    H1 8520   3.828   5.776   0.190
 2838TIP3    H2 8521   3.886   5.810   0.054
 2839TIP3   OH2 8522   5.706   5.056   2.850
 2839TIP3    H1 8523   5.619   5.050   2.812
 2839TIP3    H2 8524   5.691   5.075   2.942
 2840TIP3   OH2 8525   2.662   0.722   4.906
 2840TIP3    H1 8526   2.704   0.647   4.948
 2840TIP3    H2 8527   2.662   0.791   4.972
 2841TIP3   OH2 8528   1.900   5.196   1.740
 2841TIP3    H1 8529   1.964   5.164   1.677
 2841TIP3    H2 8530   1.925   5.153   1.822
 2842TIP3   OH2 8531   3.488   0.070   0.099
 2842TIP3    H1 8532   3.461   0.129   0.170
 2842TIP3    H2 8533   3.575   0.102   0.075
 2843TIP3   OH2 8534   3.090   1.762   4.268
 2843TIP3    H1 8535   3.168   1.815   4.250
 2843TIP3    H2 8536   3.042   1.813   4.334
 2844TIP3   OH2 8537   0.057   5.232   2.651
 2844TIP3    H1 8538  -0.032   5.267   2.648
 2844TIP3    H2 8539   0.045   5.138   2.665
 2845TIP3   OH2 8540   1.280   2.170   4.627
 2845TIP3    H1 8541   1.276   2.075   4.634
 2845TIP3    H2 8542   1.360   2.194   4.674
 2846TIP3   OH2 8543   0.692   5.090   5.215
 2846TIP3    H1 8544   0.748   5.101   5.138
 2846TIP3    H2 8545   0.614   5.046   5.182
 2847TIP3   OH2 8546   3.414   0.981   0.345
 2847TIP3    H1 8547   3.383   0.891   0.330
 2847TIP3    H2 8548   3.509   0.972   0.354
 2848TIP3   OH2 8549   2.327   2.213   1.161
 2848TIP3    H1 8550   2.384   2.236   1.087
 2848TIP3    H2 8551   2.284   2.132   1.133
 2849TIP3   OH2 8552   2.513   4.621   5.044
 2849TIP3    H1 8553   2.524   4.561   4.971
 2849TIP3    H2 8554   2.484   4.566   5.117
 2850TIP3   OH2 8555   1.844   1.515   2.261
 2850TIP3    H1 8556   1.832   1.424   2.237
 2850TIP3    H2 8557   1.845   1.563   2.178
 2851TIP3   OH2 8558   0.390   2.414   3.216
 2851TIP3    H1 8559   0.328   2.390   3.285
 2851TIP3    H2 8560   0.432   2.332   3.191
 2852TIP3   OH2 8561   1.421   2.855   1.367
 2852TIP3    H1 8562   1.386   2.944   1.365
 2852TIP3    H2 8563   1.352   2.804   1.410
 2853TIP3   OH2 8564   1.459   5.058   2.943
 2853TIP3    H1 8565   1.392   5.026   3.004
 2853TIP3    H2 8566   1.457   4.997   2.870
 2854TIP3   OH2 8567   2.213   1.249   2.809
 2854TIP3    H1 8568   2.205   1.153   2.807
 2854TIP3    H2 8569   2.228   1.273   2.718
 2855TIP3   OH2 8570   2.927   1.107   1.165
 2855TIP3    H1 8571   2.941   1.027   1.215
 2855TIP3    H2 8572   2.889   1.168   1.228
 2856TIP3   OH2 8573   3.500   3.823   4.163
 2856TIP3    H1 8574   3.496   3.810   4.257
 2856TIP3    H2 8575   3.417   3.787   4.130
 2857TIP3   OH2 8576   4.670   2.629   1.482
 2857TIP3    H1 8577   4.695   2.685   1.408
 2857TIP3    H2 8578   4.635   2.550   1.441
 2858TIP3   OH2 8579   3.979   1.918   4.378
 2858TIP3    H1 8580   3.957   1.826   4.386
 2858TIP3    H2 8581   4.044   1.922   4.308
 2859TIP3   OH2 8582   2.436   0.297   0.328
 2859TIP3    H1 8583   2.378   0.370   0.306
 2859TIP3    H2 8584   2.423   0.283   0.422
 2860TIP3   OH2 8585   3.122   0.211   4.347
 2860TIP3    H1 8586   3.213   0.239   4.354
 2860TIP3    H2 8587   3.102   0.173   4.432
 2861TIP3   OH2 8588   3.927   0.746   0.101
 2861TIP3    H1 8589   3.937   0.750   0.006
 2861TIP3    H2 8590   3.848   0.798   0.119
 2862TIP3   OH2 8591   0.863   5.233   0.416
 2862TIP3    H1 8592   0.773   5.217   0.446
 2862TIP3    H2 8593   0.872   5.328   0.419
 2863TIP3   OH2 8594   1.022   1.740   4.831
 2863TIP3    H1 8595   0.978   1.746   4.916
 2863TIP3    H2 8596   0.997   1.654   4.797
 2864TIP3   OH2 8597   6.151   3.848   0.732
 2864TIP3    H1 8598   6.184   3.930   0.697
 2864TIP3    H2 8599   6.123   3.869   0.822
 2865TIP3   OH2 8600   0.401   1.259   3.857
 2865TIP3    H1 8601   0.314   1.225   3.836
 2865TIP3    H2 8602   0.384   1.328   3.922
 2866TIP3   OH2 8603   1.169   4.855   1.608
 2866TIP3    H1 8604   1.258   4.819   1.611
 2866TIP3    H2 8605   1.137   4.834   1.520
 2867TIP3   OH2 8606   4.473   2.765   3.928
 2867TIP3    H1 8607   4.475   2.685   3.980
 2867TIP3    H2 8608   4.554   2.764   3.877
 2868TIP3   OH2 8609   3.537   5.346   3.038
 2868TIP3    H1 8610   3.580   5.394   3.109
 2868TIP3    H2 8611   3.573   5.257   3.045
 2869TIP3   OH2 8612   1.219   5.520   3.271
 2869TIP3    H1 8613   1.266   5.530   3.354
 2869TIP3    H2 8614   1.170   5.602   3.261
 2870TIP3   OH2 8615   2.119   3.662   1.738
 2870TIP3    H1 8616   2.197   3.717   1.731
 2870TIP3    H2 8617   2.136   3.588   1.679
 2871TIP3   OH2 8618   4.255   5.771   4.898
 2871TIP3    H1 8619   4.269   5.680   4.922
 2871TIP3    H2 8620   4.288   5.821   4.972
 2872TIP3   OH2 8621   0.094   0.676   1.793
 2872TIP3    H1 8622   0.153   0.672   1.717
 2872TIP3    H2 8623   0.146   0.718   1.861
 2873TIP3   OH2 8624   1.763   1.082   0.619
 2873TIP3    H1 8625   1.802   1.169   0.610
 2873TIP3    H2 8626   1.727   1.081   0.708
 2874TIP3   OH2 8627   0.887   4.316   5.086
 2874TIP3    H1 8628   0.945   4.349   5.017
 2874TIP3    H2 8629   0.866   4.394   5.138
 2875TIP3   OH2 8630   0.873   3.777   4.446
 2875TIP3    H1 8631   0.814   3.764   4.372
 2875TIP3    H2 8632   0.961   3.782   4.407
 2876TIP3   OH2 8633   1.849   3.222   3.683
 2876TIP3    H1 8634   1.902   3.286   3.731
 2876TIP3    H2 8635   1.758   3.246   3.703
 2877TIP3   OH2 8636   1.371   4.337   0.138
 2877TIP3    H1 8637   1.316   4.265   0.168
 2877TIP3    H2 8638   1.343   4.353   0.048
 2878TIP3   OH2 8639   0.719   0.500   2.654
 2878TIP3    H1 8640   0.760   0.442   2.718
 2878TIP3    H2 8641   0.625   0.484   2.664
 2879TIP3   OH2 8642   5.058   1.178   2.548
 2879TIP3    H1 8643   5.022   1.132   2.623
 2879TIP3    H2 8644   5.061   1.270   2.575
 2880TIP3   OH2 8645   2.318   0.439   2.908
 2880TIP3    H1 8646   2.368   0.370   2.864
 2880TIP3    H2 8647   2.295   0.500   2.837
 2881TIP3   OH2 8648   1.493   5.247   5.019
 2881TIP3    H1 8649   1.459   5.165   4.983
 2881TIP3    H2 8650   1.529   5.294   4.944
 2882TIP3   OH2 8651   0.188   2.790   2.688
 2882TIP3    H1 8652   0.260   2.771   2.749
 2882TIP3    H2 8653   0.231   2.814   2.607
 2883TIP3   OH2 8654   3.401   3.966   1.384
 2883TIP3    H1 8655   3.405   4.055   1.349
 2883TIP3    H2 8656   3.354   3.975   1.467
 2884TIP3   OH2 8657   0.077   4.433   4.734
 2884TIP3    H1 8658   0.060   4.527   4.721
 2884TIP3    H2 8659   0.167   4.421   4.703
 2885TIP3   OH2 8660   0.999   4.130   4.320
 2885TIP3    H1 8661   0.943   4.082   4.260
 2885TIP3    H2 8662   0.970   4.221   4.312
 2886TIP3   OH2 8663   1.795   2.680   3.571
 2886TIP3    H1 8664   1.738   2.611   3.536
 2886TIP3    H2 8665   1.741   2.760   3.565
 2887TIP3   OH2 8666   2.539   5.754   0.470
 2887TIP3    H1 8667   2.581   5.837   0.451
 2887TIP3    H2 8668   2.608   5.688   0.457
 2888TIP3   OH2 8669   4.078   2.956   3.521
 2888TIP3    H1 8670   4.145   2.889   3.533
 2888TIP3    H2 8671   4.105   3.004   3.443
 2889TIP3   OH2 8672   4.488   5.921   0.474
 2889TIP3    H1 8673   4.531   5.907   0.390
 2889TIP3    H2 8674   4.406   5.871   0.468
 2890TIP3   OH2 8675   3.168   4.462   0.186
 2890TIP3    H1 8676   3.165   4.518   0.108
 2890TIP3    H2 8677   3.110   4.505   0.249
 2891TIP3   OH2 8678   0.235   0.549   0.499
 2891TIP3    H1 8679   0.213   0.632   0.541
 2891TIP3    H2 8680   0.154   0.499   0.500
 2892TIP3   OH2 8681   0.473   3.236   2.597
 2892TIP3    H1 8682   0.531   3.191   2.536
 2892TIP3    H2 8683   0.416   3.167   2.631
 2893TIP3   OH2 8684   1.270   3.329   3.008
 2893TIP3    H1 8685   1.199   3.269   2.985
 2893TIP3    H2 8686   1.349   3.287   2.974
 2894TIP3   OH2 8687   2.820   4.834   2.697
 2894TIP3    H1 8688   2.753   4.777   2.735
 2894TIP3    H2 8689   2.832   4.904   2.762
 2895TIP3   OH2 8690   5.392   5.899   2.910
 2895TIP3    H1 8691   5.417   5.969   2.971
 2895TIP3    H2 8692   5.449   5.913   2.834
 2896TIP3   OH2 8693   5.665   1.448   1.486
 2896TIP3    H1 8694   5.741   1.478   1.534
 2896TIP3    H2 8695   5.656   1.355   1.510
 2897TIP3   OH2 8696   0.692   2.752   4.425
 2897TIP3    H1 8697   0.759   2.781   4.362
 2897TIP3    H2 8698   0.698   2.657   4.424
 2898TIP3   OH2 8699   1.812   5.776   3.860
 2898TIP3    H1 8700   1.852   5.858   3.831
 2898TIP3    H2 8701   1.731   5.769   3.808
 2899TIP3   OH2 8702   5.347   1.001   5.168
 2899TIP3    H1 8703   5.254   1.010   5.144
 2899TIP3    H2 8704   5.394   1.036   5.093
 2900TIP3   OH2 8705   5.477   5.660   4.067
 2900TIP3    H1 8706   5.478   5.577   4.115
 2900TIP3    H2 8707   5.389   5.665   4.030
 2901TIP3   OH2 8708   2.922   2.926   0.771
 2901TIP3    H1 8709   2.831   2.941   0.796
 2901TIP3    H2 8710   2.947   2.847   0.819
 2902TIP3   OH2 8711   6.263   1.556   5.122
 2902TIP3    H1 8712   6.315   1.514   5.190
 2902TIP3    H2 8713   6.194   1.492   5.102
 2903TIP3   OH2 8714   3.701   2.415   0.680
 2903TIP3    H1 8715   3.685   2.324   0.657
 2903TIP3    H2 8716   3.725   2.413   0.772
 2904TIP3   OH2 8717   1.161   2.309   3.321
 2904TIP3    H1 8718   1.166   2.386   3.379
 2904TIP3    H2 8719   1.155   2.235   3.381
 2905TIP3   OH2 8720   1.739   0.707   3.271
 2905TIP3    H1 8721   1.772   0.796   3.278
 2905TIP3    H2 8722   1.785   0.658   3.339
 2906TIP3   OH2 8723   3.035   2.015   3.557
 2906TIP3    H1 8724   3.092   1.942   3.533
 2906TIP3    H2 8725   2.991   1.986   3.637
 2907TIP3   OH2 8726   1.433   3.267   0.229
 2907TIP3    H1 8727   1.365   3.274   0.163
 2907TIP3    H2 8728   1.396   3.208   0.295
 2908TIP3   OH2 8729   3.114   4.158   4.508
 2908TIP3    H1 8730   3.136   4.101   4.435
 2908TIP3    H2 8731   3.053   4.222   4.472
 2909TIP3   OH2 8732   5.933   5.083   2.080
 2909TIP3    H1 8733   5.954   5.060   1.989
 2909TIP3    H2 8734   5.854   5.033   2.100
 2910TIP3   OH2 8735   3.891   0.626   3.246
 2910TIP3    H1 8736   3.976   0.635   3.289
 2910TIP3    H2 8737   3.891   0.537   3.211
 2911TIP3   OH2 8738   4.524   4.632   1.514
 2911TIP3    H1 8739   4.586   4.693   1.554
 2911TIP3    H2 8740   4.439   4.675   1.525
 2912TIP3   OH2 8741   1.859   4.349   4.824
 2912TIP3    H1 8742   1.937   4.298   4.847
 2912TIP3    H2 8743   1.813   4.360   4.907
 2913TIP3   OH2 8744   5.935   2.428   3.921
 2913TIP3    H1 8745   5.962   2.385   4.002
 2913TIP3    H2 8746   5.845   2.399   3.907
 2914TIP3   OH2 8747   2.194   3.694   5.150
 2914TIP3    H1 8748   2.226   3.745   5.224
 2914TIP3    H2 8749   2.171   3.759   5.084
 2915TIP3   OH2 8750   1.605   2.659   4.091
 2915TIP3    H1 8751   1.628   2.740   4.046
 2915TIP3    H2 8752   1.625   2.590   4.028
 2916TIP3   OH2 8753   5.052   5.212   4.261
 2916TIP3    H1 8754   5.071   5.131   4.309
 2916TIP3    H2 8755   5.032   5.182   4.172
 2917TIP3   OH2 8756   4.789   0.233   3.562
 2917TIP3    H1 8757   4.696   0.228   3.584
 2917TIP3    H2 8758   4.793   0.212   3.469
 2918TIP3   OH2 8759   5.579   3.637   1.474
 2918TIP3    H1 8760   5.632   3.570   1.517
 2918TIP3    H2 8761   5.643   3.701   1.443
 2919TIP3   OH2 8762   5.266   1.442   4.908
 2919TIP3    H1 8763   5.171   1.441   4.926
 2919TIP3    H2 8764   5.278   1.374   4.842
 2920TIP3   OH2 8765   0.762   5.329   2.924
 2920TIP3    H1 8766   0.775   5.390   2.998
 2920TIP3    H2 8767   0.668   5.332   2.908
 2921TIP3   OH2 8768   6.223   3.225   0.830
 2921TIP3    H1 8769   6.147   3.175   0.801
 2921TIP3    H2 8770   6.187   3.298   0.880
 2922TIP3   OH2 8771   5.266   1.875   3.852
 2922TIP3    H1 8772   5.306   1.841   3.933
 2922TIP3    H2 8773   5.204   1.942   3.883
 2923TIP3   OH2 8774   6.257   0.184   2.800
 2923TIP3    H1 8775   6.233   0.095   2.776
 2923TIP3    H2 8776   6.178   0.221   2.839
 2924TIP3   OH2 8777   5.964   1.401   3.334
 2924TIP3    H1 8778   5.915   1.351   3.400
 2924TIP3    H2 8779   5.921   1.380   3.251
 2925TIP3   OH2 8780   5.943   1.321   1.792
 2925TIP3    H1 8781   5.971   1.344   1.881
 2925TIP3    H2 8782   6.022   1.286   1.750
 2926TIP3   OH2 8783   3.232   3.575   2.892
 2926TIP3    H1 8784   3.191   3.527   2.964
 2926TIP3    H2 8785   3.186   3.544   2.814
 2927TIP3   OH2 8786   2.463   3.943   4.320
 2927TIP3    H1 8787   2.439   3.946   4.227
 2927TIP3    H2 8788   2.556   3.962   4.321
 2928TIP3   OH2 8789   5.503   5.183   5.084
 2928TIP3    H1 8790   5.544   5.262   5.049
 2928TIP3    H2 8791   5.467   5.210   5.169
 2929TIP3   OH2 8792   4.684   5.749   2.386
 2929TIP3    H1 8793   4.757   5.762   2.324
 2929TIP3    H2 8794   4.726   5.715   2.465
 2930TIP3   OH2 8795   4.062   1.009   2.385
 2930TIP3    H1 8796   3.986   1.065   2.403
 2930TIP3    H2 8797   4.134   1.051   2.433
 2931TIP3   OH2 8798   4.414   5.168   0.125
 2931TIP3    H1 8799   4.394   5.252   0.084
 2931TIP3    H2 8800   4.405   5.185   0.219
 2932TIP3   OH2 8801   5.793   4.972   0.222
 2932TIP3    H1 8802   5.867   4.921   0.188
 2932TIP3    H2 8803   5.719   4.912   0.215
 2933TIP3   OH2 8804   4.381   4.499   2.145
 2933TIP3    H1 8805   4.312   4.530   2.204
 2933TIP3    H2 8806   4.402   4.411   2.177
 2934TIP3   OH2 8807   6.259   0.383   3.344
 2934TIP3    H1 8808   6.189   0.355   3.284
 2934TIP3    H2 8809   6.292   0.302   3.381
 2935TIP3   OH2 8810   1.691   0.033   2.380
 2935TIP3    H1 8811   1.704  -0.055   2.345
 2935TIP3    H2 8812   1.600   0.054   2.359
 2936TIP3   OH2 8813   1.070   4.645   4.826
 2936TIP3    H1 8814   1.023   4.668   4.746
 2936TIP3    H2 8815   1.057   4.550   4.835
 2937TIP3   OH2 8816   3.813   0.819   3.067
 2937TIP3    H1 8817   3.863   0.749   3.108
 2937TIP3    H2 8818   3.854   0.900   3.099
 2938TIP3   OH2 8819   6.193   2.023   1.386
 2938TIP3    H1 8820   6.186   2.099   1.328
 2938TIP3    H2 8821   6.146   1.953   1.341
 2939TIP3   OH2 8822   4.203   4.569   2.546
 2939TIP3    H1 8823   4.262   4.494   2.560
 2939TIP3    H2 8824   4.163   4.584   2.631
 2940TIP3   OH2 8825   1.776   1.694   4.673
 2940TIP3    H1 8826   1.770   1.780   4.631
 2940TIP3    H2 8827   1.824   1.711   4.754
 2941TIP3   OH2 8828   0.261   4.663   0.609
 2941TIP3    H1 8829   0.249   4.713   0.528
 2941TIP3    H2 8830   0.294   4.727   0.672
 2942TIP3   OH2 8831   0.727   1.796   1.856
 2942TIP3    H1 8832   0.790   1.750   1.801
 2942TIP3    H2 8833   0.761   1.885   1.863
 2943TIP3   OH2 8834   4.640   4.383   0.092
 2943TIP3    H1 8835   4.558   4.333   0.091
 2943TIP3    H2 8836   4.707   4.319   0.069
 2944TIP3   OH2 8837   4.685   3.268   3.886
 2944TIP3    H1 8838   4.694   3.214   3.808
 2944TIP3    H2 8839   4.604   3.236   3.927
 2945TIP3   OH2 8840   3.261   3.967   1.609
 2945TIP3    H1 8841   3.226   3.878   1.609
 2945TIP3    H2 8842   3.189   4.021   1.642
 2946TIP3   OH2 8843   4.251   2.859   2.996
 2946TIP3    H1 8844   4.173   2.807   3.016
 2946TIP3    H2 8845   4.248   2.931   3.059
 2947TIP3   OH2 8846   5.859   1.573   4.354
 2947TIP3    H1 8847   5.781   1.611   4.395
 2947TIP3    H2 8848   5.869   1.621   4.272
 2948TIP3   OH2 8849   1.250   1.247   3.744
 2948TIP3    H1 8850   1.163   1.284   3.730
 2948TIP3    H2 8851   1.270   1.202   3.661
 2949TIP3   OH2 8852   3.923   0.274   0.594
 2949TIP3    H1 8853   3.833   0.245   0.605
 2949TIP3    H2 8854   3.942   0.323   0.675
 2950TIP3   OH2 8855   6.233   5.293   4.387
 2950TIP3    H1 8856   6.215   5.349   4.312
 2950TIP3    H2 8857   6.202   5.207   4.361
 2951TIP3   OH2 8858   5.016   5.584   1.311
 2951TIP3    H1 8859   4.923   5.591   1.330
 2951TIP3    H2 8860   5.059   5.600   1.396
 2952TIP3   OH2 8861   2.335   4.267   3.043
 2952TIP3    H1 8862   2.368   4.325   3.112
 2952TIP3    H2 8863   2.369   4.305   2.962
 2953TIP3   OH2 8864   0.727   3.517   2.440
 2953TIP3    H1 8865   0.786   3.496   2.512
 2953TIP3    H2 8866   0.740   3.446   2.377
 2954TIP3   OH2 8867   5.075   1.755   3.006
 2954TIP3    H1 8868   5.130   1.682   2.976
 2954TIP3    H2 8869   5.085   1.822   2.939
 2955TIP3   OH2 8870   2.524   3.303   1.358
 2955TIP3    H1 8871   2.534   3.246   1.434
 2955TIP3    H2 8872   2.483   3.382   1.393
 2956TIP3   OH2 8873   4.528   3.932   3.659
 2956TIP3    H1 8874   4.617   3.951   3.690
 2956TIP3    H2 8875   4.529   3.838   3.641
 2957TIP3   OH2 8876   4.116   4.645   3.383
 2957TIP3    H1 8877   4.183   4.603   3.329
 2957TIP3    H2 8878   4.039   4.589   3.373
 2958TIP3   OH2 8879   6.067   0.325   2.934
 2958TIP3    H1 8880   5.980   0.293   2.910
 2958TIP3    H2 8881   6.069   0.415   2.900
 2959TIP3   OH2 8882   1.726   4.903   3.449
 2959TIP3    H1 8883   1.648   4.850   3.431
 2959TIP3    H2 8884   1.740   4.896   3.543
 2960TIP3   OH2 8885   5.770   4.819   2.426
 2960TIP3    H1 8886   5.688   4.784   2.391
 2960TIP3    H2 8887   5.745   4.902   2.467
 2961TIP3   OH2 8888   1.052   0.506   2.962
 2961TIP3    H1 8889   1.137   0.479   2.997
 2961TIP3    H2 8890   1.063   0.497   2.867
 2962TIP3   OH2 8891   0.831   0.094   2.144
 2962TIP3    H1 8892   0.776   0.147   2.202
 2962TIP3    H2 8893   0.772   0.067   2.074
 2963TIP3   OH2 8894   5.165   1.549   0.043
 2963TIP3    H1 8895   5.106   1.621   0.064
 2963TIP3    H2 8896   5.194   1.516   0.129
 2964TIP3   OH2 8897   3.459   2.496   0.964
 2964TIP3    H1 8898   3.508   2.504   1.046
 2964TIP3    H2 8899   3.369   2.516   0.989
 2965TIP3   OH2 8900   4.800   5.759   3.356
 2965TIP3    H1 8901   4.724   5.715   3.395
 2965TIP3    H2 8902   4.785   5.752   3.261
 2966TIP3   OH2 8903   5.485   0.794   4.126
 2966TIP3    H1 8904   5.562   0.753   4.165
 2966TIP3    H2 8905   5.451   0.728   4.065
 2967TIP3   OH2 8906   2.482   0.063   0.179
 2967TIP3    H1 8907   2.464   0.145   0.225
 2967TIP3    H2 8908   2.555   0.083   0.120
 2968TIP3   OH2 8909   0.221   2.917   4.639
 2968TIP3    H1 8910   0.309   2.924   4.603
 2968TIP3    H2 8911   0.169   2.878   4.568
 2969TIP3   OH2 8912   2.260   1.490   4.243
 2969TIP3    H1 8913   2.347   1.453   4.226
 2969TIP3    H2 8914   2.200   1.417   4.231
 2970TIP3   OH2 8915   3.519   5.916   1.247
 2970TIP3    H1 8916   3.473   5.843   1.206
 2970TIP3    H2 8917   3.582   5.946   1.182
 2971TIP3   OH2 8918   1.603   0.184   0.222
 2971TIP3    H1 8919   1.523   0.141   0.193
 2971TIP3    H2 8920   1.657   0.112   0.256
 2972TIP3   OH2 8921   1.171   5.605   1.456
 2972TIP3    H1 8922   1.119   5.525   1.470
 2972TIP3    H2 8923   1.109   5.676   1.467
 2973TIP3   OH2 8924   4.600   1.086   2.453
 2973TIP3    H1 8925   4.671   1.141   2.486
 2973TIP3    H2 8926   4.521   1.129   2.484
 2974TIP3   OH2 8927   0.513   1.313   4.132
 2974TIP3    H1 8928   0.567   1.236   4.117
 2974TIP3    H2 8929   0.570   1.387   4.111
 2975TIP3   OH2 8930   2.878   3.970   4.042
 2975TIP3    H1 8931   2.840   3.993   4.127
 2975TIP3    H2 8932   2.813   3.998   3.978
 2976TIP3   OH2 8933   5.682   5.504   0.030
 2976TIP3    H1 8934   5.633   5.438  -0.019
 2976TIP3    H2 8935   5.630   5.519   0.109
 2977TIP3   OH2 8936   1.551   5.650   0.355
 2977TIP3    H1 8937   1.603   5.570   0.353
 2977TIP3    H2 8938   1.604   5.712   0.405
 2978TIP3   OH2 8939   1.340   0.424   1.522
 2978TIP3    H1 8940   1.250   0.394   1.511
 2978TIP3    H2 8941   1.340   0.514   1.489
 2979TIP3   OH2 8942   4.307   2.892   3.350
 2979TIP3    H1 8943   4.289   2.804   3.381
 2979TIP3    H2 8944   4.308   2.946   3.429
 2980TIP3   OH2 8945   4.125   3.196   0.956
 2980TIP3    H1 8946   4.166   3.146   0.886
 2980TIP3    H2 8947   4.184   3.185   1.031
 2981TIP3   OH2 8948   5.833   5.947   3.020
 2981TIP3    H1 8949   5.823   5.983   2.932
 2981TIP3    H2 8950   5.788   5.862   3.016
 2982TIP3   OH2 8951   2.809   1.996   4.029
 2982TIP3    H1 8952   2.845   2.070   3.980
 2982TIP3    H2 8953   2.864   1.991   4.107
 2983TIP3   OH2 8954   0.083   1.478   1.788
 2983TIP3    H1 8955   0.174   1.453   1.777
 2983TIP3    H2 8956   0.078   1.568   1.756
 2984TIP3   OH2 8957   0.095   1.078   4.480
 2984TIP3    H1 8958   0.145   1.055   4.558
 2984TIP3    H2 8959   0.012   1.111   4.515
 2985TIP3   OH2 8960   0.504   4.404   1.937
 2985TIP3    H1 8961   0.452   4.408   1.857
 2985TIP3    H2 8962   0.447   4.361   2.001
 2986TIP3   OH2 8963   2.229   3.573   4.193
 2986TIP3    H1 8964   2.310   3.621   4.173
 2986TIP3    H2 8965   2.230   3.499   4.133
 2987TIP3   OH2 8966   2.430   1.422   1.157
 2987TIP3    H1 8967   2.521   1.394   1.163
 2987TIP3    H2 8968   2.407   1.450   1.246
 2988TIP3   OH2 8969   4.232   4.819   2.428
 2988TIP3    H1 8970   4.222   4.724   2.431
 2988TIP3    H2 8971   4.196   4.849   2.512
 2989TIP3   OH2 8972   6.256   5.900   3.026
 2989TIP3    H1 8973   6.222   5.899   2.937
 2989TIP3    H2 8974   6.203   5.834   3.072
 2990TIP3   OH2 8975   5.092   0.657   3.846
 2990TIP3    H1 8976   5.169   0.608   3.875
 2990TIP3    H2 8977   5.125   0.744   3.826
 2991TIP3   OH2 8978   4.906   2.922   0.158
 2991TIP3    H1 8979   4.940   2.923   0.069
 2991TIP3    H2 8980   4.918   3.012   0.190
 2992TIP3   OH2 8981   2.297   5.644   4.921
 2992TIP3    H1 8982   2.363   5.691   4.871
 2992TIP3    H2 8983   2.219   5.700   4.915
 2993TIP3   OH2 8984   0.732   4.733   3.678
 2993TIP3    H1 8985   0.708   4.648   3.642
 2993TIP3    H2 8986   0.741   4.718   3.772
 2994TIP3   OH2 8987   1.547   5.447   2.469
 2994TIP3    H1 8988   1.545   5.481   2.380
 2994TIP3    H2 8989   1.493   5.369   2.466
 2995TIP3   OH2 8990   1.999   0.145   4.100
 2995TIP3    H1 8991   1.984   0.230   4.061
 2995TIP3    H2 8992   1.933   0.088   4.061
 2996TIP3   OH2 8993   2.601   3.166   3.403
 2996TIP3    H1 8994   2.691   3.135   3.405
 2996TIP3    H2 8995   2.583   3.192   3.494
 2997TIP3   OH2 8996   4.428   4.685   3.712
 2997TIP3    H1 8997   4.504   4.742   3.716
 2997TIP3    H2 8998   4.396   4.679   3.802
 2998TIP3   OH2 8999   2.743   2.732   1.437
 2998TIP3    H1 9000   2.795   2.698   1.509
 2998TIP3    H2 9001   2.680   2.663   1.417
 2999TIP3   OH2 9002   4.510   0.185   3.629
 2999TIP3    H1 9003   4.562   0.238   3.690
 2999TIP3    H2 9004   4.444   0.245   3.594
 3000TIP3   OH2 9005   0.573   4.651   0.333
 3000TIP3    H1 9006   0.664   4.631   0.307
 3000TIP3    H2 9007   0.580   4.731   0.385
 3001TIP3   OH2 9008   0.522   1.368   0.195
 3001TIP3    H1 9009   0.542   1.333   0.282
 3001TIP3    H2 9010   0.592   1.431   0.178
 3002TIP3   OH2 9011   0.184   4.212   0.106
 3002TIP3    H1 9012   0.260   4.198   0.163
 3002TIP3    H2 9013   0.125   4.268   0.157
 3003TIP3   OH2 9014   3.738   3.113   4.725
 3003TIP3    H1 9015   3.661   3.072   4.764
 3003TIP3    H2 9016   3.812   3.072   4.769
 3004TIP3   OH2 9017   2.888   0.278   4.962
 3004TIP3    H1 9018   2.832   0.219   4.911
 3004TIP3    H2 9019   2.976   0.240   4.953
 3005TIP3   OH2 9020   2.256   4.457   0.061
 3005TIP3    H1 9021   2.314   4.519   0.017
 3005TIP3    H2 9022   2.281   4.463   0.154
 3006TIP3   OH2 9023   4.625   0.792   0.978
 3006TIP3    H1 9024   4.684   0.746   1.038
 3006TIP3    H2 9025   4.540   0.790   1.022
 3007TIP3   OH2 9026   5.405   5.028   4.454
 3007TIP3    H1 9027   5.432   5.033   4.545
 3007TIP3    H2 9028   5.439   5.108   4.414
 3008TIP3   OH2 9029   1.820   2.552   2.801
 3008TIP3    H1 9030   1.742   2.602   2.825
 3008TIP3    H2 9031   1.789   2.490   2.735
 3009TIP3   OH2 9032   0.064   4.460   0.645
 3009TIP3    H1 9033   0.014   4.460   0.727
 3009TIP3    H2 9034   0.104   4.547   0.642
 3010TIP3   OH2 9035   5.642   5.493   3.207
 3010TIP3    H1 9036   5.698   5.525   3.137
 3010TIP3    H2 9037   5.597   5.571   3.240
 3011TIP3   OH2 9038   5.319   2.144   0.430
 3011TIP3    H1 9039   5.275   2.212   0.379
 3011TIP3    H2 9040   5.369   2.192   0.496
 3012TIP3   OH2 9041   0.512   5.610   3.872
 3012TIP3    H1 9042   0.525   5.622   3.778
 3012TIP3    H2 9043   0.432   5.558   3.879
 3013TIP3   OH2 9044   0.052   3.739   2.809
 3013TIP3    H1 9045   0.133   3.789   2.809
 3013TIP3    H2 9046  -0.006   3.788   2.867
 3014TIP3   OH2 9047   2.379   2.914   3.227
 3014TIP3    H1 9048   2.290   2.889   3.201
 3014TIP3    H2 9049   2.367   2.999   3.270
 3015TIP3   OH2 9050   1.767   0.943   0.981
 3015TIP3    H1 9051   1.753   0.880   0.910
 3015TIP3    H2 9052   1.688   0.936   1.034
 3016TIP3   OH2 9053   4.538   1.533   3.755
 3016TIP3    H1 9054   4.566   1.483   3.679
 3016TIP3    H2 9055   4.565   1.623   3.737
 3017TIP3   OH2 9056   2.341   3.434   0.178
 3017TIP3    H1 9057   2.403   3.502   0.150
 3017TIP3    H2 9058   2.361   3.421   0.271
 3018TIP3   OH2 9059   5.788   1.005   5.122
 3018TIP3    H1 9060   5.724   0.971   5.184
 3018TIP3    H2 9061   5.855   1.046   5.177
 3019TIP3   OH2 9062   1.789   2.390   0.444
 3019TIP3    H1 9063   1.842   2.382   0.365
 3019TIP3    H2 9064   1.754   2.479   0.440
 3020TIP3   OH2 9065   3.251   0.983   2.087
 3020TIP3    H1 9066   3.211   1.064   2.118
 3020TIP3    H2 9067   3.304   0.953   2.160
 3021TIP3   OH2 9068   1.102   0.098   1.764
 3021TIP3    H1 9069   1.169   0.118   1.698
 3021TIP3    H2 9070   1.034   0.052   1.716
 3022TIP3   OH2 9071   1.688   5.086   1.191
 3022TIP3    H1 9072   1.658   5.176   1.203
 3022TIP3    H2 9073   1.608   5.033   1.196
 3023TIP3   OH2 9074   1.000   1.071   0.116
 3023TIP3    H1 9075   1.075   1.013   0.125
 3023TIP3    H2 9076   1.031   1.156   0.149
 3024TIP3   OH2 9077   5.091   4.038   0.444
 3024TIP3    H1 9078   5.002   4.063   0.468
 3024TIP3    H2 9079   5.112   3.965   0.501
 3025TIP3   OH2 9080   0.711   2.755   2.926
 3025TIP3    H1 9081   0.682   2.842   2.954
 3025TIP3    H2 9082   0.693   2.698   3.001
 3026TIP3   OH2 9083   1.385   3.460   4.597
 3026TIP3    H1 9084   1.385   3.372   4.557
 3026TIP3    H2 9085   1.440   3.512   4.539
 3027TIP3   OH2 9086   2.740   1.320   0.757
 3027TIP3    H1 9087   2.778   1.335   0.844
 3027TIP3    H2 9088   2.661   1.269   0.774
 3028TIP3   OH2 9089   5.724   0.118   4.133
 3028TIP3    H1 9090   5.763   0.077   4.210
 3028TIP3    H2 9091   5.641   0.073   4.121
 3029TIP3   OH2 9092   1.654   1.631   3.680
 3029TIP3    H1 9093   1.627   1.635   3.772
 3029TIP3    H2 9094   1.583   1.582   3.637
 3030TIP3   OH2 9095   0.645   3.363   0.918
 3030TIP3    H1 9096   0.674   3.345   0.828
 3030TIP3    H2 9097   0.718   3.334   0.972
 3031TIP3   OH2 9098   0.994   4.734   3.815
 3031TIP3    H1 9099   0.927   4.771   3.757
 3031TIP3    H2 9100   0.986   4.639   3.804
 3032TIP3   OH2 9101   0.908   4.145   0.149
 3032TIP3    H1 9102   0.895   4.091   0.071
 3032TIP3    H2 9103   0.891   4.235   0.119
 3033TIP3   OH2 9104   0.166   4.144   1.938
 3033TIP3    H1 9105   0.194   4.074   1.880
 3033TIP3    H2 9106   0.167   4.223   1.883
 3034TIP3   OH2 9107   5.929   2.037   4.187
 3034TIP3    H1 9108   5.877   2.069   4.261
 3034TIP3    H2 9109   5.977   1.962   4.223
 3035TIP3   OH2 9110   2.286   2.074   0.015
 3035TIP3    H1 9111   2.261   2.144   0.075
 3035TIP3    H2 9112   2.204   2.048  -0.027
 3036TIP3   OH2 9113   2.023   4.331   1.060
 3036TIP3    H1 9114   2.000   4.365   0.973
 3036TIP3    H2 9115   1.953   4.269   1.080
 3037TIP3   OH2 9116   4.532   0.194   2.496
 3037TIP3    H1 9117   4.493   0.165   2.414
 3037TIP3    H2 9118   4.607   0.248   2.469
 3038TIP3   OH2 9119   2.877   5.032   2.874
 3038TIP3    H1 9120   2.865   5.127   2.877
 3038TIP3    H2 9121   2.968   5.018   2.898
 3039TIP3   OH2 9122   0.864   2.665   5.146
 3039TIP3    H1 9123   0.862   2.753   5.108
 3039TIP3    H2 9124   0.857   2.607   5.071
 3040TIP3   OH2 9125   1.460   3.388   0.962
 3040TIP3    H1 9126   1.369   3.359   0.960
 3040TIP3    H2 9127   1.457   3.475   1.002
 3041TIP3   OH2 9128   4.512   4.890   0.988
 3041TIP3    H1 9129   4.587   4.946   0.969
 3041TIP3    H2 9130   4.495   4.843   0.907
 3042TIP3   OH2 9131   5.976   3.574   1.328
 3042TIP3    H1 9132   5.934   3.657   1.352
 3042TIP3    H2 9133   5.954   3.561   1.236
 3043TIP3   OH2 9134   1.797   0.826   4.010
 3043TIP3    H1 9135   1.711   0.814   3.969
 3043TIP3    H2 9136   1.824   0.738   4.036
 3044TIP3   OH2 9137   2.708   4.001   2.299
 3044TIP3    H1 9138   2.800   4.027   2.300
 3044TIP3    H2 9139   2.704   3.927   2.361
 3045TIP3   OH2 9140   3.389   3.187   1.649
 3045TIP3    H1 9141   3.410   3.103   1.607
 3045TIP3    H2 9142   3.416   3.176   1.740
 3046TIP3   OH2 9143   0.282   3.218   0.391
 3046TIP3    H1 9144   0.273   3.297   0.445
 3046TIP3    H2 9145   0.259   3.247   0.303
 3047TIP3   OH2 9146   2.094   0.957   3.441
 3047TIP3    H1 9147   2.049   0.884   3.399
 3047TIP3    H2 9148   2.173   0.970   3.387
 3048TIP3   OH2 9149   5.850   4.963   1.272
 3048TIP3    H1 9150   5.945   4.954   1.268
 3048TIP3    H2 9151   5.820   4.942   1.183
 3049TIP3   OH2 9152   2.218   4.736   4.996
 3049TIP3    H1 9153   2.306   4.728   5.033
 3049TIP3    H2 9154   2.203   4.831   4.994
 3050TIP3   OH2 9155   5.229   5.093   2.628
 3050TIP3    H1 9156   5.144   5.099   2.670
 3050TIP3    H2 9157   5.210   5.067   2.538
 3051TIP3   OH2 9158   6.098   0.063   2.479
 3051TIP3    H1 9159   6.040   0.069   2.403
 3051TIP3    H2 9160   6.092  -0.029   2.506
 3052TIP3   OH2 9161   1.075   1.768   3.893
 3052TIP3    H1 9162   1.037   1.789   3.979
 3052TIP3    H2 9163   1.005   1.786   3.831
 3053TIP3   OH2 9164   0.629   1.361   1.379
 3053TIP3    H1 9165   0.639   1.454   1.399
 3053TIP3    H2 9166   0.686   1.316   1.441
 3054TIP3   OH2 9167   4.895   2.454   2.538
 3054TIP3    H1 9168   4.923   2.383   2.595
 3054TIP3    H2 9169   4.801   2.459   2.549
 3055TIP3   OH2 9170   1.461   2.654   0.790
 3055TIP3    H1 9171   1.385   2.676   0.736
 3055TIP3    H2 9172   1.461   2.559   0.794
 3056TIP3   OH2 9173   0.371   3.911   2.638
 3056TIP3    H1 9174   0.337   3.984   2.588
 3056TIP3    H2 9175   0.376   3.839   2.576
 3057TIP3   OH2 9176   1.690   2.422   4.260
 3057TIP3    H1 9177   1.730   2.464   4.336
 3057TIP3    H2 9178   1.688   2.490   4.193
 3058TIP3   OH2 9179   0.543   3.150   0.369
 3058TIP3    H1 9180   0.451   3.175   0.378
 3058TIP3    H2 9181   0.588   3.199   0.438
 3059TIP3   OH2 9182   0.182   1.104   0.723
 3059TIP3    H1 9183   0.212   1.042   0.789
 3059TIP3    H2 9184   0.125   1.165   0.770
 3060TIP3   OH2 9185   1.723   3.556   2.020
 3060TIP3    H1 9186   1.758   3.567   1.931
 3060TIP3    H2 9187   1.794   3.515   2.068
 3061TIP3   OH2 9188   1.832   0.856   0.495
 3061TIP3    H1 9189   1.900   0.886   0.434
 3061TIP3    H2 9190   1.810   0.933   0.547
 3062TIP3   OH2 9191   4.253   5.657   3.363
 3062TIP3    H1 9192   4.213   5.663   3.276
 3062TIP3    H2 9193   4.331   5.604   3.349
 3063TIP3   OH2 9194   0.704   2.196   2.544
 3063TIP3    H1 9195   0.766   2.140   2.496
 3063TIP3    H2 9196   0.758   2.267   2.578
 3064TIP3   OH2 9197   5.527   4.316   3.450
 3064TIP3    H1 9198   5.449   4.280   3.493
 3064TIP3    H2 9199   5.550   4.392   3.504
 3065TIP3   OH2 9200   5.765   2.433   2.788
 3065TIP3    H1 9201   5.759   2.348   2.744
 3065TIP3    H2 9202   5.820   2.415   2.865
 3066TIP3   OH2 9203   0.977   4.040   1.997
 3066TIP3    H1 9204   0.960   4.102   2.068
 3066TIP3    H2 9205   1.063   4.065   1.963
 3067TIP3   OH2 9206   4.876   2.144   1.201
 3067TIP3    H1 9207   4.855   2.051   1.209
 3067TIP3    H2 9208   4.819   2.187   1.266
 3068TIP3   OH2 9209   3.641   0.725   4.880
 3068TIP3    H1 9210   3.568   0.689   4.930
 3068TIP3    H2 9211   3.643   0.818   4.903
 3069TIP3   OH2 9212   4.829   4.016   1.748
 3069TIP3    H1 9213   4.862   3.965   1.674
 3069TIP3    H2 9214   4.880   3.986   1.823
 3070TIP3   OH2 9215   3.395   3.854   0.410
 3070TIP3    H1 9216   3.394   3.945   0.379
 3070TIP3    H2 9217   3.474   3.817   0.372
 3071TIP3   OH2 9218   0.384   1.841   1.354
 3071TIP3    H1 9219   0.391   1.909   1.286
 3071TIP3    H2 9220   0.306   1.864   1.403
 3072TIP3   OH2 9221   5.197   2.329   0.269
 3072TIP3    H1 9222   5.268   2.385   0.237
 3072TIP3    H2 9223   5.127   2.340   0.205
 3073TIP3   OH2 9224   6.233   3.071   4.919
 3073TIP3    H1 9225   6.184   3.135   4.867
 3073TIP3    H2 9226   6.324   3.096   4.908
 3074TIP3   OH2 9227   5.946   5.071   2.370
 3074TIP3    H1 9228   5.945   5.079   2.275
 3074TIP3    H2 9229   5.857   5.046   2.393
 3075TIP3   OH2 9230   3.844   3.683   4.029
 3075TIP3    H1 9231   3.891   3.766   4.037
 3075TIP3    H2 9232   3.846   3.646   4.118
 3076TIP3   OH2 9233   3.122   5.712   4.081
 3076TIP3    H1 9234   3.136   5.763   4.161
 3076TIP3    H2 9235   3.166   5.762   4.012
 3077TIP3   OH2 9236   4.194   2.235   1.482
 3077TIP3    H1 9237   4.186   2.266   1.572
 3077TIP3    H2 9238   4.196   2.315   1.429
 3078TIP3   OH2 9239   3.651   0.936   0.065
 3078TIP3    H1 9240   3.682   1.027   0.073
 3078TIP3    H2 9241   3.661   0.916  -0.028
 3079TIP3   OH2 9242   6.058   0.237   0.753
 3079TIP3    H1 9243   6.110   0.191   0.819
 3079TIP3    H2 9244   6.118   0.252   0.680
 3080TIP3   OH2 9245   4.225   2.387   1.220
 3080TIP3    H1 9246   4.253   2.438   1.296
 3080TIP3    H2 9247   4.131   2.402   1.214
 3081TIP3   OH2 9248   1.975   5.106   3.381
 3081TIP3    H1 9249   1.956   5.162   3.457
 3081TIP3    H2 9250   1.916   5.031   3.391
 3082TIP3   OH2 9251   2.416   2.501   4.315
 3082TIP3    H1 9252   2.419   2.596   4.302
 3082TIP3    H2 9253   2.382   2.490   4.404
 3083TIP3   OH2 9254   6.253   3.649   0.461
 3083TIP3    H1 9255   6.295   3.579   0.411
 3083TIP3    H2 9256   6.294   3.646   0.547
 3084TIP3   OH2 9257   5.935   0.491   0.679
 3084TIP3    H1 9258   5.952   0.401   0.707
 3084TIP3    H2 9259   5.863   0.483   0.616
 3085TIP3   OH2 9260   1.416   5.686   1.577
 3085TIP3    H1 9261   1.328   5.655   1.555
 3085TIP3    H2 9262   1.417   5.777   1.548
 3086TIP3   OH2 9263   0.563   1.973   4.466
 3086TIP3    H1 9264   0.651   2.003   4.442
 3086TIP3    H2 9265   0.550   2.006   4.555
 3087TIP3   OH2 9266   4.971   1.281   4.629
 3087TIP3    H1 9267   4.927   1.365   4.621
 3087TIP3    H2 9268   4.940   1.230   4.554
 3088TIP3   OH2 9269   0.974   0.511   4.568
 3088TIP3    H1 9270   1.007   0.585   4.619
 3088TIP3    H2 9271   0.941   0.551   4.487
 3089TIP3   OH2 9272   0.297   2.581   1.376
 3089TIP3    H1 9273   0.302   2.666   1.420
 3089TIP3    H2 9274   0.296   2.601   1.283
 3090TIP3   OH2 9275   3.080   3.348   3.806
 3090TIP3    H1 9276   3.036   3.346   3.891
 3090TIP3    H2 9277   3.013   3.319   3.744
 3091TIP3   OH2 9278   3.837   1.354   3.353
 3091TIP3    H1 9279   3.783   1.338   3.275
 3091TIP3    H2 9280   3.808   1.290   3.417
 3092TIP3   OH2 9281   0.815   3.538   1.182
 3092TIP3    H1 9282   0.888   3.542   1.244
 3092TIP3    H2 9283   0.857   3.525   1.097
 3093TIP3   OH2 9284   1.702   4.599   4.831
 3093TIP3    H1 9285   1.619   4.569   4.794
 3093TIP3    H2 9286   1.759   4.522   4.828
 3094TIP3   OH2 9287   6.323   5.927   1.980
 3094TIP3    H1 9288   6.258   5.899   1.916
 3094TIP3    H2 9289   6.394   5.863   1.973
 3095TIP3   OH2 9290   5.234   0.996   4.023
 3095TIP3    H1 9291   5.326   0.973   4.036
 3095TIP3    H2 9292   5.186   0.930   4.073
 3096TIP3   OH2 9293   1.872   1.260   2.180
 3096TIP3    H1 9294   1.965   1.258   2.156
 3096TIP3    H2 9295   1.857   1.175   2.222
 3097TIP3   OH2 9296   2.187   4.898   0.051
 3097TIP3    H1 9297   2.234   4.814   0.050
 3097TIP3    H2 9298   2.196   4.931  -0.038
 3098TIP3   OH2 9299   4.618   3.781   2.058
 3098TIP3    H1 9300   4.529   3.747   2.051
 3098TIP3    H2 9301   4.640   3.775   2.151
 3099TIP3   OH2 9302   0.357   1.389   4.388
 3099TIP3    H1 9303   0.302   1.446   4.335
 3099TIP3    H2 9304   0.392   1.325   4.326
 3100TIP3   OH2 9305   0.960   1.144   0.504
 3100TIP3    H1 9306   1.009   1.094   0.569
 3100TIP3    H2 9307   1.022   1.210   0.473
 3101TIP3   OH2 9308   4.747   0.931   2.255
 3101TIP3    H1 9309   4.739   1.010   2.307
 3101TIP3    H2 9310   4.837   0.902   2.268
 3102TIP3   OH2 9311   1.420   1.425   0.790
 3102TIP3    H1 9312   1.506   1.445   0.752
 3102TIP3    H2 9313   1.373   1.509   0.788
 3103TIP3   OH2 9314   5.839   0.441   4.197
 3103TIP3    H1 9315   5.745   0.424   4.206
 3103TIP3    H2 9316   5.853   0.452   4.103
 3104TIP3   OH2 9317   1.676   1.426   0.310
 3104TIP3    H1 9318   1.766   1.411   0.340
 3104TIP3    H2 9319   1.671   1.520   0.295
 3105TIP3   OH2 9320   3.382   5.305   0.170
 3105TIP3    H1 9321   3.322   5.262   0.109
 3105TIP3    H2 9322   3.326   5.340   0.238
 3106TIP3   OH2 9323   5.099   2.787   1.636
 3106TIP3    H1 9324   5.157   2.859   1.612
 3106TIP3    H2 9325   5.102   2.728   1.560
 3107TIP3   OH2 9326   5.668   5.737   2.945
 3107TIP3    H1 9327   5.613   5.666   2.912
 3107TIP3    H2 9328   5.615   5.778   3.013
 3108TIP3   OH2 9329   5.963   1.980   1.741
 3108TIP3    H1 9330   6.050   2.018   1.753
 3108TIP3    H2 9331   5.932   2.017   1.659
 3109TIP3   OH2 9332   5.933   3.535   2.594
 3109TIP3    H1 9333   6.010   3.529   2.538
 3109TIP3    H2 9334   5.946   3.616   2.644
 3110TIP3   OH2 9335   1.796   0.091   1.826
 3110TIP3    H1 9336   1.853   0.015   1.815
 3110TIP3    H2 9337   1.711   0.054   1.848
 3111TIP3   OH2 9338   4.803   1.711   3.456
 3111TIP3    H1 9339   4.826   1.803   3.443
 3111TIP3    H2 9340   4.711   1.705   3.430
 3112TIP3   OH2 9341   3.229   4.014   2.752
 3112TIP3    H1 9342   3.143   3.974   2.768
 3112TIP3    H2 9343   3.289   3.967   2.810
 3113TIP3   OH2 9344   4.995   5.037   3.661
 3113TIP3    H1 9345   5.004   5.031   3.565
 3113TIP3    H2 9346   4.989   4.946   3.690
 3114TIP3   OH2 9347   1.653   0.197   2.836
 3114TIP3    H1 9348   1.638   0.225   2.926
 3114TIP3    H2 9349   1.659   0.278   2.785
 3115TIP3   OH2 9350   3.024   2.689   3.559
 3115TIP3    H1 9351   2.977   2.746   3.620
 3115TIP3    H2 9352   3.113   2.686   3.592
 3116TIP3   OH2 9353   4.338   4.110   3.696
 3116TIP3    H1 9354   4.377   4.196   3.713
 3116TIP3    H2 9355   4.413   4.051   3.688
 3117TIP3   OH2 9356   5.750   2.124   0.447
 3117TIP3    H1 9357   5.687   2.112   0.518
 3117TIP3    H2 9358   5.711   2.078   0.372
 3118TIP3   OH2 9359   4.359   3.706   0.340
 3118TIP3    H1 9360   4.287   3.644   0.348
 3118TIP3    H2 9361   4.437   3.654   0.356
 3119TIP3   OH2 9362   5.670   3.104   2.294
 3119TIP3    H1 9363   5.575   3.094   2.299
 3119TIP3    H2 9364   5.689   3.177   2.354
 3120TIP3   OH2 9365   1.830   2.531   4.486
 3120TIP3    H1 9366   1.813   2.605   4.546
 3120TIP3    H2 9367   1.913   2.553   4.444
 3121TIP3   OH2 9368   2.505   3.110   2.689
 3121TIP3    H1 9369   2.553   3.186   2.723
 3121TIP3    H2 9370   2.573   3.051   2.658
 3122TIP3   OH2 9371   5.156   1.931   1.617
 3122TIP3    H1 9372   5.159   2.014   1.569
 3122TIP3    H2 9373   5.064   1.922   1.643
 3123TIP3   OH2 9374   4.785   3.275   1.208
 3123TIP3    H1 9375   4.731   3.344   1.169
 3123TIP3    H2 9376   4.814   3.311   1.292
 3124TIP3   OH2 9377   2.595   2.025   4.239
 3124TIP3    H1 9378   2.630   2.072   4.163
 3124TIP3    H2 9379   2.669   2.016   4.298
 3125TIP3   OH2 9380   5.344   1.127   3.160
 3125TIP3    H1 9381   5.347   1.130   3.256
 3125TIP3    H2 9382   5.285   1.199   3.136
 3126TIP3   OH2 9383   1.213   5.621   2.154
 3126TIP3    H1 9384   1.308   5.620   2.137
 3126TIP3    H2 9385   1.206   5.608   2.248
 3127TIP3   OH2 9386   4.209   2.096   1.815
 3127TIP3    H1 9387   4.303   2.097   1.800
 3127TIP3    H2 9388   4.200   2.105   1.910
 3128TIP3   OH2 9389   3.120   1.010   2.364
 3128TIP3    H1 9390   3.145   1.096   2.329
 3128TIP3    H2 9391   3.183   0.994   2.434
 3129TIP3   OH2 9392   4.560   1.129   1.730
 3129TIP3    H1 9393   4.486   1.125   1.669
 3129TIP3    H2 9394   4.550   1.053   1.786
 3130TIP3   OH2 9395   1.181   4.818   2.714
 3130TIP3    H1 9396   1.241   4.752   2.751
 3130TIP3    H2 9397   1.096   4.796   2.752
 3131TIP3   OH2 9398   4.325   3.025   4.782
 3131TIP3    H1 9399   4.256   3.089   4.766
 3131TIP3    H2 9400   4.291   2.944   4.744
 3132TIP3   OH2 9401   3.415   4.497   2.684
 3132TIP3    H1 9402   3.469   4.516   2.608
 3132TIP3    H2 9403   3.391   4.405   2.675
 3133TIP3   OH2 9404   1.493   1.086   5.026
 3133TIP3    H1 9405   1.466   1.011   4.973
 3133TIP3    H2 9406   1.425   1.152   5.011
 3134TIP3   OH2 9407   3.934   2.153   0.975
 3134TIP3    H1 9408   3.965   2.064   0.987
 3134TIP3    H2 9409   4.013   2.206   0.969
 3135TIP3   OH2 9410   0.698   0.024   2.457
 3135TIP3    H1 9411   0.658  -0.016   2.534
 3135TIP3    H2 9412   0.623   0.048   2.401
 3136TIP3   OH2 9413   0.173   3.968   3.183
 3136TIP3    H1 9414   0.196   3.896   3.124
 3136TIP3    H2 9415   0.178   4.046   3.128
 3137TIP3   OH2 9416   2.635   4.395   4.232
 3137TIP3    H1 9417   2.700   4.371   4.166
 3137TIP3    H2 9418   2.589   4.471   4.195
 3138TIP3   OH2 9419   4.630   2.191   3.395
 3138TIP3    H1 9420   4.581   2.158   3.319
 3138TIP3    H2 9421   4.574   2.261   3.430
 3139TIP3   OH2 9422   3.669   2.833   1.293
 3139TIP3    H1 9423   3.727   2.770   1.337
 3139TIP3    H2 9424   3.728   2.899   1.257
 3140TIP3   OH2 9425   4.085   1.377   1.438
 3140TIP3    H1 9426   4.067   1.454   1.383
 3140TIP3    H2 9427   4.001   1.333   1.446
 3141TIP3   OH2 9428   1.404   2.325   1.463
 3141TIP3    H1 9429   1.319   2.340   1.421
 3141TIP3    H2 9430   1.439   2.413   1.479
 3142TIP3   OH2 9431   4.248   5.371   3.558
 3142TIP3    H1 9432   4.191   5.348   3.484
 3142TIP3    H2 9433   4.288   5.289   3.584
 3143TIP3   OH2 9434   0.861   2.519   0.415
 3143TIP3    H1 9435   0.907   2.602   0.424
 3143TIP3    H2 9436   0.773   2.544   0.386
 3144TIP3   OH2 9437   5.336   5.055   4.160
 3144TIP3    H1 9438   5.250   5.050   4.203
 3144TIP3    H2 9439   5.360   4.964   4.143
 3145TIP3   OH2 9440   4.260   5.488   1.761
 3145TIP3    H1 9441   4.183   5.439   1.733
 3145TIP3    H2 9442   4.263   5.476   1.856
 3146TIP3   OH2 9443   2.304   3.713   1.116
 3146TIP3    H1 9444   2.389   3.736   1.154
 3146TIP3    H2 9445   2.314   3.729   1.022
 3147TIP3   OH2 9446   4.280   1.783   3.616
 3147TIP3    H1 9447   4.250   1.703   3.659
 3147TIP3    H2 9448   4.206   1.811   3.561
 3148TIP3   OH2 9449   3.141   3.597   5.021
 3148TIP3    H1 9450   3.099   3.516   4.992
 3148TIP3    H2 9451   3.089   3.625   5.096
 3149TIP3   OH2 9452   1.773   4.248   4.003
 3149TIP3    H1 9453   1.678   4.243   4.011
 3149TIP3    H2 9454   1.799   4.162   3.971
 3150TIP3   OH2 9455   0.387   1.797   4.384
 3150TIP3    H1 9456   0.378   1.752   4.468
 3150TIP3    H2 9457   0.442   1.873   4.404
 3151TIP3   OH2 9458   0.724   2.780   3.876
 3151TIP3    H1 9459   0.809   2.793   3.919
 3151TIP3    H2 9460   0.677   2.720   3.935
 3152TIP3   OH2 9461   5.671   4.641   4.261
 3152TIP3    H1 9462   5.731   4.629   4.335
 3152TIP3    H2 9463   5.647   4.733   4.264
 3153TIP3   OH2 9464   5.157   3.521   3.592
 3153TIP3    H1 9465   5.238   3.541   3.638
 3153TIP3    H2 9466   5.185   3.503   3.502
 3154TIP3   OH2 9467   4.481   4.350   4.737
 3154TIP3    H1 9468   4.535   4.360   4.815
 3154TIP3    H2 9469   4.485   4.435   4.694
 3155TIP3   OH2 9470   6.048   5.974   4.843
 3155TIP3    H1 9471   6.019   6.010   4.759
 3155TIP3    H2 9472   6.006   5.888   4.848
 3156TIP3   OH2 9473   5.580   1.635   3.507
 3156TIP3    H1 9474   5.494   1.671   3.528
 3156TIP3    H2 9475   5.642   1.705   3.529
 3157TIP3   OH2 9476   1.773   2.170   4.093
 3157TIP3    H1 9477   1.868   2.185   4.088
 3157TIP3    H2 9478   1.740   2.246   4.141
 3158TIP3   OH2 9479   5.226   5.677   2.291
 3158TIP3    H1 9480   5.257   5.763   2.261
 3158TIP3    H2 9481   5.186   5.694   2.376
 3159TIP3   OH2 9482   0.816   2.511   4.921
 3159TIP3    H1 9483   0.860   2.558   4.850
 3159TIP3    H2 9484   0.845   2.420   4.911
 3160TIP3   OH2 9485   4.949   0.397   4.889
 3160TIP3    H1 9486   5.031   0.347   4.881
 3160TIP3    H2 9487   4.962   0.451   4.967
 3161TIP3   OH2 9488   5.157   3.196   2.133
 3161TIP3    H1 9489   5.125   3.240   2.054
 3161TIP3    H2 9490   5.124   3.107   2.126
 3162TIP3   OH2 9491   0.344   1.466   1.820
 3162TIP3    H1 9492   0.392   1.485   1.901
 3162TIP3    H2 9493   0.377   1.529   1.756
 3163TIP3   OH2 9494   5.021   0.229   1.455
 3163TIP3    H1 9495   4.945   0.286   1.437
 3163TIP3    H2 9496   5.048   0.199   1.369
 3164TIP3   OH2 9497   1.376   2.714   1.105
 3164TIP3    H1 9498   1.429   2.781   1.062
 3164TIP3    H2 9499   1.433   2.638   1.113
 3165TIP3   OH2 9500   1.859   1.504   1.576
 3165TIP3    H1 9501   1.889   1.431   1.631
 3165TIP3    H2 9502   1.783   1.538   1.622
 3166TIP3   OH2 9503   5.236   0.447   3.391
 3166TIP3    H1 9504   5.246   0.528   3.441
 3166TIP3    H2 9505   5.291   0.383   3.436
 3167TIP3   OH2 9506   3.218   1.380   2.001
 3167TIP3    H1 9507   3.289   1.430   2.040
 3167TIP3    H2 9508   3.246   1.366   1.910
 3168TIP3   OH2 9509   2.384   0.538   4.244
 3168TIP3    H1 9510   2.319   0.564   4.309
 3168TIP3    H2 9511   2.441   0.615   4.235
 3169TIP3   OH2 9512   1.347   4.819   5.220
 3169TIP3    H1 9513   1.260   4.806   5.182
 3169TIP3    H2 9514   1.403   4.755   5.175
 3170TIP3   OH2 9515   2.507   5.706   2.352
 3170TIP3    H1 9516   2.503   5.716   2.257
 3170TIP3    H2 9517   2.568   5.775   2.381
 3171TIP3   OH2 9518   5.300   0.915   2.990
 3171TIP3    H1 9519   5.369   0.904   2.924
 3171TIP3    H2 9520   5.337   0.979   3.052
 3172TIP3   OH2 9521   1.059   4.854   4.520
 3172TIP3    H1 9522   1.080   4.840   4.428
 3172TIP3    H2 9523   0.979   4.907   4.519
 3173TIP3   OH2 9524   3.347   2.897   0.711
 3173TIP3    H1 9525   3.432   2.940   0.710
 3173TIP3    H2 9526   3.295   2.949   0.772
 3174TIP3   OH2 9527   0.438   2.143   1.559
 3174TIP3    H1 9528   0.465   2.086   1.632
 3174TIP3    H2 9529   0.343   2.144   1.564
 3175TIP3   OH2 9530   1.690   3.413   3.982
 3175TIP3    H1 9531   1.743   3.445   3.909
 3175TIP3    H2 9532   1.705   3.475   4.053
 3176TIP3   OH2 9533   0.493   0.965   2.376
 3176TIP3    H1 9534   0.575   0.983   2.424
 3176TIP3    H2 9535   0.433   0.934   2.443
 3177TIP3   OH2 9536   0.675   2.005   4.903
 3177TIP3    H1 9537   0.668   1.926   4.849
 3177TIP3    H2 9538   0.727   1.978   4.979
 3178TIP3   OH2 9539   6.077   0.226   3.192
 3178TIP3    H1 9540   6.082   0.254   3.100
 3178TIP3    H2 9541   5.988   0.192   3.201
 3179TIP3   OH2 9542   6.354   1.665   0.243
 3179TIP3    H1 9543   6.271   1.705   0.269
 3179TIP3    H2 9544   6.331   1.607   0.170
 3180TIP3   OH2 9545   1.184   2.220   2.866
 3180TIP3    H1 9546   1.101   2.175   2.851
 3180TIP3    H2 9547   1.243   2.186   2.799
 3181TIP3   OH2 9548   0.438   3.453   3.261
 3181TIP3    H1 9549   0.356   3.404   3.262
 3181TIP3    H2 9550   0.504   3.391   3.290
 3182TIP3   OH2 9551   5.879   4.662   4.493
 3182TIP3    H1 9552   5.864   4.676   4.586
 3182TIP3    H2 9553   5.934   4.583   4.489
 3183TIP3   OH2 9554   1.815   5.180   4.276
 3183TIP3    H1 9555   1.907   5.155   4.269
 3183TIP3    H2 9556   1.784   5.139   4.357
 3184TIP3   OH2 9557   0.607  -0.001   0.474
 3184TIP3    H1 9558   0.573   0.088   0.460
 3184TIP3    H2 9559   0.529  -0.056   0.483
 3185TIP3   OH2 9560   3.840   2.901   0.461
 3185TIP3    H1 9561   3.936   2.898   0.457
 3185TIP3    H2 9562   3.818   2.856   0.542
 3186TIP3   OH2 9563   5.848   4.129   1.470
 3186TIP3    H1 9564   5.766   4.128   1.519
 3186TIP3    H2 9565   5.826   4.092   1.385
 3187TIP3   OH2 9566   0.775   0.261   1.630
 3187TIP3    H1 9567   0.738   0.297   1.549
 3187TIP3    H2 9568   0.833   0.191   1.600
 3188TIP3   OH2 9569   5.263   2.296   1.598
 3188TIP3    H1 9570   5.271   2.263   1.688
 3188TIP3    H2 9571   5.316   2.237   1.545
 3189TIP3   OH2 9572   1.805   0.822   4.963
 3189TIP3    H1 9573   1.726   0.788   5.005
 3189TIP3    H2 9574   1.781   0.910   4.935
 3190TIP3   OH2 9575   5.434   1.155   2.722
 3190TIP3    H1 9576   5.436   1.197   2.809
 3190TIP3    H2 9577   5.431   1.228   2.661
 3191TIP3   OH2 9578   0.810   4.898   2.224
 3191TIP3    H1 9579   0.870   4.909   2.298
 3191TIP3    H2 9580   0.778   4.808   2.232
 3192TIP3   OH2 9581   4.692   1.285   3.033
 3192TIP3    H1 9582   4.754   1.246   2.972
 3192TIP3    H2 9583   4.743   1.299   3.113
 3193TIP3   OH2 9584   6.003   3.987   3.637
 3193TIP3    H1 9585   5.911   3.964   3.650
 3193TIP3    H2 9586   6.004   4.082   3.631
 3194TIP3   OH2 9587   3.705   1.119   3.443
 3194TIP3    H1 9588   3.759   1.048   3.408
 3194TIP3    H2 9589   3.728   1.124   3.535
 3195TIP3   OH2 9590   0.215   3.319   3.278
 3195TIP3    H1 9591   0.181   3.289   3.362
 3195TIP3    H2 9592   0.137   3.339   3.226
 3196TIP3   OH2 9593   5.859   4.757   4.892
 3196TIP3    H1 9594   5.925   4.806   4.941
 3196TIP3    H2 9595   5.816   4.822   4.837
 3197TIP3   OH2 9596   1.562   1.692   2.200
 3197TIP3    H1 9597   1.643   1.656   2.163
 3197TIP3    H2 9598   1.591   1.745   2.274
 3198TIP3   OH2 9599   4.380   3.757   3.936
 3198TIP3    H1 9600   4.342   3.818   3.998
 3198TIP3    H2 9601   4.446   3.808   3.888
 3199TIP3   OH2 9602   6.199   2.789   2.184
 3199TIP3    H1 9603   6.230   2.818   2.098
 3199TIP3    H2 9604   6.171   2.698   2.169
 3200TIP3   OH2 9605   3.555   1.205   0.407
 3200TIP3    H1 9606   3.484   1.144   0.428
 3200TIP3    H2 9607   3.635   1.158   0.430
 3201TIP3   OH2 9608   1.537   5.060   4.126
 3201TIP3    H1 9609   1.580   5.145   4.115
 3201TIP3    H2 9610   1.556   5.014   4.044
 3202TIP3   OH2 9611   0.567   2.878   4.620
 3202TIP3    H1 9612   0.558   2.947   4.555
 3202TIP3    H2 9613   0.612   2.808   4.575
 3203TIP3   OH2 9614   4.128   5.777   1.671
 3203TIP3    H1 9615   4.197   5.796   1.735
 3203TIP3    H2 9616   4.171   5.720   1.607
 3204TIP3   OH2 9617   4.733   1.233   0.561
 3204TIP3    H1 9618   4.744   1.182   0.481
 3204TIP3    H2 9619   4.642   1.217   0.588
 3205TIP3   OH2 9620   0.545   2.713   5.149
 3205TIP3    H1 9621   0.615   2.662   5.109
 3205TIP3    H2 9622   0.590   2.787   5.191
 3206TIP3   OH2 9623   5.625   4.585   3.044
 3206TIP3    H1 9624   5.609   4.678   3.061
 3206TIP3    H2 9625   5.720   4.579   3.032
 3207TIP3   OH2 9626   2.573   4.997   2.973
 3207TIP3    H1 9627   2.667   5.001   2.959
 3207TIP3    H2 9628   2.535   5.049   2.902
 3208TIP3   OH2 9629   5.309   2.865   0.913
 3208TIP3    H1 9630   5.245   2.870   0.985
 3208TIP3    H2 9631   5.264   2.817   0.844
 3209TIP3   OH2 9632   5.620   2.746   1.271
 3209TIP3    H1 9633   5.656   2.728   1.184
 3209TIP3    H2 9634   5.573   2.830   1.260
 3210TIP3   OH2 9635   6.119   0.586   2.551
 3210TIP3    H1 9636   6.131   0.577   2.646
 3210TIP3    H2 9637   6.083   0.502   2.524
 3211TIP3   OH2 9638   1.010   5.183   2.965
 3211TIP3    H1 9639   1.056   5.253   3.011
 3211TIP3    H2 9640   0.920   5.213   2.959
 3212TIP3   OH2 9641   4.253   2.681   1.733
 3212TIP3    H1 9642   4.276   2.630   1.811
 3212TIP3    H2 9643   4.334   2.725   1.708
 3213TIP3   OH2 9644   0.721   5.338   3.423
 3213TIP3    H1 9645   0.798   5.393   3.432
 3213TIP3    H2 9646   0.703   5.306   3.512
 3214TIP3   OH2 9647   1.516   4.103   0.566
 3214TIP3    H1 9648   1.437   4.156   0.575
 3214TIP3    H2 9649   1.496   4.023   0.615
 3215TIP3   OH2 9650   1.975   5.564   3.468
 3215TIP3    H1 9651   1.949   5.485   3.517
 3215TIP3    H2 9652   1.938   5.636   3.519
 3216TIP3   OH2 9653   2.702   5.529   0.447
 3216TIP3    H1 9654   2.771   5.549   0.384
 3216TIP3    H2 9655   2.735   5.453   0.496
 3217TIP3   OH2 9656   1.358   3.786   4.206
 3217TIP3    H1 9657   1.415   3.862   4.200
 3217TIP3    H2 9658   1.401   3.719   4.153
 3218TIP3   OH2 9659   0.708   4.601   0.602
 3218TIP3    H1 9660   0.751   4.559   0.528
 3218TIP3    H2 9661   0.617   4.611   0.574
 3219TIP3   OH2 9662   2.894   1.318   2.538
 3219TIP3    H1 9663   2.966   1.373   2.509
 3219TIP3    H2 9664   2.936   1.254   2.596
 3220TIP3   OH2 9665   0.083   1.712   0.629
 3220TIP3    H1 9666   0.138   1.769   0.576
 3220TIP3    H2 9667   0.119   1.720   0.718
 3221TIP3   OH2 9668   3.485   0.337   4.141
 3221TIP3    H1 9669   3.449   0.349   4.229
 3221TIP3    H2 9670   3.422   0.380   4.083
 3222TIP3   OH2 9671   4.640   4.636   3.057
 3222TIP3    H1 9672   4.721   4.687   3.069
 3222TIP3    H2 9673   4.577   4.700   3.023
 3223TIP3   OH2 9674   4.694   2.616   0.083
 3223TIP3    H1 9675   4.684   2.586  -0.007
 3223TIP3    H2 9676   4.718   2.537   0.132
 3224TIP3   OH2 9677   2.922   2.912   0.484
 3224TIP3    H1 9678   2.930   2.817   0.483
 3224TIP3    H2 9679   2.926   2.937   0.576
 3225TIP3   OH2 9680   0.502   4.578   2.481
 3225TIP3    H1 9681   0.597   4.586   2.473
 3225TIP3    H2 9682   0.469   4.665   2.460
 3226TIP3   OH2 9683   5.548   1.139   2.080
 3226TIP3    H1 9684   5.474   1.090   2.117
 3226TIP3    H2 9685   5.559   1.102   1.992
 3227TIP3   OH2 9686   1.593   4.981   0.024
 3227TIP3    H1 9687   1.552   4.938  -0.051
 3227TIP3    H2 9688   1.592   4.914   0.092
 3228TIP3   OH2 9689   1.549   5.173   3.275
 3228TIP3    H1 9690   1.494   5.229   3.221
 3228TIP3    H2 9691   1.501   5.091   3.283
 3229TIP3   OH2 9692   1.922   1.396   4.827
 3229TIP3    H1 9693   1.936   1.424   4.736
 3229TIP3    H2 9694   2.004   1.417   4.871
 3230TIP3   OH2 9695   4.307   4.276   0.755
 3230TIP3    H1 9696   4.399   4.264   0.732
 3230TIP3    H2 9697   4.276   4.189   0.780
 3231TIP3   OH2 9698   0.596   2.976   2.606
 3231TIP3    H1 9699   0.650   2.913   2.558
 3231TIP3    H2 9700   0.657   3.018   2.667
 3232TIP3   OH2 9701   0.684   5.350   0.801
 3232TIP3    H1 9702   0.751   5.284   0.823
 3232TIP3    H2 9703   0.732   5.417   0.753
 3233TIP3   OH2 9704   0.687   4.678   3.972
 3233TIP3    H1 9705   0.667   4.605   4.030
 3233TIP3    H2 9706   0.755   4.727   4.018
 3234TIP3   OH2 9707   5.014   1.823   2.214
 3234TIP3    H1 9708   5.041   1.838   2.124
 3234TIP3    H2 9709   4.942   1.886   2.228
 3235TIP3   OH2 9710   2.988   2.577   5.067
 3235TIP3    H1 9711   2.894   2.578   5.085
 3235TIP3    H2 9712   2.996   2.537   4.981
 3236TIP3   OH2 9713   5.911   4.640   3.012
 3236TIP3    H1 9714   5.877   4.724   2.981
 3236TIP3    H2 9715   5.956   4.661   3.094
 3237TIP3   OH2 9716   4.652   1.313   3.587
 3237TIP3    H1 9717   4.694   1.305   3.501
 3237TIP3    H2 9718   4.705   1.258   3.645
 3238TIP3   OH2 9719   5.231   2.999   0.319
 3238TIP3    H1 9720   5.228   2.961   0.231
 3238TIP3    H2 9721   5.161   2.954   0.366
 3239TIP3   OH2 9722   2.518   0.521   5.068
 3239TIP3    H1 9723   2.550   0.599   5.113
 3239TIP3    H2 9724   2.588   0.456   5.080
 3240TIP3   OH2 9725   3.503   5.566   1.235
 3240TIP3    H1 9726   3.434   5.606   1.182
 3240TIP3    H2 9727   3.457   5.511   1.298
 3241TIP3   OH2 9728   1.548   3.492   4.848
 3241TIP3    H1 9729   1.469   3.443   4.829
 3241TIP3    H2 9730   1.520   3.584   4.850
 3242TIP3   OH2 9731   0.223   0.897   2.988
 3242TIP3    H1 9732   0.202   0.963   2.922
 3242TIP3    H2 9733   0.287   0.940   3.045
 3243TIP3   OH2 9734   3.293   5.731   3.347
 3243TIP3    H1 9735   3.268   5.807   3.399
 3243TIP3    H2 9736   3.389   5.736   3.341
 3244TIP3   OH2 9737   0.510   4.118   2.871
 3244TIP3    H1 9738   0.475   4.042   2.825
 3244TIP3    H2 9739   0.449   4.132   2.944
 3245TIP3   OH2 9740   4.111   3.572   1.753
 3245TIP3    H1 9741   4.123   3.584   1.847
 3245TIP3    H2 9742   4.055   3.495   1.746
 3246TIP3   OH2 9743   0.218   0.164   0.283
 3246TIP3    H1 9744   0.295   0.113   0.258
 3246TIP3    H2 9745   0.211   0.152   0.378
 3247TIP3   OH2 9746   4.453   1.077   1.053
 3247TIP3    H1 9747   4.525   1.040   1.104
 3247TIP3    H2 9748   4.399   1.001   1.030
 3248TIP3   OH2 9749   1.310   4.801   4.851
 3248TIP3    H1 9750   1.382   4.772   4.795
 3248TIP3    H2 9751   1.245   4.731   4.846
 3249TIP3   OH2 9752   3.613   4.738   3.653
 3249TIP3    H1 9753   3.685   4.799   3.640
 3249TIP3    H2 9754   3.652   4.652   3.640
 3250TIP3   OH2 9755   2.599   5.715   1.659
 3250TIP3    H1 9756   2.689   5.748   1.666
 3250TIP3    H2 9757   2.546   5.794   1.655
 3251TIP3   OH2 9758   0.592   2.363   2.356
 3251TIP3    H1 9759   0.614   2.311   2.434
 3251TIP3    H2 9760   0.536   2.433   2.389
 3252TIP3   OH2 9761   5.123   3.171   0.535
 3252TIP3    H1 9762   5.144   3.138   0.448
 3252TIP3    H2 9763   5.068   3.247   0.520
 3253TIP3   OH2 9764   2.182   3.785   0.262
 3253TIP3    H1 9765   2.253   3.749   0.314
 3253TIP3    H2 9766   2.107   3.728   0.280
 3254TIP3   OH2 9767   3.696   0.201   4.259
 3254TIP3    H1 9768   3.623   0.253   4.226
 3254TIP3    H2 9769   3.760   0.266   4.290
 3255TIP3   OH2 9770   0.246   1.998   4.877
 3255TIP3    H1 9771   0.263   1.911   4.912
 3255TIP3    H2 9772   0.159   2.021   4.908
 3256TIP3   OH2 9773   1.601   0.561   1.261
 3256TIP3    H1 9774   1.642   0.641   1.292
 3256TIP3    H2 9775   1.541   0.535   1.331
 3257TIP3   OH2 9776   3.575   0.834   4.234
 3257TIP3    H1 9777   3.506   0.899   4.221
 3257TIP3    H2 9778   3.619   0.861   4.314
 3258TIP3   OH2 9779   3.091   1.304   3.264
 3258TIP3    H1 9780   3.060   1.306   3.174
 3258TIP3    H2 9781   3.130   1.217   3.274
 3259TIP3   OH2 9782   2.404   3.698   0.412
 3259TIP3    H1 9783   2.488   3.733   0.384
 3259TIP3    H2 9784   2.378   3.753   0.486
 3260TIP3   OH2 9785   5.795   0.549   4.484
 3260TIP3    H1 9786   5.717   0.605   4.491
 3260TIP3    H2 9787   5.865   0.609   4.456
 3261TIP3   OH2 9788   1.592   0.618   4.322
 3261TIP3    H1 9789   1.661   0.564   4.284
 3261TIP3    H2 9790   1.635   0.666   4.393
 3262TIP3   OH2 9791   1.527   2.690   4.539
 3262TIP3    H1 9792   1.590   2.732   4.480
 3262TIP3    H2 9793   1.442   2.721   4.509
 3263TIP3   OH2 9794   5.701   5.080   3.154
 3263TIP3    H1 9795   5.788   5.088   3.194
 3263TIP3    H2 9796   5.647   5.142   3.204
 3264TIP3   OH2 9797   3.330   4.996   2.407
 3264TIP3    H1 9798   3.238   5.003   2.434
 3264TIP3    H2 9799   3.331   5.031   2.318
 3265TIP3   OH2 9800   5.973   3.786   2.025
 3265TIP3    H1 9801   5.963   3.753   1.935
 3265TIP3    H2 9802   6.047   3.847   2.020
 3266TIP3   OH2 9803   0.662   3.326   2.771
 3266TIP3    H1 9804   0.589   3.285   2.725
 3266TIP3    H2 9805   0.738   3.273   2.749
 3267TIP3   OH2 9806   0.006   3.535   5.161
 3267TIP3    H1 9807   0.067   3.497   5.223
 3267TIP3    H2 9808   0.017   3.630   5.172
 3268TIP3   OH2 9809   2.369   5.530   0.478
 3268TIP3    H1 9810   2.430   5.604   0.481
 3268TIP3    H2 9811   2.330   5.535   0.390
 3269TIP3   OH2 9812   4.535   1.553   2.925
 3269TIP3    H1 9813   4.592   1.489   2.967
 3269TIP3    H2 9814   4.501   1.508   2.848
 3270TIP3   OH2 9815   3.212   1.762   4.818
 3270TIP3    H1 9816   3.246   1.684   4.773
 3270TIP3    H2 9817   3.118   1.748   4.823
 3271TIP3   OH2 9818   4.245   4.384   3.249
 3271TIP3    H1 9819   4.241   4.292   3.221
 3271TIP3    H2 9820   4.337   4.398   3.271
 3272TIP3   OH2 9821   2.588   1.832   4.527
 3272TIP3    H1 9822   2.676   1.823   4.492
 3272TIP3    H2 9823   2.578   1.926   4.542
 3273TIP3   OH2 9824   4.495   4.744   0.506
 3273TIP3    H1 9825   4.424   4.748   0.442
 3273TIP3    H2 9826   4.552   4.674   0.474
 3274TIP3   OH2 9827   4.446   0.864   2.984
 3274TIP3    H1 9828   4.464   0.828   2.898
 3274TIP3    H2 9829   4.524   0.914   3.007
 3275TIP3   OH2 9830   5.966   0.107   3.567
 3275TIP3    H1 9831   6.031   0.088   3.499
 3275TIP3    H2 9832   6.010   0.087   3.649
 3276TIP3   OH2 9833   2.267   1.201   5.168
 3276TIP3    H1 9834   2.261   1.107   5.189
 3276TIP3    H2 9835   2.319   1.205   5.088
 3277TIP3   OH2 9836   3.322   1.660   0.607
 3277TIP3    H1 9837   3.286   1.651   0.695
 3277TIP3    H2 9838   3.245   1.650   0.550
 3278TIP3   OH2 9839   4.669   1.456   0.266
 3278TIP3    H1 9840   4.633   1.381   0.218
 3278TIP3    H2 9841   4.763   1.437   0.272
 3279TIP3   OH2 9842   2.012   0.773   2.965
 3279TIP3    H1 9843   2.052   0.755   2.880
 3279TIP3    H2 9844   1.934   0.717   2.968
 3280TIP3   OH2 9845   5.247   3.808   2.296
 3280TIP3    H1 9846   5.310   3.808   2.368
 3280TIP3    H2 9847   5.282   3.743   2.234
 3281TIP3   OH2 9848   6.207   1.128   3.921
 3281TIP3    H1 9849   6.251   1.061   3.870
 3281TIP3    H2 9850   6.216   1.099   4.012
 3282TIP3   OH2 9851   0.413   4.579   3.164
 3282TIP3    H1 9852   0.370   4.626   3.092
 3282TIP3    H2 9853   0.506   4.584   3.143
 3283TIP3   OH2 9854   2.358   5.339   1.137
 3283TIP3    H1 9855   2.321   5.312   1.053
 3283TIP3    H2 9856   2.431   5.278   1.152
 3284TIP3   OH2 9857   1.283   0.136   3.554
 3284TIP3    H1 9858   1.199   0.101   3.584
 3284TIP3    H2 9859   1.261   0.185   3.475
 3285TIP3   OH2 9860   5.402   0.321   3.580
 3285TIP3    H1 9861   5.471   0.347   3.641
 3285TIP3    H2 9862   5.333   0.285   3.636
 3286TIP3   OH2 9863   2.262   0.039   0.826
 3286TIP3    H1 9864   2.299   0.007   0.743
 3286TIP3    H2 9865   2.338   0.049   0.884
 3287TIP3   OH2 9866   3.230   2.947   2.464
 3287TIP3    H1 9867   3.217   2.982   2.376
 3287TIP3    H2 9868   3.304   2.997   2.499
 3288TIP3   OH2 9869   6.092   2.888   1.491
 3288TIP3    H1 9870   6.186   2.900   1.478
 3288TIP3    H2 9871   6.061   2.972   1.525
 3289TIP3   OH2 9872   1.155   0.515   0.564
 3289TIP3    H1 9873   1.148   0.598   0.611
 3289TIP3    H2 9874   1.064   0.490   0.546
 3290TIP3   OH2 9875   6.184   2.985   0.469
 3290TIP3    H1 9876   6.188   2.956   0.378
 3290TIP3    H2 9877   6.243   2.927   0.516
 3291TIP3   OH2 9878   3.143   4.643   1.007
 3291TIP3    H1 9879   3.141   4.702   1.083
 3291TIP3    H2 9880   3.218   4.672   0.956
 3292TIP3   OH2 9881   2.911   1.835   2.020
 3292TIP3    H1 9882   2.855   1.758   2.008
 3292TIP3    H2 9883   2.876   1.878   2.097
 3293TIP3   OH2 9884   3.621   4.178   3.452
 3293TIP3    H1 9885   3.541   4.134   3.425
 3293TIP3    H2 9886   3.593   4.238   3.521
 3294TIP3   OH2 9887   5.903   2.040   1.040
 3294TIP3    H1 9888   5.978   2.008   1.091
 3294TIP3    H2 9889   5.843   1.966   1.036
 3295TIP3   OH2 9890   2.797   4.574   2.405
 3295TIP3    H1 9891   2.761   4.519   2.335
 3295TIP3    H2 9892   2.808   4.660   2.364
 3296TIP3   OH2 9893   5.718   0.929   3.044
 3296TIP3    H1 9894   5.805   0.900   3.017
 3296TIP3    H2 9895   5.731   0.965   3.132
 3297TIP3   OH2 9896   2.118   5.353   4.706
 3297TIP3    H1 9897   2.099   5.352   4.613
 3297TIP3    H2 9898   2.034   5.371   4.748
 3298TIP3   OH2 9899   1.444   0.240   4.662
 3298TIP3    H1 9900   1.363   0.190   4.658
 3298TIP3    H2 9901   1.456   0.273   4.573
 3299TIP3   OH2 9902   1.463   5.789   2.712
 3299TIP3    H1 9903   1.479   5.799   2.618
 3299TIP3    H2 9904   1.514   5.712   2.737
 3300TIP3   OH2 9905   5.592   4.043   3.922
 3300TIP3    H1 9906   5.591   3.948   3.911
 3300TIP3    H2 9907   5.504   4.070   3.895
 3301TIP3   OH2 9908   5.657   3.070   4.892
 3301TIP3    H1 9909   5.621   3.063   4.804
 3301TIP3    H2 9910   5.722   2.999   4.897
 3302TIP3   OH2 9911   4.951   4.353   0.592
 3302TIP3    H1 9912   4.896   4.325   0.518
 3302TIP3    H2 9913   4.999   4.429   0.558
 3303TIP3   OH2 9914   0.974   2.606   4.724
 3303TIP3    H1 9915   1.049   2.546   4.730
 3303TIP3    H2 9916   0.964   2.623   4.631
 3304TIP3   OH2 9917   5.895   5.603   0.207
 3304TIP3    H1 9918   5.817   5.578   0.156
 3304TIP3    H2 9919   5.964   5.546   0.174
 3305TIP3   OH2 9920   2.451   5.213   2.840
 3305TIP3    H1 9921   2.361   5.212   2.872
 3305TIP3    H2 9922   2.444   5.189   2.748
 3306TIP3   OH2 9923   3.014   2.952   2.241
 3306TIP3    H1 9924   3.033   2.882   2.303
 3306TIP3    H2 9925   2.976   2.908   2.165
 3307TIP3   OH2 9926   4.274   4.122   1.505
 3307TIP3    H1 9927   4.237   4.195   1.455
 3307TIP3    H2 9928   4.368   4.127   1.487
 3308TIP3   OH2 9929   5.713   5.523   2.722
 3308TIP3    H1 9930   5.763   5.605   2.719
 3308TIP3    H2 9931   5.740   5.477   2.642
 3309TIP3   OH2 9932   6.043   2.021   2.853
 3309TIP3    H1 9933   6.015   2.112   2.845
 3309TIP3    H2 9934   5.962   1.970   2.844
 3310TIP3   OH2 9935   5.965   5.637   4.177
 3310TIP3    H1 9936   5.949   5.687   4.097
 3310TIP3    H2 9937   5.932   5.693   4.247
 3311TIP3   OH2 9938   6.100   3.308   4.408
 3311TIP3    H1 9939   6.076   3.235   4.465
 3311TIP3    H2 9940   6.016   3.348   4.383
 3312TIP3   OH2 9941   1.682   2.129   1.623
 3312TIP3    H1 9942   1.740   2.202   1.644
 3312TIP3    H2 9943   1.594   2.164   1.639
 3313TIP3   OH2 9944   5.563   5.245   4.430
 3313TIP3    H1 9945   5.616   5.276   4.356
 3313TIP3    H2 9946   5.606   5.282   4.507
 3314TIP3   OH2 9947   4.342   0.823   1.057
 3314TIP3    H1 9948   4.274   0.782   1.003
 3314TIP3    H2 9949   4.301   0.836   1.142
 3315TIP3   OH2 9950   3.463   5.467   2.145
 3315TIP3    H1 9951   3.548   5.425   2.134
 3315TIP3    H2 9952   3.455   5.526   2.070
 3316TIP3   OH2 9953   5.082   3.453   1.980
 3316TIP3    H1 9954   5.112   3.471   2.069
 3316TIP3    H2 9955   5.154   3.483   1.924
 3317TIP3   OH2 9956   3.241   1.063   3.282
 3317TIP3    H1 9957   3.331   1.069   3.249
 3317TIP3    H2 9958   3.245   0.996   3.350
 3318TIP3   OH2 9959   0.734   0.857   0.252
 3318TIP3    H1 9960   0.695   0.904   0.325
 3318TIP3    H2 9961   0.721   0.914   0.176
 3319TIP3   OH2 9962   1.673   4.812   4.434
 3319TIP3    H1 9963   1.683   4.902   4.467
 3319TIP3    H2 9964   1.751   4.767   4.465
 3320TIP3   OH2 9965   2.576   1.453   3.475
 3320TIP3    H1 9966   2.518   1.442   3.399
 3320TIP3    H2 9967   2.661   1.420   3.445
 3321TIP3   OH2 9968   5.899   3.593   2.977
 3321TIP3    H1 9969   5.979   3.608   3.026
 3321TIP3    H2 9970   5.861   3.680   2.964
 3322TIP3   OH2 9971   1.982   2.550   3.699
 3322TIP3    H1 9972   1.895   2.570   3.663
 3322TIP3    H2 9973   1.991   2.610   3.773
 3323TIP3   OH2 9974   6.193   3.575   4.362
 3323TIP3    H1 9975   6.249   3.498   4.371
 3323TIP3    H2 9976   6.242   3.633   4.304
 3324TIP3   OH2 9977   4.545   4.009   3.160
 3324TIP3    H1 9978   4.622   4.048   3.119
 3324TIP3    H2 9979   4.543   4.046   3.248
 3325TIP3   OH2 9980   3.946   1.440   0.967
 3325TIP3    H1 9981   3.874   1.447   0.905
 3325TIP3    H2 9982   3.958   1.346   0.979
 3326TIP3   OH2 9983   1.481   4.525   4.367
 3326TIP3    H1 9984   1.554   4.504   4.310
 3326TIP3    H2 9985   1.515   4.592   4.427
 3327TIP3   OH2 9986   2.863   2.459   2.843
 3327TIP3    H1 9987   2.946   2.491   2.877
 3327TIP3    H2 9988   2.805   2.458   2.918
 3328TIP3   OH2 9989   5.165   2.019   2.477
 3328TIP3    H1 9990   5.198   1.947   2.423
 3328TIP3    H2 9991   5.236   2.038   2.538
 3329TIP3   OH2 9992   4.605   2.230   4.924
 3329TIP3    H1 9993   4.518   2.208   4.890
 3329TIP3    H2 9994   4.596   2.223   5.019
 3330TIP3   OH2 9995   2.037   0.112   0.973
 3330TIP3    H1 9996   1.970   0.076   0.914
 3330TIP3    H2 9997   2.120   0.082   0.936
 3331TIP3   OH2 9998   1.813   3.211   2.480
 3331TIP3    H1 9999   1.891   3.178   2.436
 3331TIP3    H210000   1.810   3.304   2.457
 3332TIP3   OH210001   2.017   1.312   5.108
 3332TIP3    H110002   1.981   1.288   5.023
 3332TIP3    H210003   2.106   1.276   5.107
 3333TIP3   OH210004   0.950   4.457   4.529
 3333TIP3    H110005   1.039   4.485   4.507
 3333TIP3    H210006   0.916   4.417   4.449
 3334TIP3   OH210007   3.194   0.740   1.282
 3334TIP3    H110008   3.158   0.693   1.357
 3334TIP3    H210009   3.237   0.816   1.320
 3335TIP3   OH210010   4.871   2.874   3.358
 3335TIP3    H110011   4.783   2.882   3.395
 3335TIP3    H210012   4.911   2.960   3.371
 3336TIP3   OH210013   4.511   2.752   1.682
 3336TIP3    H110014   4.513   2.826   1.622
 3336TIP3    H210015   4.565   2.685   1.639
 3337TIP3   OH210016   4.755   5.129   0.773
 3337TIP3    H110017   4.799   5.203   0.816
 3337TIP3    H210018   4.691   5.170   0.715
 3338TIP3   OH210019   0.683   2.691   2.304
 3338TIP3    H110020   0.641   2.749   2.240
 3338TIP3    H210021   0.750   2.646   2.253
 3339TIP3   OH210022   2.017   0.672   4.936
 3339TIP3    H110023   2.013   0.619   5.015
 3339TIP3    H210024   1.951   0.739   4.948
 3340TIP3   OH210025   2.103   3.994   0.997
 3340TIP3    H110026   2.075   3.926   0.936
 3340TIP3    H210027   2.046   3.982   1.073
 3341TIP3   OH210028   2.143   5.904   4.879
 3341TIP3    H110029   2.068   5.961   4.861
 3341TIP3    H210030   2.184   5.890   4.794
 3342TIP3   OH210031   5.981   5.215   2.965
 3342TIP3    H110032   5.952   5.155   2.897
 3342TIP3    H210033   6.026   5.285   2.917
 3343TIP3   OH210034   3.811   5.413   2.138
 3343TIP3    H110035   3.783   5.373   2.056
 3343TIP3    H210036   3.814   5.507   2.119
 3344TIP3   OH210037   4.119   4.800   0.898
 3344TIP3    H110038   4.117   4.774   0.990
 3344TIP3    H210039   4.162   4.727   0.853
 3345TIP3   OH210040   5.762   4.280   4.067
 3345TIP3    H110041   5.806   4.207   4.112
 3345TIP3    H210042   5.771   4.259   3.974
 3346TIP3   OH210043   3.699   0.242   5.076
 3346TIP3    H110044   3.636   0.278   5.013
 3346TIP3    H210045   3.764   0.311   5.086
 3347TIP3   OH210046   4.316   1.082   3.341
 3347TIP3    H110047   4.261   1.161   3.342
 3347TIP3    H210048   4.292   1.037   3.260
 3348TIP3   OH210049   3.418   3.606   4.299
 3348TIP3    H110050   3.351   3.652   4.350
 3348TIP3    H210051   3.472   3.562   4.365
 3349TIP3   OH210052   4.567   4.875   4.660
 3349TIP3    H110053   4.508   4.862   4.735
 3349TIP3    H210054   4.557   4.968   4.639
 3350TIP3   OH210055   2.532   2.309   0.999
 3350TIP3    H110056   2.569   2.261   0.925
 3350TIP3    H210057   2.607   2.334   1.052
 3351TIP3   OH210058   3.538   2.209   0.390
 3351TIP3    H110059   3.470   2.241   0.331
 3351TIP3    H210060   3.610   2.271   0.380
 3352TIP3   OH210061   3.671   3.247   4.157
 3352TIP3    H110062   3.646   3.232   4.066
 3352TIP3    H210063   3.649   3.339   4.173
 3353TIP3   OH210064   3.610   3.642   1.681
 3353TIP3    H110065   3.627   3.569   1.741
 3353TIP3    H210066   3.688   3.697   1.687
 3354TIP3   OH210067   1.219   5.500   2.739
 3354TIP3    H110068   1.212   5.594   2.753
 3354TIP3    H210069   1.129   5.468   2.746
 3355TIP3   OH210070   5.959   5.634   3.309
 3355TIP3    H110071   5.978   5.661   3.219
 3355TIP3    H210072   5.878   5.682   3.331
 3356TIP3   OH210073   1.894   1.618   1.322
 3356TIP3    H110074   1.823   1.681   1.308
 3356TIP3    H210075   1.874   1.578   1.407
 3357TIP3   OH210076   3.116   4.833   4.255
 3357TIP3    H110077   3.098   4.921   4.288
 3357TIP3    H210078   3.136   4.846   4.162
 3358TIP3   OH210079   3.853   5.122   0.013
 3358TIP3    H110080   3.865   5.043   0.067
 3358TIP3    H210081   3.758   5.138   0.015
 3359TIP3   OH210082   3.814   3.335   2.678
 3359TIP3    H110083   3.720   3.337   2.696
 3359TIP3    H210084   3.854   3.324   2.764
 3360TIP3   OH210085   6.171   3.520   4.884
 3360TIP3    H110086   6.228   3.514   4.961
 3360TIP3    H210087   6.224   3.565   4.819
 3361TIP3   OH210088   5.788   0.466   2.811
 3361TIP3    H110089   5.693   0.466   2.800
 3361TIP3    H210090   5.802   0.488   2.903
 3362TIP3   OH210091   5.539   2.976   4.607
 3362TIP3    H110092   5.516   3.030   4.532
 3362TIP3    H210093   5.570   2.894   4.569
 3363TIP3   OH210094   3.529   1.743   0.434
 3363TIP3    H110095   3.497   1.809   0.373
 3363TIP3    H210096   3.460   1.736   0.500
 3364TIP3   OH210097   6.062   5.685   0.876
 3364TIP3    H110098   6.020   5.615   0.828
 3364TIP3    H210099   6.156   5.672   0.862
 3365TIP3   OH210100   5.457   2.865   0.451
 3365TIP3    H110101   5.517   2.902   0.386
 3365TIP3    H210102   5.387   2.931   0.459
 3366TIP3   OH210103   5.869   5.874   3.601
 3366TIP3    H110104   5.797   5.935   3.612
 3366TIP3    H210105   5.939   5.926   3.561
 3367TIP3   OH210106   4.695   2.796   0.308
 3367TIP3    H110107   4.681   2.744   0.229
 3367TIP3    H210108   4.626   2.766   0.368
 3368TIP3   OH210109   1.176   2.857   2.506
 3368TIP3    H110110   1.201   2.768   2.529
 3368TIP3    H210111   1.173   2.904   2.590
 3369TIP3   OH210112   2.214   4.679   0.656
 3369TIP3    H110113   2.273   4.604   0.663
 3369TIP3    H210114   2.261   4.742   0.602
 3370TIP3   OH210115   4.621   5.407   2.081
 3370TIP3    H110116   4.592   5.461   2.154
 3370TIP3    H210117   4.716   5.418   2.079
 3371TIP3   OH210118   1.796   4.256   0.874
 3371TIP3    H110119   1.770   4.174   0.832
 3371TIP3    H210120   1.805   4.234   0.966
 3372TIP3   OH210121   6.009   4.574   0.386
 3372TIP3    H110122   6.014   4.618   0.301
 3372TIP3    H210123   5.955   4.632   0.439
 3373TIP3   OH210124   2.765   5.711   3.211
 3373TIP3    H110125   2.785   5.793   3.166
 3373TIP3    H210126   2.672   5.718   3.234
 3374TIP3   OH210127   0.671   4.951   0.813
 3374TIP3    H110128   0.725   5.029   0.828
 3374TIP3    H210129   0.733   4.879   0.804
 3375TIP3   OH210130   2.680   2.158   1.598
 3375TIP3    H110131   2.710   2.127   1.684
 3375TIP3    H210132   2.660   2.078   1.550
 3376TIP3   OH210133   4.303   5.025   1.101
 3376TIP3    H110134   4.360   4.963   1.056
 3376TIP3    H210135   4.264   5.077   1.031
 3377TIP3   OH210136   0.434   4.608   1.273
 3377TIP3    H110137   0.484   4.637   1.196
 3377TIP3    H210138   0.389   4.529   1.244
 3378TIP3   OH210139   1.580   5.757   3.684
 3378TIP3    H110140   1.629   5.784   3.606
 3378TIP3    H210141   1.490   5.748   3.654
 3379TIP3   OH210142   4.942   1.252   3.879
 3379TIP3    H110143   4.920   1.340   3.908
 3379TIP3    H210144   4.862   1.218   3.839
 3380TIP3   OH210145   4.203   4.104   1.091
 3380TIP3    H110146   4.118   4.125   1.053
 3380TIP3    H210147   4.246   4.050   1.026
 3381TIP3   OH210148   4.081   4.319   4.351
 3381TIP3    H110149   4.155   4.340   4.294
 3381TIP3    H210150   4.111   4.244   4.402
 3382TIP3   OH210151   0.922   2.354   0.638
 3382TIP3    H110152   1.002   2.381   0.682
 3382TIP3    H210153   0.913   2.416   0.564
 3383TIP3   OH210154   0.132   1.873   3.506
 3383TIP3    H110155   0.192   1.931   3.459
 3383TIP3    H210156   0.175   1.788   3.504
 3384TIP3   OH210157   0.782   5.206   1.023
 3384TIP3    H110158   0.744   5.128   1.063
 3384TIP3    H210159   0.749   5.278   1.076
 3385TIP3   OH210160   5.062   2.033   1.393
 3385TIP3    H110161   5.064   1.937   1.383
 3385TIP3    H210162   5.112   2.066   1.319
 3386TIP3   OH210163   3.915   1.657   3.925
 3386TIP3    H110164   3.845   1.679   3.864
 3386TIP3    H210165   3.930   1.738   3.974
 3387TIP3   OH210166   0.807   5.743   1.893
 3387TIP3    H110167   0.865   5.692   1.950
 3387TIP3    H210168   0.827   5.711   1.805
 3388TIP3   OH210169   1.804   5.628   2.162
 3388TIP3    H110170   1.759   5.565   2.106
 3388TIP3    H210171   1.791   5.712   2.119
 3389TIP3   OH210172   2.224   4.156   4.050
 3389TIP3    H110173   2.148   4.213   4.059
 3389TIP3    H210174   2.217   4.095   4.124
 3390TIP3   OH210175   0.142   5.447   4.552
 3390TIP3    H110176   0.106   5.497   4.479
 3390TIP3    H210177   0.235   5.438   4.531
 3391TIP3   OH210178   2.859   1.297   1.338
 3391TIP3    H110179   2.907   1.346   1.405
 3391TIP3    H210180   2.781   1.265   1.383
 3392TIP3   OH210181   5.147   4.044   2.384
 3392TIP3    H110182   5.186   4.033   2.471
 3392TIP3    H210183   5.178   3.968   2.334
 3393TIP3   OH210184   1.591   0.870   2.441
 3393TIP3    H110185   1.620   0.822   2.363
 3393TIP3    H210186   1.497   0.856   2.445
 3394TIP3   OH210187   0.703   2.320   1.286
 3394TIP3    H110188   0.682   2.232   1.319
 3394TIP3    H210189   0.618   2.362   1.273
 3395TIP3   OH210190   2.907   0.845   5.186
 3395TIP3    H110191   2.949   0.931   5.176
 3395TIP3    H210192   2.830   0.850   5.129
 3396TIP3   OH210193   3.726   0.582   2.872
 3396TIP3    H110194   3.818   0.562   2.854
 3396TIP3    H210195   3.727   0.626   2.957
 3397TIP3   OH210196   3.713   5.445   4.958
 3397TIP3    H110197   3.676   5.417   4.874
 3397TIP3    H210198   3.781   5.508   4.934
 3398TIP3   OH210199   3.521   2.838   2.946
 3398TIP3    H110200   3.607   2.799   2.936
 3398TIP3    H210201   3.490   2.853   2.857
 3399TIP3   OH210202   0.741   1.076   2.484
 3399TIP3    H110203   0.827   1.049   2.450
 3399TIP3    H210204   0.729   1.164   2.451
 3400TIP3   OH210205   5.958   3.579   4.522
 3400TIP3    H110206   6.032   3.583   4.461
 3400TIP3    H210207   5.979   3.642   4.590
 3401TIP3   OH210208   3.333   2.245   4.628
 3401TIP3    H110209   3.304   2.173   4.685
 3401TIP3    H210210   3.415   2.215   4.591
 3402TIP3   OH210211   0.922   0.063   4.455
 3402TIP3    H110212   0.932   0.011   4.534
 3402TIP3    H210213   0.875   0.141   4.484
 3403TIP3   OH210214   3.221   0.493   4.947
 3403TIP3    H110215   3.152   0.517   4.885
 3403TIP3    H210216   3.294   0.551   4.925
 3404TIP3   OH210217   3.018   2.458   3.898
 3404TIP3    H110218   3.046   2.550   3.904
 3404TIP3    H210219   3.098   2.409   3.882
 3405TIP3   OH210220   2.152   5.134   4.452
 3405TIP3    H110221   2.172   5.217   4.410
 3405TIP3    H210222   2.125   5.076   4.380
 3406TIP3   OH210223   1.277   3.349   3.319
 3406TIP3    H110224   1.223   3.314   3.389
 3406TIP3    H210225   1.241   3.311   3.239
 3407TIP3   OH210226   3.514   3.311   3.271
 3407TIP3    H110227   3.530   3.366   3.348
 3407TIP3    H210228   3.430   3.269   3.288
 3408TIP3   OH210229   3.090   1.670   2.246
 3408TIP3    H110230   3.015   1.727   2.262
 3408TIP3    H210231   3.141   1.715   2.179
 3409TIP3   OH210232   4.066   5.163   4.541
 3409TIP3    H110233   4.009   5.210   4.480
 3409TIP3    H210234   4.007   5.134   4.611
 3410TIP3   OH210235   6.178   3.192   2.540
 3410TIP3    H110236   6.160   3.101   2.519
 3410TIP3    H210237   6.144   3.204   2.628
 3411TIP3   OH210238   0.665   1.756   4.750
 3411TIP3    H110239   0.592   1.742   4.690
 3411TIP3    H210240   0.661   1.682   4.811
 3412TIP3   OH210241   2.826   3.326   3.140
 3412TIP3    H110242   2.848   3.362   3.226
 3412TIP3    H210243   2.873   3.243   3.136
 3413TIP3   OH210244   1.273   1.950   0.068
 3413TIP3    H110245   1.328   1.900   0.008
 3413TIP3    H210246   1.197   1.976   0.016
 3414TIP3   OH210247   1.881   2.595   0.768
 3414TIP3    H110248   1.967   2.630   0.793
 3414TIP3    H210249   1.842   2.663   0.713
 3415TIP3   OH210250   2.541   2.421   2.409
 3415TIP3    H110251   2.572   2.492   2.352
 3415TIP3    H210252   2.470   2.380   2.360
 3416TIP3   OH210253   0.255   2.317   1.711
 3416TIP3    H110254   0.215   2.403   1.705
 3416TIP3    H210255   0.279   2.307   1.803
 3417TIP3   OH210256   2.757   0.650   3.222
 3417TIP3    H110257   2.852   0.648   3.213
 3417TIP3    H210258   2.735   0.743   3.234
 3418TIP3   OH210259   3.593   4.851   3.293
 3418TIP3    H110260   3.604   4.938   3.331
 3418TIP3    H210261   3.656   4.796   3.339
 3419TIP3   OH210262   0.655   3.877   1.671
 3419TIP3    H110263   0.723   3.849   1.733
 3419TIP3    H210264   0.695   3.866   1.585
 3420TIP3   OH210265   4.329   5.359   2.026
 3420TIP3    H110266   4.422   5.377   2.042
 3420TIP3    H210267   4.327   5.271   1.989
 3421TIP3   OH210268   3.216   5.051   4.532
 3421TIP3    H110269   3.276   5.015   4.466
 3421TIP3    H210270   3.140   4.993   4.529
 3422TIP3   OH210271   3.248   1.739   2.009
 3422TIP3    H110272   3.328   1.736   2.062
 3422TIP3    H210273   3.268   1.684   1.933
 3423TIP3   OH210274   4.956   5.869   4.122
 3423TIP3    H110275   4.906   5.922   4.184
 3423TIP3    H210276   4.896   5.798   4.097
 3424TIP3   OH210277   3.470   0.514   1.219
 3424TIP3    H110278   3.396   0.459   1.194
 3424TIP3    H210279   3.546   0.468   1.183
 3425TIP3   OH210280   1.630   2.766   3.862
 3425TIP3    H110281   1.692   2.839   3.858
 3425TIP3    H210282   1.660   2.705   3.794
 3426TIP3   OH210283   5.587   5.836   4.256
 3426TIP3    H110284   5.558   5.768   4.195
 3426TIP3    H210285   5.551   5.917   4.220
 3427TIP3   OH210286   3.040   2.619   0.450
 3427TIP3    H110287   3.021   2.576   0.534
 3427TIP3    H210288   3.132   2.645   0.457
 3428TIP3   OH210289   2.738   4.640   1.311
 3428TIP3    H110290   2.755   4.569   1.249
 3428TIP3    H210291   2.678   4.602   1.375
 3429TIP3   OH210292   0.051   5.952   3.847
 3429TIP3    H110293   0.101   5.892   3.904
 3429TIP3    H210294  -0.018   5.986   3.904
 3430TIP3   OH210295   3.166   1.600   3.677
 3430TIP3    H110296   3.130   1.577   3.762
 3430TIP3    H210297   3.186   1.516   3.635
 3431TIP3   OH210298   5.132   1.519   2.229
 3431TIP3    H110299   5.166   1.463   2.299
 3431TIP3    H210300   5.046   1.546   2.260
 3432TIP3   OH210301   1.048   3.337   2.320
 3432TIP3    H110302   1.138   3.366   2.333
 3432TIP3    H210303   1.049   3.244   2.342
 3433TIP3   OH210304   3.338   4.206   1.253
 3433TIP3    H110305   3.301   4.232   1.337
 3433TIP3    H210306   3.330   4.284   1.197
 3434TIP3   OH210307   3.807   2.617   4.213
 3434TIP3    H110308   3.885   2.655   4.255
 3434TIP3    H210309   3.829   2.526   4.198
 3435TIP3   OH210310   3.303   4.539   4.092
 3435TIP3    H110311   3.255   4.555   4.010
 3435TIP3    H210312   3.288   4.446   4.111
 3436TIP3   OH210313   2.196   5.649   5.204
 3436TIP3    H110314   2.274   5.687   5.246
 3436TIP3    H210315   2.222   5.638   5.112
 3437TIP3   OH210316   1.224   4.714   1.870
 3437TIP3    H110317   1.241   4.627   1.833
 3437TIP3    H210318   1.197   4.767   1.795
 3438TIP3   OH210319   2.747   2.278   4.970
 3438TIP3    H110320   2.736   2.186   4.996
 3438TIP3    H210321   2.725   2.279   4.877
 3439TIP3   OH210322   0.173   4.469   3.461
 3439TIP3    H110323   0.155   4.548   3.410
 3439TIP3    H210324   0.090   4.421   3.462
 3440TIP3   OH210325   5.891   3.226   3.892
 3440TIP3    H110326   5.907   3.132   3.894
 3440TIP3    H210327   5.912   3.252   3.802
 3441TIP3   OH210328   5.583   3.652   0.631
 3441TIP3    H110329   5.562   3.744   0.615
 3441TIP3    H210330   5.612   3.619   0.545
 3442TIP3   OH210331   1.189   0.169   5.065
 3442TIP3    H110332   1.210   0.096   5.123
 3442TIP3    H210333   1.094   0.163   5.053
 3443TIP3   OH210334   5.058   4.450   3.018
 3443TIP3    H110335   5.072   4.540   3.047
 3443TIP3    H210336   5.074   4.397   3.096
 3444TIP3   OH210337   1.941   2.884   4.358
 3444TIP3    H110338   1.940   2.924   4.445
 3444TIP3    H210339   2.029   2.900   4.325
 3445TIP3   OH210340   3.039   2.110   4.660
 3445TIP3    H110341   3.052   2.082   4.569
 3445TIP3    H210342   2.951   2.146   4.662
 3446TIP3   OH210343   3.209   2.992   3.409
 3446TIP3    H110344   3.223   2.917   3.353
 3446TIP3    H210345   3.240   2.964   3.496
 3447TIP3   OH210346   6.006   2.914   1.891
 3447TIP3    H110347   6.053   2.862   1.826
 3447TIP3    H210348   5.968   2.849   1.951
 3448TIP3   OH210349   1.052   3.821   3.407
 3448TIP3    H110350   1.065   3.740   3.357
 3448TIP3    H210351   1.136   3.866   3.401
 3449TIP3   OH210352   4.179   4.342   3.517
 3449TIP3    H110353   4.199   4.386   3.434
 3449TIP3    H210354   4.262   4.341   3.564
 3450TIP3   OH210355   5.866   2.383   3.044
 3450TIP3    H110356   5.791   2.400   3.101
 3450TIP3    H210357   5.892   2.293   3.064
 3451TIP3   OH210358   1.232   3.756   0.661
 3451TIP3    H110359   1.193   3.833   0.704
 3451TIP3    H210360   1.203   3.763   0.570
 3452TIP3   OH210361   5.582   4.637   1.913
 3452TIP3    H110362   5.662   4.656   1.863
 3452TIP3    H210363   5.511   4.645   1.848
 3453TIP3   OH210364   0.470   2.566   2.707
 3453TIP3    H110365   0.414   2.642   2.724
 3453TIP3    H210366   0.474   2.520   2.791
 3454TIP3   OH210367   4.961   1.205   2.270
 3454TIP3    H110368   4.874   1.246   2.271
 3454TIP3    H210369   4.978   1.183   2.362
 3455TIP3   OH210370   2.775   1.346   4.963
 3455TIP3    H110371   2.723   1.426   4.970
 3455TIP3    H210372   2.719   1.284   4.917
 3456TIP3   OH210373   1.133   3.717   3.800
 3456TIP3    H110374   1.224   3.691   3.816
 3456TIP3    H210375   1.100   3.652   3.737
 3457TIP3   OH210376   3.409   4.922   2.971
 3457TIP3    H110377   3.438   4.848   2.918
 3457TIP3    H210378   3.478   4.987   2.963
 3458TIP3   OH210379   3.194   2.005   1.927
 3458TIP3    H110380   3.238   2.047   2.000
 3458TIP3    H210381   3.217   1.912   1.935
 3459TIP3   OH210382   4.541   0.057   1.806
 3459TIP3    H110383   4.507  -0.016   1.858
 3459TIP3    H210384   4.529   0.031   1.715
 3460TIP3   OH210385   0.597   1.488   4.485
 3460TIP3    H110386   0.515   1.478   4.437
 3460TIP3    H210387   0.622   1.580   4.470
 3461TIP3   OH210388   0.193   0.752   2.411
 3461TIP3    H110389   0.258   0.702   2.460
 3461TIP3    H210390   0.198   0.841   2.445
 3462TIP3   OH210391   5.520   4.806   4.926
 3462TIP3    H110392   5.573   4.852   4.860
 3462TIP3    H210393   5.436   4.792   4.883
 3463TIP3   OH210394   4.378   3.494   1.315
 3463TIP3    H110395   4.285   3.493   1.337
 3463TIP3    H210396   4.380   3.511   1.220
 3464TIP3   OH210397   1.200   0.994   4.522
 3464TIP3    H110398   1.110   1.019   4.500
 3464TIP3    H210399   1.254   1.048   4.464
 3465TIP3   OH210400   3.558   4.809   0.072
 3465TIP3    H110401   3.570   4.903   0.057
 3465TIP3    H210402   3.646   4.772   0.061
 3466TIP3   OH210403   1.749   2.108   1.362
 3466TIP3    H110404   1.770   2.014   1.361
 3466TIP3    H210405   1.728   2.126   1.454
 3467TIP3   OH210406   0.488   4.622   4.854
 3467TIP3    H110407   0.481   4.709   4.891
 3467TIP3    H210408   0.465   4.633   4.761
 3468TIP3   OH210409   2.980   5.073   1.384
 3468TIP3    H110410   2.950   4.983   1.376
 3468TIP3    H210411   2.963   5.112   1.298
 3469TIP3   OH210412   3.045   3.833   0.245
 3469TIP3    H110413   3.105   3.819   0.318
 3469TIP3    H210414   3.102   3.839   0.168
 3470TIP3   OH210415   2.489   1.379   4.205
 3470TIP3    H110416   2.529   1.298   4.234
 3470TIP3    H210417   2.555   1.421   4.151
 3471TIP3   OH210418   2.509   4.057   4.759
 3471TIP3    H110419   2.555   4.135   4.727
 3471TIP3    H210420   2.487   4.009   4.679
 3472TIP3   OH210421   0.935   4.798   1.712
 3472TIP3    H110422   1.005   4.824   1.652
 3472TIP3    H210423   0.854   4.824   1.669
 3473TIP3   OH210424   1.907   5.810   4.635
 3473TIP3    H110425   1.972   5.785   4.569
 3473TIP3    H210426   1.832   5.842   4.584
 3474TIP3   OH210427  -0.010   2.971   0.228
 3474TIP3    H110428   0.084   2.988   0.233
 3474TIP3    H210429  -0.019   2.908   0.157
 3475TIP3   OH210430   4.609   1.068   3.917
 3475TIP3    H110431   4.646   1.000   3.974
 3475TIP3    H210432   4.675   1.079   3.848
 3476TIP3   OH210433   1.269   3.079   0.325
 3476TIP3    H110434   1.209   3.085   0.399
 3476TIP3    H210435   1.284   2.985   0.313
 3477TIP3   OH210436   3.614   4.458   4.828
 3477TIP3    H110437   3.646   4.382   4.875
 3477TIP3    H210438   3.633   4.438   4.736
 3478TIP3   OH210439   5.370   3.249   0.904
 3478TIP3    H110440   5.407   3.325   0.860
 3478TIP3    H210441   5.442   3.186   0.908
 3479TIP3   OH210442   3.297   2.596   2.774
 3479TIP3    H110443   3.261   2.681   2.796
 3479TIP3    H210444   3.386   2.614   2.744
 3480TIP3   OH210445   4.693   2.409   2.913
 3480TIP3    H110446   4.711   2.390   3.005
 3480TIP3    H210447   4.773   2.451   2.881
 3481TIP3   OH210448   5.017   5.287   4.661
 3481TIP3    H110449   4.962   5.366   4.659
 3481TIP3    H210450   4.961   5.221   4.701
 3482TIP3   OH210451   3.454   4.896   1.501
 3482TIP3    H110452   3.497   4.981   1.510
 3482TIP3    H210453   3.522   4.840   1.462
 3483TIP3   OH210454   4.900   2.186   4.838
 3483TIP3    H110455   4.926   2.259   4.782
 3483TIP3    H210456   4.809   2.204   4.860
 3484TIP3   OH210457   3.505   1.114   4.316
 3484TIP3    H110458   3.423   1.075   4.285
 3484TIP3    H210459   3.502   1.104   4.411
 3485TIP3   OH210460   3.423   5.604   0.355
 3485TIP3    H110461   3.386   5.618   0.268
 3485TIP3    H210462   3.517   5.590   0.340
 3486TIP3   OH210463   3.868   1.295   0.677
 3486TIP3    H110464   3.793   1.267   0.730
 3486TIP3    H210465   3.862   1.391   0.676
 3487TIP3   OH210466   2.341   5.132   0.139
 3487TIP3    H110467   2.274   5.065   0.152
 3487TIP3    H210468   2.292   5.209   0.111
 3488TIP3   OH210469   2.694   5.799   5.001
 3488TIP3    H110470   2.626   5.794   4.934
 3488TIP3    H210471   2.763   5.742   4.970
 3489TIP3   OH210472   2.915   4.031   1.853
 3489TIP3    H110473   2.994   4.015   1.904
 3489TIP3    H210474   2.855   3.961   1.881
 3490TIP3   OH210475   4.652   4.881   0.252
 3490TIP3    H110476   4.682   4.900   0.341
 3490TIP3    H210477   4.570   4.835   0.263
 3491TIP3   OH210478   0.525   2.293   0.319
 3491TIP3    H110479   0.505   2.220   0.261
 3491TIP3    H210480   0.573   2.253   0.392
 3492TIP3   OH210481   4.029   0.980   2.788
 3492TIP3    H110482   3.993   0.970   2.700
 3492TIP3    H210483   3.960   1.022   2.838
 3493TIP3   OH210484   1.822   2.794   1.402
 3493TIP3    H110485   1.905   2.788   1.450
 3493TIP3    H210486   1.765   2.844   1.460
 3494TIP3   OH210487   4.347   1.539   3.946
 3494TIP3    H110488   4.275   1.556   3.885
 3494TIP3    H210489   4.425   1.536   3.891
 3495TIP3   OH210490   2.780   3.328   1.583
 3495TIP3    H110491   2.785   3.381   1.663
 3495TIP3    H210492   2.711   3.264   1.600
 3496TIP3   OH210493   5.221   5.429   4.450
 3496TIP3    H110494   5.159   5.359   4.470
 3496TIP3    H210495   5.249   5.411   4.360
 3497TIP3   OH210496   3.979   4.144   0.876
 3497TIP3    H110497   4.014   4.231   0.859
 3497TIP3    H210498   3.929   4.123   0.797
 3498TIP3   OH210499   3.472   5.091   2.606
 3498TIP3    H110500   3.561   5.104   2.571
 3498TIP3    H210501   3.434   5.025   2.548
 3499TIP3   OH210502   0.714   2.403   0.799
 3499TIP3    H110503   0.742   2.372   0.885
 3499TIP3    H210504   0.782   2.372   0.739
 3500TIP3   OH210505   0.725   4.339   3.727
 3500TIP3    H110506   0.693   4.371   3.642
 3500TIP3    H210507   0.715   4.244   3.723
 3501TIP3   OH210508   2.640   5.113   3.381
 3501TIP3    H110509   2.687   5.144   3.458
 3501TIP3    H210510   2.678   5.162   3.308
 3502TIP3   OH210511   3.800   2.190   4.733
 3502TIP3    H110512   3.735   2.167   4.667
 3502TIP3    H210513   3.756   2.254   4.789
 3503TIP3   OH210514   3.671   4.743   4.794
 3503TIP3    H110515   3.635   4.659   4.764
 3503TIP3    H210516   3.717   4.778   4.718
 3504TIP3   OH210517   3.931   4.649   3.902
 3504TIP3    H110518   3.910   4.742   3.915
 3504TIP3    H210519   3.906   4.607   3.984
 3505TIP3   OH210520   1.565   3.575   1.703
 3505TIP3    H110521   1.590   3.668   1.706
 3505TIP3    H210522   1.496   3.567   1.768
 3506TIP3   OH210523   4.004   3.341   4.281
 3506TIP3    H110524   3.961   3.332   4.367
 3506TIP3    H210525   4.009   3.251   4.248
 3507TIP3   OH210526   2.551   3.839   3.369
 3507TIP3    H110527   2.546   3.912   3.431
 3507TIP3    H210528   2.634   3.853   3.323
 3508TIP3   OH210529   4.339   2.617   0.864
 3508TIP3    H110530   4.297   2.700   0.843
 3508TIP3    H210531   4.373   2.630   0.953
 3509TIP3   OH210532   6.139   5.280   3.676
 3509TIP3    H110533   6.164   5.216   3.609
 3509TIP3    H210534   6.200   5.264   3.748
 3510TIP3   OH210535   4.275   3.331   2.898
 3510TIP3    H110536   4.211   3.296   2.959
 3510TIP3    H210537   4.324   3.396   2.949
 3511TIP3   OH210538   1.033   0.315   3.434
 3511TIP3    H110539   1.003   0.386   3.491
 3511TIP3    H210540   1.117   0.347   3.400
 3512TIP3   OH210541   5.749   1.067   3.283
 3512TIP3    H110542   5.659   1.098   3.293
 3512TIP3    H210543   5.803   1.146   3.293
 3513TIP3   OH210544   2.799   4.894   3.126
 3513TIP3    H110545   2.854   4.963   3.088
 3513TIP3    H210546   2.772   4.841   3.050
 3514TIP3   OH210547   2.403   5.205   4.117
 3514TIP3    H110548   2.431   5.188   4.027
 3514TIP3    H210549   2.308   5.217   4.111
 3515TIP3   OH210550   2.755   4.904   4.299
 3515TIP3    H110551   2.694   4.897   4.373
 3515TIP3    H210552   2.829   4.848   4.324
 3516TIP3   OH210553   4.679   1.927   2.421
 3516TIP3    H110554   4.687   1.838   2.456
 3516TIP3    H210555   4.764   1.967   2.439
 3517TIP3   OH210556   5.849   2.578   1.604
 3517TIP3    H110557   5.765   2.603   1.643
 3517TIP3    H210558   5.906   2.563   1.679
 3518TIP3   OH210559   6.070   0.992   4.419
 3518TIP3    H110560   5.986   0.996   4.464
 3518TIP3    H210561   6.115   1.073   4.445
 3519TIP3   OH210562   3.526   5.791   3.735
 3519TIP3    H110563   3.561   5.723   3.792
 3519TIP3    H210564   3.459   5.747   3.683
 3520TIP3   OH210565   2.428   4.411   2.823
 3520TIP3    H110566   2.414   4.411   2.729
 3520TIP3    H210567   2.508   4.361   2.836
 3521TIP3   OH210568   3.931   4.258   5.111
 3521TIP3    H110569   4.011   4.209   5.091
 3521TIP3    H210570   3.961   4.348   5.126
 3522TIP3   OH210571   1.584   5.385   4.809
 3522TIP3    H110572   1.569   5.466   4.858
 3522TIP3    H210573   1.523   5.389   4.736
 3523TIP3   OH210574   0.980   3.648   4.032
 3523TIP3    H110575   1.036   3.586   4.080
 3523TIP3    H210576   1.041   3.696   3.976
 3524TIP3   OH210577   4.050   3.868   3.652
 3524TIP3    H110578   4.045   3.958   3.620
 3524TIP3    H210579   4.079   3.816   3.577
 3525TIP3   OH210580   0.623   5.814   3.010
 3525TIP3    H110581   0.676   5.892   3.023
 3525TIP3    H210582   0.683   5.751   2.968
 3526TIP3   OH210583   3.321   0.050   2.370
 3526TIP3    H110584   3.369  -0.020   2.413
 3526TIP3    H210585   3.369   0.066   2.289
 3527TIP3   OH210586   5.688   2.172   2.742
 3527TIP3    H110587   5.742   2.114   2.795
 3527TIP3    H210588   5.611   2.190   2.797
 3528TIP3   OH210589   2.149   0.546   1.100
 3528TIP3    H110590   2.205   0.553   1.023
 3528TIP3    H210591   2.206   0.509   1.167
 3529TIP3   OH210592   3.261   1.569   5.077
 3529TIP3    H110593   3.270   1.563   5.172
 3529TIP3    H210594   3.289   1.484   5.044
 3530TIP3   OH210595   3.570   1.062   1.227
 3530TIP3    H110596   3.499   1.031   1.171
 3530TIP3    H210597   3.635   1.097   1.166
 3531TIP3   OH210598   2.122   2.901   3.185
 3531TIP3    H110599   2.039   2.853   3.179
 3531TIP3    H210600   2.140   2.928   3.095
 3532TIP3   OH210601   5.393   5.540   4.913
 3532TIP3    H110602   5.401   5.628   4.950
 3532TIP3    H210603   5.366   5.555   4.823
 3533TIP3   OH210604   4.267   1.998   3.220
 3533TIP3    H110605   4.251   2.018   3.128
 3533TIP3    H210606   4.209   1.925   3.239
 3534TIP3   OH210607   3.797   1.513   5.130
 3534TIP3    H110608   3.704   1.525   5.149
 3534TIP3    H210609   3.817   1.581   5.065
 3535TIP3   OH210610   4.205   2.313   2.849
 3535TIP3    H110611   4.119   2.342   2.817
 3535TIP3    H210612   4.248   2.276   2.773
 3536TIP3   OH210613   0.842   0.179   1.168
 3536TIP3    H110614   0.841   0.086   1.147
 3536TIP3    H210615   0.934   0.204   1.160
 3537TIP3   OH210616   4.123   5.687   3.875
 3537TIP3    H110617   4.210   5.679   3.913
 3537TIP3    H210618   4.136   5.737   3.794
 3538TIP3   OH210619   1.222   5.982   0.829
 3538TIP3    H110620   1.189   5.930   0.755
 3538TIP3    H210621   1.317   5.976   0.822
 3539TIP3   OH210622   2.187   0.196   1.986
 3539TIP3    H110623   2.138   0.237   2.058
 3539TIP3    H210624   2.128   0.128   1.953
 3540TIP3   OH210625   1.195   2.233   0.573
 3540TIP3    H110626   1.266   2.265   0.628
 3540TIP3    H210627   1.201   2.285   0.493
 3541TIP3   OH210628   5.556   5.395   1.511
 3541TIP3    H110629   5.585   5.486   1.513
 3541TIP3    H210630   5.580   5.364   1.424
 3542TIP3   OH210631   6.249   5.298   4.683
 3542TIP3    H110632   6.343   5.307   4.670
 3542TIP3    H210633   6.212   5.298   4.595
 3543TIP3   OH210634   3.099   1.100   4.546
 3543TIP3    H110635   3.101   1.015   4.589
 3543TIP3    H210636   3.009   1.131   4.558
 3544TIP3   OH210637   5.839   2.732   0.777
 3544TIP3    H110638   5.910   2.670   0.765
 3544TIP3    H210639   5.855   2.800   0.712
 3545TIP3   OH210640   3.763   3.609   2.466
 3545TIP3    H110641   3.763   3.697   2.504
 3545TIP3    H210642   3.673   3.578   2.479
 3546TIP3   OH210643   5.095   5.012   3.992
 3546TIP3    H110644   5.134   4.946   3.935
 3546TIP3    H210645   5.009   4.977   4.015
 3547TIP3   OH210646   5.081   2.942   2.059
 3547TIP3    H110647   5.065   2.867   2.001
 3547TIP3    H210648   5.023   2.927   2.134
 3548TIP3   OH210649   3.535   4.172   4.295
 3548TIP3    H110650   3.506   4.128   4.375
 3548TIP3    H210651   3.520   4.265   4.312
 3549TIP3   OH210652   5.307   0.975   0.839
 3549TIP3    H110653   5.249   1.046   0.866
 3549TIP3    H210654   5.315   0.920   0.917
 3550TIP3   OH210655   3.651   3.027   2.117
 3550TIP3    H110656   3.683   2.947   2.159
 3550TIP3    H210657   3.661   3.095   2.185
 3551TIP3   OH210658   4.876   2.719   0.580
 3551TIP3    H110659   4.888   2.799   0.631
 3551TIP3    H210660   4.828   2.660   0.638
 3552TIP3   OH210661   0.278   4.823   1.023
 3552TIP3    H110662   0.372   4.821   1.041
 3552TIP3    H210663   0.270   4.885   0.950
 3553TIP3   OH210664   1.961   5.378   3.070
 3553TIP3    H110665   1.922   5.368   2.983
 3553TIP3    H210666   1.908   5.320   3.126
 3554TIP3   OH210667   3.232   3.500   3.475
 3554TIP3    H110668   3.149   3.484   3.430
 3554TIP3    H210669   3.275   3.415   3.477
 3555TIP3   OH210670   1.001   2.319   1.610
 3555TIP3    H110671   1.058   2.313   1.533
 3555TIP3    H210672   0.969   2.230   1.623
 3556TIP3   OH210673   0.256   4.555   2.236
 3556TIP3    H110674   0.300   4.475   2.263
 3556TIP3    H210675   0.199   4.528   2.164
 3557TIP3   OH210676   0.998   0.607   3.555
 3557TIP3    H110677   1.030   0.578   3.641
 3557TIP3    H210678   0.917   0.653   3.574
 3558TIP3   OH210679   1.289   0.544   4.688
 3558TIP3    H110680   1.247   0.621   4.728
 3558TIP3    H210681   1.226   0.473   4.702
 3559TIP3   OH210682   2.085   1.703   0.254
 3559TIP3    H110683   2.064   1.796   0.262
 3559TIP3    H210684   2.181   1.700   0.255
 3560TIP3   OH210685   4.844   3.528   2.898
 3560TIP3    H110686   4.867   3.621   2.906
 3560TIP3    H210687   4.893   3.485   2.968
 3561TIP3   OH210688   1.037   1.562   3.395
 3561TIP3    H110689   1.081   1.635   3.352
 3561TIP3    H210690   0.968   1.537   3.333
 3562TIP3   OH210691   0.321   3.325   2.184
 3562TIP3    H110692   0.238   3.324   2.136
 3562TIP3    H210693   0.295   3.314   2.276
 3563TIP3   OH210694   4.553   3.519   0.412
 3563TIP3    H110695   4.553   3.432   0.371
 3563TIP3    H210696   4.622   3.515   0.478
 3564TIP3   OH210697   0.478   4.535   4.231
 3564TIP3    H110698   0.432   4.618   4.219
 3564TIP3    H210699   0.448   4.480   4.158
 3565TIP3   OH210700   4.903   1.083   3.166
 3565TIP3    H110701   4.976   1.138   3.192
 3565TIP3    H210702   4.931   0.994   3.188
 3566TIP3   OH210703   5.980   3.219   1.845
 3566TIP3    H110704   5.919   3.214   1.918
 3566TIP3    H210705   5.933   3.176   1.772
 3567TIP3   OH210706   5.873   1.317   1.224
 3567TIP3    H110707   5.896   1.242   1.280
 3567TIP3    H210708   5.793   1.289   1.179
 3568TIP3   OH210709   3.403   4.620   0.624
 3568TIP3    H110710   3.429   4.653   0.539
 3568TIP3    H210711   3.314   4.652   0.637
 3569TIP3   OH210712   3.386   4.910   4.364
 3569TIP3    H110713   3.441   4.948   4.296
 3569TIP3    H210714   3.314   4.869   4.316
 3570TIP3   OH210715   3.641   3.248   1.287
 3570TIP3    H110716   3.549   3.264   1.308
 3570TIP3    H210717   3.684   3.333   1.297
 3571TIP3   OH210718   1.708   3.297   2.169
 3571TIP3    H110719   1.796   3.283   2.134
 3571TIP3    H210720   1.661   3.216   2.148
 3572TIP3   OH210721   0.451   4.790   0.775
 3572TIP3    H110722   0.482   4.730   0.843
 3572TIP3    H210723   0.495   4.872   0.794
 3573TIP3   OH210724   0.246   4.612   5.091
 3573TIP3    H110725   0.227   4.596   5.184
 3573TIP3    H210726   0.328   4.565   5.076
 3574TIP3   OH210727   4.394   5.455   1.348
 3574TIP3    H110728   4.385   5.526   1.411
 3574TIP3    H210729   4.419   5.379   1.400
 3575TIP3   OH210730   2.769   0.615   3.847
 3575TIP3    H110731   2.817   0.694   3.822
 3575TIP3    H210732   2.815   0.544   3.803
 3576TIP3   OH210733   3.708   2.905   5.130
 3576TIP3    H110734   3.662   2.853   5.064
 3576TIP3    H210735   3.639   2.953   5.176
 3577TIP3   OH210736   3.074   0.825   4.707
 3577TIP3    H110737   2.989   0.870   4.710
 3577TIP3    H210738   3.054   0.735   4.733
 3578TIP3   OH210739   3.366   5.775   2.589
 3578TIP3    H110740   3.344   5.846   2.650
 3578TIP3    H210741   3.307   5.703   2.613
 3579TIP3   OH210742   3.663   5.263   0.675
 3579TIP3    H110743   3.620   5.349   0.677
 3579TIP3    H210744   3.642   5.228   0.589
 3580TIP3   OH210745   5.035   2.915   4.040
 3580TIP3    H110746   5.118   2.956   4.064
 3580TIP3    H210747   4.977   2.988   4.020
 3581TIP3   OH210748   3.768   3.948   3.313
 3581TIP3    H110749   3.765   3.893   3.392
 3581TIP3    H210750   3.695   4.009   3.324
 3582TIP3   OH210751   4.988   1.385   4.913
 3582TIP3    H110752   4.964   1.478   4.916
 3582TIP3    H210753   4.966   1.358   4.823
 3583TIP3   OH210754   0.037   1.784   1.832
 3583TIP3    H110755   0.037   1.827   1.917
 3583TIP3    H210756  -0.037   1.824   1.785
 3584TIP3   OH210757   0.019   2.048   3.669
 3584TIP3    H110758  -0.007   1.982   3.733
 3584TIP3    H210759   0.040   1.999   3.590
 3585TIP3   OH210760   3.141   4.992   3.606
 3585TIP3    H110761   3.088   4.950   3.538
 3585TIP3    H210762   3.209   5.039   3.558
 3586TIP3   OH210763   5.023   3.992   5.019
 3586TIP3    H110764   5.078   3.934   5.073
 3586TIP3    H210765   4.983   3.933   4.955
 3587TIP3   OH210766   1.089   1.837   1.202
 3587TIP3    H110767   1.115   1.849   1.111
 3587TIP3    H210768   1.018   1.773   1.199
 3588TIP3   OH210769   1.736   1.854   4.050
 3588TIP3    H110770   1.754   1.820   4.137
 3588TIP3    H210771   1.675   1.791   4.012
 3589TIP3   OH210772   5.236   1.727   3.228
 3589TIP3    H110773   5.167   1.706   3.164
 3589TIP3    H210774   5.198   1.702   3.313
 3590TIP3   OH210775   4.324   0.488   1.561
 3590TIP3    H110776   4.254   0.433   1.527
 3590TIP3    H210777   4.289   0.577   1.559
 3591TIP3   OH210778   0.829   3.463   3.311
 3591TIP3    H110779   0.772   3.386   3.308
 3591TIP3    H210780   0.783   3.530   3.261
 3592TIP3   OH210781   1.189   2.900   3.900
 3592TIP3    H110782   1.237   2.818   3.907
 3592TIP3    H210783   1.256   2.968   3.903
 3593TIP3   OH210784   0.865   4.519   2.164
 3593TIP3    H110785   0.953   4.553   2.173
 3593TIP3    H210786   0.809   4.585   2.204
 3594TIP3   OH210787   3.885   4.785   2.355
 3594TIP3    H110788   3.936   4.729   2.296
 3594TIP3    H210789   3.871   4.865   2.305
 3595TIP3   OH210790   0.254   1.922   0.520
 3595TIP3    H110791   0.343   1.956   0.511
 3595TIP3    H210792   0.206   1.959   0.447
 3596TIP3   OH210793   3.456   2.290   5.034
 3596TIP3    H110794   3.363   2.281   5.013
 3596TIP3    H210795   3.477   2.214   5.088
 3597TIP3   OH210796   5.829   3.386   3.349
 3597TIP3    H110797   5.827   3.479   3.368
 3597TIP3    H210798   5.770   3.375   3.274
 3598TIP3   OH210799   6.024   1.816   4.609
 3598TIP3    H110800   5.945   1.761   4.604
 3598TIP3    H210801   6.062   1.811   4.521
 3599TIP3   OH210802   4.644   4.489   4.382
 3599TIP3    H110803   4.617   4.403   4.351
 3599TIP3    H210804   4.605   4.496   4.469
 3600TIP3   OH210805  -0.029   5.685   1.649
 3600TIP3    H110806   0.044   5.740   1.623
 3600TIP3    H210807   0.012   5.606   1.685
 3601TIP3   OH210808   3.638   5.561   2.561
 3601TIP3    H110809   3.640   5.484   2.619
 3601TIP3    H210810   3.576   5.621   2.604
 3602TIP3   OH210811   1.402   2.684   3.582
 3602TIP3    H110812   1.394   2.756   3.519
 3602TIP3    H210813   1.449   2.615   3.534
 3603TIP3   OH210814   3.560   4.012   1.961
 3603TIP3    H110815   3.529   3.925   1.988
 3603TIP3    H210816   3.482   4.067   1.963
 3604TIP3   OH210817   6.169   1.170   2.722
 3604TIP3    H110818   6.085   1.180   2.677
 3604TIP3    H210819   6.206   1.259   2.723
 3605TIP3   OH210820   0.723   1.802   1.072
 3605TIP3    H110821   0.762   1.888   1.054
 3605TIP3    H210822   0.784   1.739   1.034
 3606TIP3   OH210823   3.165   3.449   3.152
 3606TIP3    H110824   3.215   3.370   3.171
 3606TIP3    H210825   3.094   3.449   3.216
 3607TIP3   OH210826   5.732   4.382   0.625
 3607TIP3    H110827   5.812   4.432   0.609
 3607TIP3    H210828   5.759   4.291   0.619
 3608TIP3   OH210829   4.464   0.075   2.986
 3608TIP3    H110830   4.440   0.109   2.900
 3608TIP3    H210831   4.554   0.106   2.999
 3609TIP3   OH210832   0.295   4.624   2.692
 3609TIP3    H110833   0.284   4.562   2.620
 3609TIP3    H210834   0.383   4.606   2.726
 3610TIP3   OH210835   3.525   5.891   1.944
 3610TIP3    H110836   3.495   5.924   2.029
 3610TIP3    H210837   3.489   5.953   1.881
 3611TIP3   OH210838   4.369   0.034   3.809
 3611TIP3    H110839   4.429   0.078   3.750
 3611TIP3    H210840   4.283   0.071   3.789
 3612TIP3   OH210841   1.500   0.429   3.754
 3612TIP3    H110842   1.483   0.519   3.728
 3612TIP3    H210843   1.511   0.382   3.671
 3613TIP3   OH210844   3.128   2.825   2.707
 3613TIP3    H110845   3.193   2.880   2.664
 3613TIP3    H210846   3.085   2.778   2.636
 3614TIP3   OH210847   2.142   5.482   1.218
 3614TIP3    H110848   2.204   5.430   1.168
 3614TIP3    H210849   2.195   5.549   1.261
 3615TIP3   OH210850   2.164   3.030   1.124
 3615TIP3    H110851   2.167   3.106   1.181
 3615TIP3    H210852   2.201   2.958   1.176
 3616TIP3   OH210853   1.199   3.497   4.798
 3616TIP3    H110854   1.268   3.492   4.732
 3616TIP3    H210855   1.182   3.591   4.808
 3617TIP3   OH210856   5.842   1.618   3.671
 3617TIP3    H110857   5.786   1.541   3.669
 3617TIP3    H210858   5.828   1.655   3.758
 3618TIP3   OH210859   0.171   5.767   2.020
 3618TIP3    H110860   0.253   5.751   1.973
 3618TIP3    H210861   0.141   5.679   2.045
 3619TIP3   OH210862   6.228   4.954   0.425
 3619TIP3    H110863   6.249   5.024   0.488
 3619TIP3    H210864   6.163   4.993   0.367
 3620TIP3   OH210865   5.408   4.769   4.134
 3620TIP3    H110866   5.365   4.689   4.165
 3620TIP3    H210867   5.499   4.760   4.162
 3621TIP3   OH210868   2.064   2.131   4.682
 3621TIP3    H110869   2.154   2.149   4.657
 3621TIP3    H210870   2.026   2.085   4.608
 3622TIP3   OH210871   1.192   3.642   2.997
 3622TIP3    H110872   1.167   3.552   2.975
 3622TIP3    H210873   1.262   3.663   2.935
 3623TIP3   OH210874   1.358   5.923   4.934
 3623TIP3    H110875   1.304   5.844   4.939
 3623TIP3    H210876   1.415   5.918   5.010
 3624TIP3   OH210877   4.037   5.455   0.254
 3624TIP3    H110878   4.095   5.399   0.306
 3624TIP3    H210879   4.063   5.439   0.163
 3625TIP3   OH210880   2.758   3.482   3.457
 3625TIP3    H110881   2.750   3.547   3.528
 3625TIP3    H210882   2.675   3.489   3.409
 3626TIP3   OH210883   1.953   5.957   0.135
 3626TIP3    H110884   2.014   5.893   0.172
 3626TIP3    H210885   1.996   6.042   0.150
 3627TIP3   OH210886   1.227   2.061   1.586
 3627TIP3    H110887   1.178   1.981   1.567
 3627TIP3    H210888   1.220   2.112   1.505
 3628TIP3   OH210889   1.835   0.656   2.675
 3628TIP3    H110890   1.839   0.583   2.612
 3628TIP3    H210891   1.758   0.705   2.649
 3629TIP3   OH210892   2.474   3.579   2.866
 3629TIP3    H110893   2.519   3.510   2.916
 3629TIP3    H210894   2.541   3.647   2.853
 3630TIP3   OH210895   5.320   4.638   4.701
 3630TIP3    H110896   5.232   4.613   4.672
 3630TIP3    H210897   5.356   4.687   4.627
 3631TIP3   OH210898   0.103   0.942   0.984
 3631TIP3    H110899   0.105   0.848   0.966
 3631TIP3    H210900   0.039   0.977   0.921
 3632TIP3   OH210901   4.262   5.916   2.091
 3632TIP3    H110902   4.183   5.864   2.100
 3632TIP3    H210903   4.290   5.932   2.181
 3633TIP3   OH210904   0.160   0.112   4.885
 3633TIP3    H110905   0.150   0.045   4.953
 3633TIP3    H210906   0.146   0.065   4.803
 3634TIP3   OH210907   0.457   0.298   2.273
 3634TIP3    H110908   0.383   0.359   2.275
 3634TIP3    H210909   0.422   0.216   2.309
 3635TIP3   OH210910   1.257   0.084   0.338
 3635TIP3    H110911   1.307   0.164   0.318
 3635TIP3    H210912   1.323   0.020   0.362
 3636TIP3   OH210913   0.765   4.232   1.384
 3636TIP3    H110914   0.746   4.250   1.291
 3636TIP3    H210915   0.856   4.259   1.395
 3637TIP3   OH210916   3.778   3.955   0.763
 3637TIP3    H110917   3.733   3.913   0.836
 3637TIP3    H210918   3.714   3.957   0.692
 3638TIP3   OH210919   2.544   0.613   0.080
 3638TIP3    H110920   2.563   0.519   0.090
 3638TIP3    H210921   2.629   0.656   0.092
 3639TIP3   OH210922   0.798   3.693   0.796
 3639TIP3    H110923   0.727   3.726   0.851
 3639TIP3    H210924   0.842   3.773   0.765
 3640TIP3   OH210925   5.262   1.463   4.046
 3640TIP3    H110926   5.197   1.494   3.984
 3640TIP3    H210927   5.212   1.436   4.123
 3641TIP3   OH210928   2.378   0.083   4.806
 3641TIP3    H110929   2.423   0.020   4.864
 3641TIP3    H210930   2.301   0.110   4.855
 3642TIP3   OH210931   1.157   1.697   2.243
 3642TIP3    H110932   1.113   1.730   2.322
 3642TIP3    H210933   1.086   1.663   2.189
 3643TIP3   OH210934   4.327   0.192   1.342
 3643TIP3    H110935   4.233   0.176   1.332
 3643TIP3    H210936   4.344   0.175   1.435
 3644TIP3   OH210937   5.093   3.430   2.274
 3644TIP3    H110938   5.129   3.353   2.230
 3644TIP3    H210939   5.158   3.499   2.258
 3645TIP3   OH210940   2.817   0.525   0.478
 3645TIP3    H110941   2.854   0.489   0.397
 3645TIP3    H210942   2.787   0.613   0.454
 3646TIP3   OH210943   3.885   3.493   2.250
 3646TIP3    H110944   3.901   3.419   2.308
 3646TIP3    H210945   3.861   3.565   2.308
 3647TIP3   OH210946   1.807   5.951   0.742
 3647TIP3    H110947   1.828   5.863   0.712
 3647TIP3    H210948   1.883   6.004   0.716
 3648TIP3   OH210949   4.014   2.099   0.044
 3648TIP3    H110950   3.927   2.096   0.082
 3648TIP3    H210951   4.055   2.177   0.082
 3649TIP3   OH210952   4.085   5.760   2.230
 3649TIP3    H110953   4.107   5.682   2.281
 3649TIP3    H210954   3.989   5.764   2.234
 3650TIP3   OH210955   5.771   5.782   4.651
 3650TIP3    H110956   5.841   5.814   4.593
 3650TIP3    H210957   5.692   5.786   4.597
 3651TIP3   OH210958   0.957   3.657   1.569
 3651TIP3    H110959   1.016   3.607   1.513
 3651TIP3    H210960   0.870   3.643   1.530
 3652TIP3   OH210961   6.145   2.176   2.510
 3652TIP3    H110962   6.232   2.213   2.495
 3652TIP3    H210963   6.153   2.084   2.486
 3653TIP3   OH210964   0.032   1.332   0.792
 3653TIP3    H110965   0.020   1.376   0.708
 3653TIP3    H210966   0.077   1.396   0.847
 3654TIP3   OH210967   1.075   5.683   2.987
 3654TIP3    H110968   1.046   5.747   3.053
 3654TIP3    H210969   1.023   5.605   3.005
 3655TIP3   OH210970   5.946   4.429   0.879
 3655TIP3    H110971   5.923   4.377   0.802
 3655TIP3    H210972   5.863   4.439   0.927
 3656TIP3   OH210973   5.829   5.813   1.797
 3656TIP3    H110974   5.821   5.725   1.759
 3656TIP3    H210975   5.751   5.823   1.851
 3657TIP3   OH210976   5.095   5.466   0.758
 3657TIP3    H110977   5.051   5.405   0.817
 3657TIP3    H210978   5.169   5.499   0.809
 3658TIP3   OH210979   5.858   4.534   1.725
 3658TIP3    H110980   5.928   4.546   1.661
 3658TIP3    H210981   5.779   4.559   1.679
 3659TIP3   OH210982   4.477   0.099   1.115
 3659TIP3    H110983   4.410   0.132   1.174
 3659TIP3    H210984   4.541   0.055   1.171
 3660TIP3   OH210985   1.134   0.637   1.704
 3660TIP3    H110986   1.169   0.725   1.709
 3660TIP3    H210987   1.204   0.585   1.664
 3661TIP3   OH210988   5.730   4.513   2.189
 3661TIP3    H110989   5.726   4.421   2.162
 3661TIP3    H210990   5.784   4.555   2.122
 3662TIP3   OH210991   3.842   1.120   2.119
 3662TIP3    H110992   3.838   1.134   2.214
 3662TIP3    H210993   3.933   1.098   2.102
 3663TIP3   OH210994   1.684   5.293   4.055
 3663TIP3    H110995   1.743   5.247   4.114
 3663TIP3    H210996   1.649   5.366   4.107
 3664TIP3   OH210997   0.261   3.664   2.544
 3664TIP3    H110998   0.357   3.670   2.543
 3664TIP3    H210999   0.243   3.575   2.512
 3665TIP3   OH211000   4.075   0.384   0.407
 3665TIP3    H111001   4.022   0.399   0.328
 3665TIP3    H211002   4.011   0.369   0.476
 3666TIP3   OH211003   0.483   5.515   5.003
 3666TIP3    H111004   0.487   5.502   4.908
 3666TIP3    H211005   0.487   5.426   5.039
 3667TIP3   OH211006   3.097   3.105   4.273
 3667TIP3    H111007   3.032   3.129   4.340
 3667TIP3    H211008   3.073   3.016   4.247
 3668TIP3   OH211009   2.936   1.506   1.194
 3668TIP3    H111010   3.007   1.485   1.133
 3668TIP3    H211011   2.911   1.421   1.231
 3669TIP3   OH211012   3.915   5.084   4.162
 3669TIP3    H111013   4.007   5.108   4.155
 3669TIP3    H211014   3.873   5.128   4.088
 3670TIP3   OH211015   1.894   0.567   4.104
 3670TIP3    H111016   1.862   0.524   4.184
 3670TIP3    H211017   1.930   0.495   4.052
 3671TIP3   OH211018   0.234   1.575   2.725
 3671TIP3    H111019   0.247   1.481   2.739
 3671TIP3    H211020   0.311   1.602   2.676
 3672TIP3   OH211021   1.120   0.835   5.219
 3672TIP3    H111022   1.133   0.812   5.127
 3672TIP3    H211023   1.191   0.790   5.265
 3673TIP3   OH211024   1.885   0.089   1.487
 3673TIP3    H111025   1.902   0.126   1.400
 3673TIP3    H211026   1.828   0.153   1.530
 3674TIP3   OH211027   5.003   0.026   4.425
 3674TIP3    H111028   5.065   0.052   4.357
 3674TIP3    H211029   5.016  -0.069   4.435
 3675TIP3   OH211030   3.087   2.643   2.222
 3675TIP3    H111031   3.074   2.548   2.227
 3675TIP3    H211032   3.084   2.663   2.129
 3676TIP3   OH211033   6.102   2.621   2.949
 3676TIP3    H111034   6.193   2.648   2.941
 3676TIP3    H211035   6.104   2.544   3.005
 3677TIP3   OH211036   1.145   4.520   2.593
 3677TIP3    H111037   1.236   4.523   2.563
 3677TIP3    H211038   1.117   4.612   2.591
 3678TIP3   OH211039   5.608   4.671   0.847
 3678TIP3    H111040   5.568   4.652   0.762
 3678TIP3    H211041   5.551   4.738   0.886
 3679TIP3   OH211042   0.402   3.780   0.597
 3679TIP3    H111043   0.385   3.698   0.550
 3679TIP3    H211044   0.438   3.751   0.681
 3680TIP3   OH211045   0.742   3.934   1.392
 3680TIP3    H111046   0.659   3.925   1.344
 3680TIP3    H211047   0.748   4.027   1.411
 3681TIP3   OH211048   3.227   5.284   1.631
 3681TIP3    H111049   3.180   5.316   1.708
 3681TIP3    H211050   3.163   5.289   1.560
 3682TIP3   OH211051   1.404   2.083   0.343
 3682TIP3    H111052   1.325   2.136   0.330
 3682TIP3    H211053   1.441   2.117   0.425
 3683TIP3   OH211054   1.128   4.671   1.347
 3683TIP3    H111055   1.146   4.739   1.283
 3683TIP3    H211056   1.059   4.617   1.308
 3684TIP3   OH211057   0.900   0.453   1.805
 3684TIP3    H111058   0.868   0.377   1.756
 3684TIP3    H211059   0.827   0.515   1.803
 3685TIP3   OH211060   4.280   3.763   4.256
 3685TIP3    H111061   4.369   3.775   4.289
 3685TIP3    H211062   4.269   3.668   4.251
 3686TIP3   OH211063   4.370   5.471   0.896
 3686TIP3    H111064   4.443   5.474   0.958
 3686TIP3    H211065   4.297   5.510   0.943
 3687TIP3   OH211066   5.067   1.616   0.880
 3687TIP3    H111067   4.991   1.615   0.939
 3687TIP3    H211068   5.139   1.645   0.935
 3688TIP3   OH211069   2.915   0.153   1.101
 3688TIP3    H111070   2.967   0.140   1.021
 3688TIP3    H211071   2.825   0.137   1.074
 3689TIP3   OH211072   3.088   3.790   4.237
 3689TIP3    H111073   3.090   3.779   4.142
 3689TIP3    H211074   3.002   3.758   4.264
 3690TIP3   OH211075   2.296   2.379   0.873
 3690TIP3    H111076   2.386   2.364   0.901
 3690TIP3    H211077   2.293   2.348   0.783
 3691TIP3   OH211078   6.045   5.233   4.001
 3691TIP3    H111079   5.961   5.200   3.968
 3691TIP3    H211080   6.103   5.228   3.925
 3692TIP3   OH211081   3.713   4.450   0.417
 3692TIP3    H111082   3.734   4.374   0.364
 3692TIP3    H211083   3.686   4.415   0.502
 3693TIP3   OH211084   3.807   5.790   0.515
 3693TIP3    H111085   3.730   5.758   0.562
 3693TIP3    H211086   3.829   5.872   0.559
 3694TIP3   OH211087   5.002   0.999   0.014
 3694TIP3    H111088   4.931   1.053  -0.019
 3694TIP3    H211089   5.053   1.057   0.071
 3695TIP3   OH211090   6.051   0.814   0.181
 3695TIP3    H111091   6.100   0.760   0.242
 3695TIP3    H211092   6.096   0.898   0.181
 3696TIP3   OH211093   2.935   2.441   2.068
 3696TIP3    H111094   2.913   2.350   2.088
 3696TIP3    H211095   2.917   2.449   1.974
 3697TIP3   OH211096   2.526   2.463   1.859
 3697TIP3    H111097   2.470   2.496   1.788
 3697TIP3    H211098   2.610   2.446   1.818
 3698TIP3   OH211099   4.349   5.619   1.560
 3698TIP3    H111100   4.329   5.559   1.632
 3698TIP3    H211101   4.422   5.672   1.592
 3699TIP3   OH211102   4.143   2.632   2.501
 3699TIP3    H111103   4.160   2.682   2.581
 3699TIP3    H211104   4.206   2.666   2.438
 3700TIP3   OH211105  -0.011   5.899   4.372
 3700TIP3    H111106   0.010   5.992   4.375
 3700TIP3    H211107   0.058   5.860   4.318
 3701TIP3   OH211108   3.694   0.107   0.307
 3701TIP3    H111109   3.725   0.092   0.217
 3701TIP3    H211110   3.773   0.128   0.356
 3702TIP3   OH211111   6.267   3.994   3.325
 3702TIP3    H111112   6.349   3.960   3.288
 3702TIP3    H211113   6.276   4.089   3.318
 3703TIP3   OH211114   3.506   0.147   2.213
 3703TIP3    H111115   3.559   0.210   2.263
 3703TIP3    H211116   3.559   0.128   2.136
 3704TIP3   OH211117   0.332   2.390   2.010
 3704TIP3    H111118   0.362   2.445   2.082
 3704TIP3    H211119   0.247   2.356   2.039
 3705TIP3   OH211120   1.695   2.955   2.665
 3705TIP3    H111121   1.709   2.995   2.751
 3705TIP3    H211122   1.726   3.020   2.602
 3706TIP3   OH211123   1.493   2.939   0.590
 3706TIP3    H111124   1.531   2.930   0.503
 3706TIP3    H211125   1.417   2.881   0.590
 3707TIP3   OH211126   1.059   0.215   2.027
 3707TIP3    H111127   0.970   0.186   2.046
 3707TIP3    H211128   1.068   0.203   1.932
 3708TIP3   OH211129   6.338   3.427   3.144
 3708TIP3    H111130   6.267   3.366   3.124
 3708TIP3    H211131   6.333   3.439   3.239
 3709TIP3   OH211132   2.379   3.277   1.823
 3709TIP3    H111133   2.409   3.279   1.914
 3709TIP3    H211134   2.459   3.280   1.771
 3710TIP3   OH211135   2.842   2.324   0.210
 3710TIP3    H111136   2.887   2.407   0.193
 3710TIP3    H211137   2.871   2.298   0.297
 3711TIP3   OH211138   1.544   0.634   2.598
 3711TIP3    H111139   1.578   0.709   2.550
 3711TIP3    H211140   1.573   0.558   2.547
 3712TIP3   OH211141   2.048   4.334   4.390
 3712TIP3    H111142   2.054   4.245   4.355
 3712TIP3    H211143   1.972   4.333   4.448
 3713TIP3   OH211144   1.401   3.026   3.830
 3713TIP3    H111145   1.462   2.999   3.761
 3713TIP3    H211146   1.454   3.081   3.888
 3714TIP3   OH211147   2.651   0.161   1.102
 3714TIP3    H111148   2.620   0.160   1.193
 3714TIP3    H211149   2.588   0.219   1.057
 3715TIP3   OH211150   0.906   2.074   1.651
 3715TIP3    H111151   0.972   2.016   1.688
 3715TIP3    H211152   0.873   2.027   1.574
 3716TIP3   OH211153   3.632   1.410   2.629
 3716TIP3    H111154   3.632   1.464   2.550
 3716TIP3    H211155   3.590   1.329   2.602
 3717TIP3   OH211156   1.918   5.305   5.066
 3717TIP3    H111157   2.001   5.258   5.065
 3717TIP3    H211158   1.859   5.250   5.117
 3718TIP3   OH211159   3.008   5.134   1.087
 3718TIP3    H111160   2.920   5.170   1.102
 3718TIP3    H211161   3.067   5.206   1.107
 3719TIP3   OH211162   0.037   0.942   2.200
 3719TIP3    H111163   0.132   0.947   2.194
 3719TIP3    H211164   0.007   1.031   2.179
 3720TIP3   OH211165   5.826   2.069   4.640
 3720TIP3    H111166   5.886   2.143   4.631
 3720TIP3    H211167   5.857   2.021   4.716
 3721TIP3   OH211168   2.884   2.640   4.681
 3721TIP3    H111169   2.894   2.725   4.638
 3721TIP3    H211170   2.793   2.640   4.712
 3722TIP3   OH211171   1.929   2.881   1.127
 3722TIP3    H111172   2.018   2.912   1.138
 3722TIP3    H211173   1.896   2.928   1.051
 3723TIP3   OH211174   0.155   4.090   4.190
 3723TIP3    H111175   0.149   4.136   4.274
 3723TIP3    H211176   0.173   3.999   4.214
 3724TIP3   OH211177   1.535   4.669   3.046
 3724TIP3    H111178   1.599   4.723   3.092
 3724TIP3    H211179   1.462   4.662   3.108
 3725TIP3   OH211180   2.860   4.462   1.702
 3725TIP3    H111181   2.936   4.513   1.674
 3725TIP3    H211182   2.869   4.456   1.797
 3726TIP3   OH211183   0.315   0.687   1.559
 3726TIP3    H111184   0.319   0.612   1.499
 3726TIP3    H211185   0.406   0.718   1.565
 3727TIP3   OH211186   3.650   1.849   2.859
 3727TIP3    H111187   3.658   1.868   2.952
 3727TIP3    H211188   3.736   1.870   2.822
 3728TIP3   OH211189   0.563   4.655   0.994
 3728TIP3    H111190   0.533   4.570   0.962
 3728TIP3    H211191   0.658   4.650   0.991
 3729TIP3   OH211192   5.527   3.981   2.369
 3729TIP3    H111193   5.462   4.047   2.343
 3729TIP3    H211194   5.611   4.021   2.349
 3730TIP3   OH211195   1.185   5.944   1.476
 3730TIP3    H111196   1.242   5.896   1.415
 3730TIP3    H211197   1.117   5.982   1.420
 3731TIP3   OH211198   5.264   4.516   0.172
 3731TIP3    H111199   5.190   4.476   0.126
 3731TIP3    H211200   5.324   4.444   0.188
 3732TIP3   OH211201   2.144   4.046   2.382
 3732TIP3    H111202   2.215   4.001   2.428
 3732TIP3    H211203   2.187   4.120   2.340
 3733TIP3   OH211204   3.551   1.484   1.439
 3733TIP3    H111205   3.457   1.496   1.431
 3733TIP3    H211206   3.563   1.389   1.445
 3734TIP3   OH211207   4.526   0.090   0.572
 3734TIP3    H111208   4.507   0.049   0.657
 3734TIP3    H211209   4.441   0.097   0.529
 3735TIP3   OH211210   5.777   4.000   4.131
 3735TIP3    H111211   5.710   4.009   4.064
 3735TIP3    H211212   5.833   3.929   4.099
 3736TIP3   OH211213   4.177   3.929   2.533
 3736TIP3    H111214   4.100   3.974   2.499
 3736TIP3    H211215   4.225   3.996   2.580
 3737TIP3   OH211216   1.274   5.869   1.192
 3737TIP3    H111217   1.250   5.959   1.169
 3737TIP3    H211218   1.328   5.839   1.118
 3738TIP3   OH211219   1.724   4.466   4.264
 3738TIP3    H111220   1.743   4.498   4.353
 3738TIP3    H211221   1.743   4.372   4.268
 3739TIP3   OH211222   2.826   2.298   4.688
 3739TIP3    H111223   2.908   2.345   4.704
 3739TIP3    H211224   2.799   2.326   4.600
 3740TIP3   OH211225   0.944   5.434   2.730
 3740TIP3    H111226   0.883   5.458   2.659
 3740TIP3    H211227   0.888   5.395   2.797
 3741TIP3   OH211228   3.652   2.406   0.071
 3741TIP3    H111229   3.646   2.499   0.046
 3741TIP3    H211230   3.574   2.390   0.123
 3742TIP3   OH211231   3.253   4.234   1.965
 3742TIP3    H111232   3.235   4.314   2.014
 3742TIP3    H211233   3.320   4.260   1.901
 3743TIP3   OH211234   5.851   1.543   1.659
 3743TIP3    H111235   5.872   1.465   1.710
 3743TIP3    H211236   5.930   1.598   1.665
 3744TIP3   OH211237   4.698   3.212   2.452
 3744TIP3    H111238   4.713   3.306   2.442
 3744TIP3    H211239   4.750   3.173   2.381
 3745TIP3   OH211240   0.168   4.573   4.414
 3745TIP3    H111241   0.232   4.642   4.395
 3745TIP3    H211242   0.093   4.619   4.452
 3746TIP3   OH211243   2.646   5.261   1.468
 3746TIP3    H111244   2.646   5.260   1.564
 3746TIP3    H211245   2.646   5.353   1.445
 3747TIP3   OH211246   1.185   5.770   2.724
 3747TIP3    H111247   1.264   5.815   2.693
 3747TIP3    H211248   1.156   5.822   2.799
 3748TIP3   OH211249   2.313   1.789   4.688
 3748TIP3    H111250   2.408   1.789   4.684
 3748TIP3    H211251   2.286   1.720   4.627
 3749TIP3   OH211252   1.657   1.847   2.401
 3749TIP3    H111253   1.698   1.924   2.362
 3749TIP3    H211254   1.719   1.818   2.468
 3750TIP3   OH211255   1.373   4.885   2.459
 3750TIP3    H111256   1.312   4.903   2.388
 3750TIP3    H211257   1.320   4.846   2.528
 3751TIP3   OH211258   1.510   3.110   2.873
 3751TIP3    H111259   1.523   3.073   2.960
 3751TIP3    H211260   1.597   3.140   2.846
 3752TIP3   OH211261   4.030   2.436   2.669
 3752TIP3    H111262   4.081   2.489   2.607
 3752TIP3    H211263   3.960   2.495   2.697
 3753TIP3   OH211264   1.794   1.879   2.978
 3753TIP3    H111265   1.709   1.923   2.978
 3753TIP3    H211266   1.773   1.786   2.989
 3754TIP3   OH211267   2.659   0.385   0.694
 3754TIP3    H111268   2.688   0.440   0.621
 3754TIP3    H211269   2.592   0.328   0.656
 3755TIP3   OH211270   1.386   2.035   2.277
 3755TIP3    H111271   1.474   1.999   2.292
 3755TIP3    H211272   1.395   2.088   2.198
 3756TIP3   OH211273   5.211   5.841   4.992
 3756TIP3    H111274   5.195   5.856   5.085
 3756TIP3    H211275   5.281   5.776   4.989
 3757TIP3   OH211276   4.288   0.938   0.241
 3757TIP3    H111277   4.203   0.945   0.285
 3757TIP3    H211278   4.351   0.970   0.306
 3758TIP3   OH211279   0.047   3.472   2.840
 3758TIP3    H111280   0.086   3.458   2.927
 3758TIP3    H211281   0.049   3.567   2.828
 3759TIP3   OH211282   4.870   4.770   3.074
 3759TIP3    H111283   4.889   4.857   3.109
 3759TIP3    H211284   4.923   4.764   2.994
 3760TIP3   OH211285   2.975   2.949   1.673
 3760TIP3    H111286   2.995   2.933   1.581
 3760TIP3    H211287   3.038   3.014   1.701
 3761TIP3   OH211288   4.699   0.585   2.092
 3761TIP3    H111289   4.766   0.633   2.042
 3761TIP3    H211290   4.726   0.494   2.087
 3762TIP3   OH211291   1.257   0.301   2.189
 3762TIP3    H111292   1.303   0.369   2.140
 3762TIP3    H211293   1.188   0.271   2.129
 3763TIP3   OH211294   1.316   5.167   3.781
 3763TIP3    H111295   1.321   5.259   3.754
 3763TIP3    H211296   1.396   5.152   3.830
 3764TIP3   OH211297   1.332   1.058   2.438
 3764TIP3    H111298   1.346   0.988   2.374
 3764TIP3    H211299   1.370   1.136   2.398
 3765TIP3   OH211300   1.295   1.833   4.183
 3765TIP3    H111301   1.355   1.875   4.122
 3765TIP3    H211302   1.327   1.743   4.191
 3766TIP3   OH211303   0.935   6.021   0.900
 3766TIP3    H111304   1.027   6.015   0.874
 3766TIP3    H211305   0.893   5.946   0.857
 3767TIP3   OH211306   5.980   5.609   4.695
 3767TIP3    H111307   6.043   5.623   4.625
 3767TIP3    H211308   5.897   5.641   4.660
 3768TIP3   OH211309   4.938   1.658   4.889
 3768TIP3    H111310   4.970   1.743   4.859
 3768TIP3    H211311   4.862   1.679   4.943
 3769TIP3   OH211312   4.630   4.443   4.925
 3769TIP3    H111313   4.673   4.361   4.949
 3769TIP3    H211314   4.659   4.505   4.992
 3770TIP3   OH211315   0.036   4.611   2.551
 3770TIP3    H111316  -0.035   4.661   2.591
 3770TIP3    H211317   0.056   4.659   2.470
 3771TIP3   OH211318   5.233   3.562   0.053
 3771TIP3    H111319   5.261   3.575  -0.038
 3771TIP3    H211320   5.273   3.479   0.079
 3772TIP3   OH211321   6.007   5.333   1.792
 3772TIP3    H111322   6.049   5.386   1.725
 3772TIP3    H211323   5.917   5.322   1.762
 3773TIP3   OH211324   5.974   2.331   0.990
 3773TIP3    H111325   6.038   2.346   0.919
 3773TIP3    H211326   5.930   2.251   0.965
 3774TIP3   OH211327   5.737   1.871   4.962
 3774TIP3    H111328   5.824   1.839   4.937
 3774TIP3    H211329   5.694   1.892   4.879
 3775TIP3   OH211330   3.228   2.194   0.188
 3775TIP3    H111331   3.201   2.281   0.158
 3775TIP3    H211332   3.169   2.175   0.261
 3776TIP3   OH211333   3.033   5.211   3.315
 3776TIP3    H111334   2.976   5.229   3.241
 3776TIP3    H211335   3.020   5.117   3.333
 3777TIP3   OH211336   5.482   3.540   0.882
 3777TIP3    H111337   5.513   3.586   0.804
 3777TIP3    H211338   5.522   3.586   0.955
 3778TIP3   OH211339   3.198   2.446   0.069
 3778TIP3    H111340   3.178   2.444  -0.025
 3778TIP3    H211341   3.123   2.490   0.109
 3779TIP3   OH211342   0.521   0.440   3.125
 3779TIP3    H111343   0.614   0.461   3.112
 3779TIP3    H211344   0.474   0.510   3.080
 3780TIP3   OH211345   0.646   2.063   3.690
 3780TIP3    H111346   0.568   2.010   3.705
 3780TIP3    H211347   0.652   2.119   3.767
 3781TIP3   OH211348   4.985   2.855   4.522
 3781TIP3    H111349   4.976   2.950   4.529
 3781TIP3    H211350   5.021   2.840   4.435
 3782TIP3   OH211351   0.973   2.566   2.167
 3782TIP3    H111352   1.068   2.576   2.166
 3782TIP3    H211353   0.955   2.501   2.100
 3783TIP3   OH211354   1.237   1.540   0.096
 3783TIP3    H111355   1.210   1.557   0.006
 3783TIP3    H211356   1.333   1.543   0.094
 3784TIP3   OH211357   5.859   1.006   4.178
 3784TIP3    H111358   5.953   0.990   4.168
 3784TIP3    H211359   5.848   1.098   4.154
 3785TIP3   OH211360   2.050   4.190   4.944
 3785TIP3    H111361   2.059   4.208   5.038
 3785TIP3    H211362   2.138   4.203   4.909
 3786TIP3   OH211363   4.443   2.218   1.109
 3786TIP3    H111364   4.352   2.215   1.141
 3786TIP3    H211365   4.492   2.168   1.174
 3787TIP3   OH211366   0.057   0.002   2.354
 3787TIP3    H111367  -0.032  -0.031   2.369
 3787TIP3    H211368   0.104  -0.018   2.435
 3788TIP3   OH211369   3.501   4.868   4.985
 3788TIP3    H111370   3.458   4.948   4.955
 3788TIP3    H211371   3.562   4.846   4.914
 3789TIP3   OH211372   0.349   0.868   0.078
 3789TIP3    H111373   0.373   0.952   0.117
 3789TIP3    H211374   0.364   0.879  -0.015
 3790TIP3   OH211375   2.664   4.829   3.395
 3790TIP3    H111376   2.681   4.821   3.301
 3790TIP3    H211377   2.643   4.921   3.409
 3791TIP3   OH211378   4.371   4.722   3.963
 3791TIP3    H111379   4.388   4.650   4.025
 3791TIP3    H211380   4.298   4.770   4.001
 3792TIP3   OH211381   1.982   2.441   5.156
 3792TIP3    H111382   1.943   2.394   5.083
 3792TIP3    H211383   2.075   2.446   5.135
 3793TIP3   OH211384   5.369   1.044   0.168
 3793TIP3    H111385   5.286   1.076   0.202
 3793TIP3    H211386   5.406   0.992   0.239
 3794TIP3   OH211387   2.552   5.016   4.465
 3794TIP3    H111388   2.502   4.987   4.388
 3794TIP3    H211389   2.502   4.983   4.540
 3795TIP3   OH211390   0.337   4.147   4.885
 3795TIP3    H111391   0.393   4.132   4.962
 3795TIP3    H211392   0.270   4.209   4.916
 3796TIP3   OH211393   0.465   2.018   3.083
 3796TIP3    H111394   0.510   2.092   3.123
 3796TIP3    H211395   0.434   1.966   3.158
 3797TIP3   OH211396   0.240   4.221   3.978
 3797TIP3    H111397   0.243   4.159   3.906
 3797TIP3    H211398   0.193   4.175   4.047
 3798TIP3   OH211399   4.193   1.049   3.978
 3798TIP3    H111400   4.237   1.121   3.931
 3798TIP3    H211401   4.131   1.094   4.036
 3799TIP3   OH211402   6.049   5.532   3.713
 3799TIP3    H111403   6.082   5.443   3.710
 3799TIP3    H211404   5.954   5.523   3.706
 3800TIP3   OH211405   0.328   4.395   2.907
 3800TIP3    H111406   0.358   4.414   2.818
 3800TIP3    H211407   0.283   4.474   2.935
 3801TIP3   OH211408   0.269   2.615   0.417
 3801TIP3    H111409   0.305   2.665   0.490
 3801TIP3    H211410   0.234   2.535   0.456
 3802TIP3   OH211411   4.913   2.548   1.661
 3802TIP3    H111412   4.858   2.609   1.612
 3802TIP3    H211413   4.973   2.605   1.710
 3803TIP3   OH211414   4.037   0.826   2.124
 3803TIP3    H111415   4.084   0.784   2.196
 3803TIP3    H211416   3.983   0.893   2.167
 3804TIP3   OH211417   0.100   4.902   4.419
 3804TIP3    H111418   0.039   4.898   4.346
 3804TIP3    H211419   0.187   4.904   4.378
 3805TIP3   OH211420   1.867   4.593   2.130
 3805TIP3    H111421   1.928   4.658   2.095
 3805TIP3    H211422   1.781   4.630   2.114
 3806TIP3   OH211423   2.839   5.097   4.744
 3806TIP3    H111424   2.806   5.170   4.795
 3806TIP3    H211425   2.809   5.019   4.790
 3807TIP3   OH211426   2.680   4.714   1.580
 3807TIP3    H111427   2.704   4.806   1.568
 3807TIP3    H211428   2.761   4.665   1.564
 3808TIP3   OH211429   6.378   5.069   4.915
 3808TIP3    H111430   6.398   5.036   4.828
 3808TIP3    H211431   6.293   5.112   4.906
 3809TIP3   OH211432   3.551   4.414   3.688
 3809TIP3    H111433   3.634   4.460   3.696
 3809TIP3    H211434   3.558   4.339   3.748
 3810TIP3   OH211435   4.894   2.593   4.095
 3810TIP3    H111436   4.868   2.544   4.173
 3810TIP3    H211437   4.870   2.535   4.022
 3811TIP3   OH211438   2.261   2.464   1.261
 3811TIP3    H111439   2.311   2.510   1.193
 3811TIP3    H211440   2.288   2.373   1.252
 3812TIP3   OH211441   2.539   0.389   0.947
 3812TIP3    H111442   2.597   0.388   0.871
 3812TIP3    H211443   2.463   0.438   0.919
 3813TIP3   OH211444   5.337   2.408   1.089
 3813TIP3    H111445   5.258   2.359   1.109
 3813TIP3    H211446   5.391   2.401   1.167
 3814TIP3   OH211447   0.364   1.340   3.123
 3814TIP3    H111448   0.438   1.358   3.182
 3814TIP3    H211449   0.301   1.409   3.144
 3815TIP3   OH211450   4.500   1.040   0.413
 3815TIP3    H111451   4.537   0.959   0.450
 3815TIP3    H211452   4.485   1.096   0.489
 3816TIP3   OH211453   0.826   4.339   4.272
 3816TIP3    H111454   0.792   4.330   4.183
 3816TIP3    H211455   0.757   4.303   4.328
 3817TIP3   OH211456   0.298   1.653   2.354
 3817TIP3    H111457   0.351   1.589   2.305
 3817TIP3    H211458   0.208   1.630   2.334
 3818TIP3   OH211459   4.999   4.046   4.201
 3818TIP3    H111460   5.031   4.135   4.219
 3818TIP3    H211461   5.043   3.991   4.265
 3819TIP3   OH211462   5.841   5.818   4.368
 3819TIP3    H111463   5.899   5.891   4.344
 3819TIP3    H211464   5.752   5.854   4.360
 3820TIP3   OH211465   2.686   1.413   1.086
 3820TIP3    H111466   2.756   1.476   1.099
 3820TIP3    H211467   2.730   1.331   1.063
 3821TIP3   OH211468   0.802   4.187   0.744
 3821TIP3    H111469   0.754   4.201   0.663
 3821TIP3    H211470   0.758   4.112   0.785
 3822TIP3   OH211471   5.898   3.149   0.294
 3822TIP3    H111472   5.962   3.139   0.223
 3822TIP3    H211473   5.944   3.198   0.361
 3823TIP3   OH211474   5.363   0.735   2.085
 3823TIP3    H111475   5.274   0.770   2.084
 3823TIP3    H211476   5.381   0.713   1.994
 3824TIP3   OH211477   0.350   4.843   1.387
 3824TIP3    H111478   0.402   4.781   1.335
 3824TIP3    H211479   0.293   4.788   1.440
 3825TIP3   OH211480   3.417   3.896   2.899
 3825TIP3    H111481   3.511   3.913   2.913
 3825TIP3    H211482   3.399   3.818   2.952
 3826TIP3   OH211483   2.577   4.363   2.064
 3826TIP3    H111484   2.591   4.296   1.997
 3826TIP3    H211485   2.632   4.336   2.137
 3827TIP3   OH211486   1.613   4.058   3.347
 3827TIP3    H111487   1.687   4.095   3.298
 3827TIP3    H211488   1.602   4.117   3.421
 3828TIP3   OH211489   3.708   1.212   0.110
 3828TIP3    H111490   3.694   1.285   0.050
 3828TIP3    H211491   3.736   1.253   0.192
 3829TIP3   OH211492   2.784   1.649   2.870
 3829TIP3    H111493   2.828   1.638   2.786
 3829TIP3    H211494   2.719   1.717   2.855
 3830TIP3   OH211495   3.335   3.244   4.604
 3830TIP3    H111496   3.378   3.228   4.688
 3830TIP3    H211497   3.312   3.337   4.605
 3831TIP3   OH211498   5.139   2.513   3.357
 3831TIP3    H111499   5.119   2.592   3.306
 3831TIP3    H211500   5.205   2.542   3.420
 3832TIP3   OH211501   0.249   0.306   1.011
 3832TIP3    H111502   0.288   0.382   1.054
 3832TIP3    H211503   0.301   0.232   1.041
 3833TIP3   OH211504   0.953   1.600   1.772
 3833TIP3    H111505   0.946   1.543   1.696
 3833TIP3    H211506   1.006   1.551   1.835
 3834TIP3   OH211507   2.423   5.830   0.227
 3834TIP3    H111508   2.471   5.909   0.201
 3834TIP3    H211509   2.454   5.811   0.315
 3835TIP3   OH211510   2.632   0.401   3.278
 3835TIP3    H111511   2.705   0.343   3.301
 3835TIP3    H211512   2.670   0.488   3.276
 3836TIP3   OH211513   0.075   1.489   2.065
 3836TIP3    H111514   0.067   1.506   1.971
 3836TIP3    H211515   0.006   1.427   2.085
 3837TIP3   OH211516   0.109   1.254   2.430
 3837TIP3    H111517   0.033   1.261   2.372
 3837TIP3    H211518   0.178   1.302   2.384
 3838TIP3   OH211519   5.039   3.654   0.496
 3838TIP3    H111520   4.945   3.671   0.492
 3838TIP3    H211521   5.078   3.737   0.522
 3839TIP3   OH211522   1.736   3.804   5.088
 3839TIP3    H111523   1.759   3.776   5.177
 3839TIP3    H211524   1.811   3.855   5.058
 3840TIP3   OH211525   3.321   1.304   5.002
 3840TIP3    H111526   3.370   1.316   4.920
 3840TIP3    H211527   3.335   1.212   5.025
 3841TIP3   OH211528   5.736   5.056   1.792
 3841TIP3    H111529   5.729   4.966   1.761
 3841TIP3    H211530   5.683   5.058   1.872
 3842TIP3   OH211531   4.759   3.998   3.751
 3842TIP3    H111532   4.803   4.008   3.835
 3842TIP3    H211533   4.820   4.035   3.687
 3843TIP3   OH211534   2.508   5.444   2.450
 3843TIP3    H111535   2.422   5.408   2.429
 3843TIP3    H211536   2.504   5.535   2.422
 3844TIP3   OH211537   2.742   0.478   2.273
 3844TIP3    H111538   2.835   0.456   2.278
 3844TIP3    H211539   2.740   0.564   2.231
 3845TIP3   OH211540   1.049   0.408   1.459
 3845TIP3    H111541   1.015   0.320   1.443
 3845TIP3    H211542   1.060   0.446   1.372
 3846TIP3   OH211543   2.426   5.011   2.262
 3846TIP3    H111544   2.443   4.917   2.256
 3846TIP3    H211545   2.375   5.031   2.184
 3847TIP3   OH211546   5.051   0.136   3.481
 3847TIP3    H111547   5.043   0.215   3.427
 3847TIP3    H211548   4.983   0.147   3.548
 3848TIP3   OH211549   6.026   3.797   4.690
 3848TIP3    H111550   5.968   3.830   4.622
 3848TIP3    H211551   6.067   3.875   4.726
 3849TIP3   OH211552   2.142   1.383   1.518
 3849TIP3    H111553   2.185   1.411   1.438
 3849TIP3    H211554   2.048   1.393   1.500
 3850TIP3   OH211555   2.673   3.036   2.290
 3850TIP3    H111556   2.705   2.986   2.365
 3850TIP3    H211557   2.735   3.016   2.220
 3851TIP3   OH211558   0.288   3.639   1.056
 3851TIP3    H111559   0.210   3.584   1.042
 3851TIP3    H211560   0.270   3.684   1.139
 3852TIP3   OH211561   4.190   0.873   5.196
 3852TIP3    H111562   4.112   0.823   5.218
 3852TIP3    H211563   4.174   0.905   5.107
 3853TIP3   OH211564   0.694   1.600   1.587
 3853TIP3    H111565   0.664   1.532   1.648
 3853TIP3    H211566   0.759   1.557   1.533
 3854TIP3   OH211567   1.420   1.420   3.872
 3854TIP3    H111568   1.382   1.360   3.807
 3854TIP3    H211569   1.345   1.466   3.909
 3855TIP3   OH211570   0.676   5.213   3.752
 3855TIP3    H111571   0.738   5.222   3.824
 3855TIP3    H211572   0.692   5.125   3.717
 3856TIP3   OH211573   4.136   2.203   2.364
 3856TIP3    H111574   4.156   2.290   2.328
 3856TIP3    H211575   4.197   2.192   2.436
 3857TIP3   OH211576   2.586   1.279   4.591
 3857TIP3    H111577   2.599   1.236   4.506
 3857TIP3    H211578   2.587   1.372   4.570
 3858TIP3   OH211579   4.780   1.056   4.964
 3858TIP3    H111580   4.708   1.065   4.902
 3858TIP3    H211581   4.858   1.078   4.914
 3859TIP3   OH211582   4.913   0.940   0.997
 3859TIP3    H111583   4.911   0.977   0.909
 3859TIP3    H211584   4.943   0.850   0.985
 3860TIP3   OH211585   3.253   2.032   1.263
 3860TIP3    H111586   3.237   2.061   1.173
 3860TIP3    H211587   3.166   2.023   1.301
 3861TIP3   OH211588   3.291   4.836   4.047
 3861TIP3    H111589   3.245   4.807   3.969
 3861TIP3    H211590   3.358   4.769   4.062
 3862TIP3   OH211591   0.397   1.953   2.647
 3862TIP3    H111592   0.373   2.016   2.715
 3862TIP3    H211593   0.493   1.951   2.649
 3863TIP3   OH211594   5.070   0.560   2.415
 3863TIP3    H111595   5.115   0.618   2.478
 3863TIP3    H211596   5.058   0.479   2.463
 3864TIP3   OH211597   2.228   2.455   3.923
 3864TIP3    H111598   2.162   2.429   3.859
 3864TIP3    H211599   2.190   2.431   4.008
 3865TIP3   OH211600   1.767   0.619   0.381
 3865TIP3    H111601   1.790   0.712   0.392
 3865TIP3    H211602   1.836   0.583   0.326
 3866TIP3   OH211603   2.743   0.213   2.046
 3866TIP3    H111604   2.819   0.173   2.003
 3866TIP3    H211605   2.698   0.140   2.087
 3867TIP3   OH211606   1.315   4.473   0.981
 3867TIP3    H111607   1.257   4.535   1.026
 3867TIP3    H211608   1.386   4.527   0.947
 3868TIP3   OH211609   2.519   1.617   3.739
 3868TIP3    H111610   2.599   1.643   3.785
 3868TIP3    H211611   2.451   1.673   3.775
 3869TIP3   OH211612   3.741   1.733   0.641
 3869TIP3    H111613   3.657   1.775   0.660
 3869TIP3    H211614   3.800   1.763   0.711
 3870TIP3   OH211615   0.154   0.806   0.247
 3870TIP3    H111616   0.188   0.854   0.322
 3870TIP3    H211617   0.214   0.827   0.176
 3871TIP3   OH211618   2.274   2.425   4.556
 3871TIP3    H111619   2.189   2.428   4.599
 3871TIP3    H211620   2.300   2.333   4.559
 3872TIP3   OH211621   1.166   3.060   0.814
 3872TIP3    H111622   1.249   3.051   0.859
 3872TIP3    H211623   1.152   2.976   0.771
 3873TIP3   OH211624   0.201   2.067   2.356
 3873TIP3    H111625   0.204   1.993   2.416
 3873TIP3    H211626   0.278   2.055   2.299
 3874TIP3   OH211627   1.460   0.743   3.290
 3874TIP3    H111628   1.434   0.743   3.197
 3874TIP3    H211629   1.545   0.787   3.290
 3875TIP3   OH211630   1.347   4.291   1.195
 3875TIP3    H111631   1.261   4.252   1.209
 3875TIP3    H211632   1.338   4.342   1.114
 3876TIP3   OH211633   0.613   3.823   2.925
 3876TIP3    H111634   0.650   3.840   3.012
 3876TIP3    H211635   0.642   3.734   2.904
 3877TIP3   OH211636   4.467   5.534   3.223
 3877TIP3    H111637   4.452   5.446   3.189
 3877TIP3    H211638   4.441   5.592   3.152
 3878TIP3   OH211639   5.647   2.329   2.508
 3878TIP3    H111640   5.656   2.272   2.584
 3878TIP3    H211641   5.732   2.326   2.465
 3879TIP3   OH211642   4.356   3.581   3.116
 3879TIP3    H111643   4.394   3.515   3.173
 3879TIP3    H211644   4.425   3.647   3.106
 3880TIP3   OH211645   2.840   2.190   2.122
 3880TIP3    H111646   2.832   2.095   2.109
 3880TIP3    H211647   2.839   2.200   2.218
 3881TIP3   OH211648   6.222   0.434   0.217
 3881TIP3    H111649   6.211   0.434   0.122
 3881TIP3    H211650   6.260   0.520   0.236
 3882TIP3   OH211651   2.882   4.680   0.899
 3882TIP3    H111652   2.950   4.627   0.940
 3882TIP3    H211653   2.907   4.770   0.917
 3883TIP3   OH211654   1.678   0.367   0.850
 3883TIP3    H111655   1.773   0.360   0.853
 3883TIP3    H211656   1.658   0.382   0.757
 3884TIP3   OH211657   0.666   5.881   2.636
 3884TIP3    H111658   0.642   5.860   2.545
 3884TIP3    H211659   0.741   5.825   2.655
 3885TIP3   OH211660   4.279   2.723   3.629
 3885TIP3    H111661   4.362   2.682   3.651
 3885TIP3    H211662   4.254   2.684   3.545
 3886TIP3   OH211663   1.510   3.446   2.560
 3886TIP3    H111664   1.561   3.414   2.486
 3886TIP3    H211665   1.563   3.425   2.637
 3887TIP3   OH211666   3.344   1.465   4.354
 3887TIP3    H111667   3.409   1.453   4.285
 3887TIP3    H211668   3.267   1.500   4.309
 3888TIP3   OH211669   3.013   1.388   1.553
 3888TIP3    H111670   3.000   1.457   1.617
 3888TIP3    H211671   3.044   1.313   1.604
 3889TIP3   OH211672   4.761   2.490   0.727
 3889TIP3    H111673   4.842   2.452   0.762
 3889TIP3    H211674   4.721   2.419   0.676
 3890TIP3   OH211675   0.216   1.798   0.094
 3890TIP3    H111676   0.180   1.840   0.172
 3890TIP3    H211677   0.224   1.705   0.118
 3891TIP3   OH211678   2.879   0.548   1.885
 3891TIP3    H111679   2.799   0.526   1.934
 3891TIP3    H211680   2.950   0.525   1.945
 3892TIP3   OH211681   5.455   2.808   2.010
 3892TIP3    H111682   5.382   2.814   2.073
 3892TIP3    H211683   5.417   2.838   1.927
 3893TIP3   OH211684   4.278   3.308   2.145
 3893TIP3    H111685   4.338   3.238   2.173
 3893TIP3    H211686   4.323   3.349   2.071
 3894TIP3   OH211687   2.051   3.181   4.581
 3894TIP3    H111688   1.969   3.146   4.616
 3894TIP3    H211689   2.119   3.125   4.618
 3895TIP3   OH211690   6.279   2.356   1.929
 3895TIP3    H111691   6.234   2.390   1.852
 3895TIP3    H211692   6.321   2.432   1.968
 3896TIP3   OH211693   4.542   3.895   2.538
 3896TIP3    H111694   4.506   3.897   2.450
 3896TIP3    H211695   4.542   3.802   2.562
 3897TIP3   OH211696   3.728   5.423   4.208
 3897TIP3    H111697   3.743   5.378   4.125
 3897TIP3    H211698   3.747   5.515   4.189
 3898TIP3   OH211699   3.091   0.375   4.006
 3898TIP3    H111700   3.101   0.285   3.975
 3898TIP3    H211701   3.172   0.418   3.980
 3899TIP3   OH211702   1.289   5.395   5.130
 3899TIP3    H111703   1.219   5.342   5.092
 3899TIP3    H211704   1.369   5.352   5.100
 3900TIP3   OH211705   0.057   2.593   1.997
 3900TIP3    H111706   0.112   2.574   1.921
 3900TIP3    H211707   0.026   2.682   1.983
 3901TIP3   OH211708   3.038   2.900   0.089
 3901TIP3    H111709   2.950   2.864   0.077
 3901TIP3    H211710   3.026   2.976   0.146
 3902TIP3   OH211711   0.224   5.196   3.253
 3902TIP3    H111712   0.236   5.258   3.325
 3902TIP3    H211713   0.131   5.175   3.254
 3903TIP3   OH211714   5.990   2.464   2.148
 3903TIP3    H111715   5.940   2.385   2.168
 3903TIP3    H211716   6.066   2.459   2.205
 3904TIP3   OH211717   3.775   4.080   4.685
 3904TIP3    H111718   3.698   4.047   4.732
 3904TIP3    H211719   3.807   4.004   4.635
 3905TIP3   OH211720   2.370   4.027   0.934
 3905TIP3    H111721   2.276   4.027   0.954
 3905TIP3    H211722   2.400   4.113   0.964
 3906TIP3   OH211723   4.707   0.406   2.419
 3906TIP3    H111724   4.632   0.420   2.361
 3906TIP3    H211725   4.749   0.492   2.425
 3907TIP3   OH211726   5.880   3.129   1.559
 3907TIP3    H111727   5.835   3.087   1.632
 3907TIP3    H211728   5.843   3.087   1.481
 3908TIP3   OH211729   5.351   5.008   3.217
 3908TIP3    H111730   5.371   5.040   3.305
 3908TIP3    H211731   5.328   5.087   3.168
 3909TIP3   OH211732   3.190   1.662   1.336
 3909TIP3    H111733   3.178   1.573   1.368
 3909TIP3    H211734   3.146   1.717   1.401
 3910TIP3   OH211735   4.154   1.141   4.809
 3910TIP3    H111736   4.174   1.186   4.891
 3910TIP3    H211737   4.069   1.176   4.783
 3911TIP3   OH211738   2.529  -0.011   1.673
 3911TIP3    H111739   2.543   0.078   1.705
 3911TIP3    H211740   2.616  -0.039   1.643
 3912TIP3   OH211741   1.460   5.709   4.506
 3912TIP3    H111742   1.377   5.755   4.524
 3912TIP3    H211743   1.447   5.621   4.542
 3913TIP3   OH211744   2.410   0.136   1.436
 3913TIP3    H111745   2.340   0.136   1.370
 3913TIP3    H211746   2.370   0.094   1.513
 3914TIP3   OH211747   3.075   5.095   1.973
 3914TIP3    H111748   3.098   5.181   1.938
 3914TIP3    H211749   2.979   5.099   1.984
 3915TIP3   OH211750   1.780   5.172   3.138
 3915TIP3    H111751   1.709   5.166   3.202
 3915TIP3    H211752   1.737   5.199   3.057
 3916TIP3   OH211753   3.153   3.090   1.382
 3916TIP3    H111754   3.235   3.117   1.342
 3916TIP3    H211755   3.107   3.172   1.401
 3917TIP3   OH211756   0.307   2.797   2.140
 3917TIP3    H111757   0.362   2.719   2.150
 3917TIP3    H211758   0.267   2.809   2.226
 3918TIP3   OH211759   0.919   5.918   0.399
 3918TIP3    H111760   0.908   5.842   0.342
 3918TIP3    H211761   0.829   5.944   0.421
 3919TIP3   OH211762   1.932   3.298   3.311
 3919TIP3    H111763   2.006   3.314   3.252
 3919TIP3    H211764   1.890   3.384   3.320
 3920TIP3   OH211765   5.385   0.572   2.296
 3920TIP3    H111766   5.480   0.563   2.284
 3920TIP3    H211767   5.358   0.634   2.229
 3921TIP3   OH211768   2.673   1.959   0.740
 3921TIP3    H111769   2.594   1.907   0.747
 3921TIP3    H211770   2.645   2.039   0.695
 3922TIP3   OH211771   3.681   0.088   1.720
 3922TIP3    H111772   3.660   0.018   1.658
 3922TIP3    H211773   3.748   0.140   1.676
 3923TIP3   OH211774   3.088   0.615   1.508
 3923TIP3    H111775   3.101   0.677   1.580
 3923TIP3    H211776   3.017   0.559   1.538
 3924TIP3   OH211777   4.883   4.815   2.503
 3924TIP3    H111778   4.907   4.840   2.414
 3924TIP3    H211779   4.820   4.744   2.491
 3925TIP3   OH211780   3.136   2.287   3.165
 3925TIP3    H111781   3.112   2.295   3.257
 3925TIP3    H211782   3.054   2.267   3.121
 3926TIP3   OH211783   6.163   3.237   0.148
 3926TIP3    H111784   6.226   3.166   0.161
 3926TIP3    H211785   6.146   3.238   0.054
 3927TIP3   OH211786   0.049   3.453   2.344
 3927TIP3    H111787   0.004   3.373   2.314
 3927TIP3    H211788   0.126   3.421   2.390
 3928TIP3   OH211789   3.438   0.152   4.772
 3928TIP3    H111790   3.424   0.079   4.831
 3928TIP3    H211791   3.433   0.114   4.684
 3929TIP3   OH211792   6.253   0.724   0.866
 3929TIP3    H111793   6.191   0.686   0.928
 3929TIP3    H211794   6.231   0.817   0.863
 3930TIP3   OH211795   0.567   0.947   5.215
 3930TIP3    H111796   0.524   0.969   5.133
 3930TIP3    H211797   0.655   0.921   5.189
 3931TIP3   OH211798   3.135   2.035   1.000
 3931TIP3    H111799   3.055   2.063   0.955
 3931TIP3    H211800   3.126   1.940   1.006
 3932TIP3   OH211801   4.439   5.702   3.003
 3932TIP3    H111802   4.519   5.735   2.963
 3932TIP3    H211803   4.404   5.640   2.939
 3933TIP3   OH211804   2.063   3.278   0.326
 3933TIP3    H111805   2.110   3.344   0.376
 3933TIP3    H211806   2.013   3.230   0.391
 3934TIP3   OH211807   0.693   2.721   2.583
 3934TIP3    H111808   0.680   2.703   2.490
 3934TIP3    H211809   0.615   2.685   2.626
 3935TIP3   OH211810   1.550   2.393   0.258
 3935TIP3    H111811   1.639   2.372   0.231
 3935TIP3    H211812   1.497   2.377   0.179
 3936TIP3   OH211813   0.283   1.053   2.163
 3936TIP3    H111814   0.297   1.133   2.112
 3936TIP3    H211815   0.346   1.059   2.235
 3937TIP3   OH211816   4.449   0.745   3.535
 3937TIP3    H111817   4.504   0.674   3.566
 3937TIP3    H211818   4.440   0.805   3.609
 3938TIP3   OH211819   4.571   5.080   3.540
 3938TIP3    H111820   4.572   5.171   3.512
 3938TIP3    H211821   4.497   5.073   3.599
 3939TIP3   OH211822   0.459   0.880   4.449
 3939TIP3    H111823   0.426   0.923   4.370
 3939TIP3    H211824   0.428   0.790   4.442
 3940TIP3   OH211825   3.934   1.475   4.721
 3940TIP3    H111826   3.885   1.536   4.778
 3940TIP3    H211827   3.890   1.391   4.734
 3941TIP3   OH211828   6.149   3.131   1.150
 3941TIP3    H111829   6.079   3.104   1.091
 3941TIP3    H211830   6.209   3.057   1.152
 3942TIP3   OH211831   2.045   3.224   2.293
 3942TIP3    H111832   2.067   3.151   2.352
 3942TIP3    H211833   2.072   3.193   2.206
 3943TIP3   OH211834   4.535   1.777   1.312
 3943TIP3    H111835   4.568   1.688   1.301
 3943TIP3    H211836   4.454   1.780   1.261
 3944TIP3   OH211837   1.042   5.933   3.735
 3944TIP3    H111838   0.955   5.921   3.698
 3944TIP3    H211839   1.070   5.845   3.760
 3945TIP3   OH211840   2.137   3.584  -0.012
 3945TIP3    H111841   2.199   3.564   0.057
 3945TIP3    H211842   2.123   3.501  -0.057
 3946TIP3   OH211843   5.408   0.158   3.353
 3946TIP3    H111844   5.449   0.218   3.414
 3946TIP3    H211845   5.390   0.079   3.405
 3947TIP3   OH211846   1.965   2.268   4.932
 3947TIP3    H111847   2.018   2.241   4.856
 3947TIP3    H211848   1.875   2.248   4.907
 3948TIP3   OH211849   0.008   2.706   2.966
 3948TIP3    H111850  -0.001   2.796   2.996
 3948TIP3    H211851   0.061   2.712   2.887
 3949TIP3   OH211852   0.759   5.383   1.646
 3949TIP3    H111853   0.690   5.328   1.610
 3949TIP3    H211854   0.782   5.342   1.729
 3950TIP3   OH211855   4.424   1.536   0.145
 3950TIP3    H111856   4.371   1.576   0.213
 3950TIP3    H211857   4.511   1.528   0.183
 3951TIP3   OH211858   2.496   4.636   4.138
 3951TIP3    H111859   2.466   4.608   4.051
 3951TIP3    H211860   2.432   4.597   4.199
 3952TIP3   OH211861   6.173   2.749   4.267
 3952TIP3    H111862   6.083   2.774   4.249
 3952TIP3    H211863   6.176   2.737   4.362
 3953TIP3   OH211864   1.922   1.761   4.940
 3953TIP3    H111865   2.001   1.710   4.957
 3953TIP3    H211866   1.930   1.838   4.996
 3954TIP3   OH211867   1.319   0.678   4.216
 3954TIP3    H111868   1.285   0.634   4.294
 3954TIP3    H211869   1.412   0.692   4.235
 3955TIP3   OH211870   2.487   5.437   3.385
 3955TIP3    H111871   2.493   5.422   3.291
 3955TIP3    H211872   2.501   5.531   3.395
 3956TIP3   OH211873   5.665   4.489   4.919
 3956TIP3    H111874   5.705   4.571   4.888
 3956TIP3    H211875   5.668   4.431   4.843
 3957TIP3   OH211876   3.025   5.462   2.339
 3957TIP3    H111877   3.074   5.449   2.420
 3957TIP3    H211878   3.005   5.556   2.337
 3958TIP3   OH211879   2.247   2.044   0.958
 3958TIP3    H111880   2.300   1.976   0.916
 3958TIP3    H211881   2.210   2.094   0.885
 3959TIP3   OH211882   3.130   1.780   3.464
 3959TIP3    H111883   3.135   1.733   3.548
 3959TIP3    H211884   3.062   1.733   3.415
 3960TIP3   OH211885   4.175   4.143   5.116
 3960TIP3    H111886   4.197   4.054   5.089
 3960TIP3    H211887   4.260   4.185   5.132
 3961TIP3   OH211888   3.222   4.729   1.521
 3961TIP3    H111889   3.229   4.822   1.543
 3961TIP3    H211890   3.312   4.703   1.499
 3962TIP3   OH211891   3.831   1.769   0.395
 3962TIP3    H111892   3.793   1.759   0.482
 3962TIP3    H211893   3.909   1.822   0.409
 3963TIP3   OH211894   0.204   1.443   4.610
 3963TIP3    H111895   0.260   1.411   4.540
 3963TIP3    H211896   0.183   1.365   4.662
 3964TIP3   OH211897   4.182   4.312   1.306
 3964TIP3    H111898   4.145   4.254   1.240
 3964TIP3    H211899   4.108   4.336   1.361
 3965TIP3   OH211900   6.008   3.023   0.928
 3965TIP3    H111901   6.032   2.937   0.962
 3965TIP3    H211902   6.020   3.016   0.833
 3966TIP3   OH211903   5.609   2.269   4.546
 3966TIP3    H111904   5.670   2.264   4.473
 3966TIP3    H211905   5.599   2.179   4.576
 3967TIP3   OH211906   4.094   2.396   3.398
 3967TIP3    H111907   4.007   2.404   3.439
 3967TIP3    H211908   4.121   2.306   3.416
 3968TIP3   OH211909   4.331   2.546   0.234
 3968TIP3    H111910   4.333   2.604   0.157
 3968TIP3    H211911   4.246   2.564   0.274
 3969TIP3   OH211912   5.991   4.059   3.247
 3969TIP3    H111913   6.002   4.151   3.273
 3969TIP3    H211914   6.063   4.014   3.291
 3970TIP3   OH211915   1.697   3.759   3.442
 3970TIP3    H111916   1.676   3.715   3.524
 3970TIP3    H211917   1.622   3.817   3.427
 3971TIP3   OH211918   2.152   5.786   0.207
 3971TIP3    H111919   2.165   5.691   0.199
 3971TIP3    H211920   2.240   5.823   0.202
 3972TIP3   OH211921   4.673   0.323   3.844
 3972TIP3    H111922   4.648   0.345   3.934
 3972TIP3    H211923   4.744   0.384   3.823
 3973TIP3   OH211924   3.968   0.702   2.799
 3973TIP3    H111925   4.011   0.787   2.806
 3973TIP3    H211926   4.027   0.650   2.744
 3974TIP3   OH211927   4.337   0.249   4.263
 3974TIP3    H111928   4.284   0.241   4.184
 3974TIP3    H211929   4.316   0.171   4.315
 3975TIP3   OH211930   3.761   5.086   4.610
 3975TIP3    H111931   3.676   5.104   4.650
 3975TIP3    H211932   3.772   5.153   4.543
 3976TIP3   OH211933   1.011   2.670   3.120
 3976TIP3    H111934   0.923   2.683   3.083
 3976TIP3    H211935   0.998   2.603   3.187
 3977TIP3   OH211936   1.814   1.840   0.115
 3977TIP3    H111937   1.847   1.750   0.120
 3977TIP3    H211938   1.778   1.847   0.026
 3978TIP3   OH211939   0.079   4.734  -0.002
 3978TIP3    H111940   0.011   4.734   0.065
 3978TIP3    H211941   0.138   4.663   0.025
 3979TIP3   OH211942   4.129   1.372   2.403
 3979TIP3    H111943   4.178   1.328   2.472
 3979TIP3    H211944   4.196   1.397   2.339
 3980TIP3   OH211945   3.040   3.687   3.188
 3980TIP3    H111946   3.064   3.777   3.168
 3980TIP3    H211947   3.115   3.635   3.159
 3981TIP3   OH211948   4.900   0.418   0.242
 3981TIP3    H111949   4.903   0.323   0.251
 3981TIP3    H211950   4.953   0.451   0.315
 3982TIP3   OH211951   4.995   3.479   3.975
 3982TIP3    H111952   4.979   3.421   3.900
 3982TIP3    H211953   5.015   3.419   4.047
 3983TIP3   OH211954   3.563   5.754   2.816
 3983TIP3    H111955   3.537   5.834   2.862
 3983TIP3    H211956   3.501   5.688   2.845
 3984TIP3   OH211957   4.902   1.669   0.067
 3984TIP3    H111958   4.868   1.579   0.069
 3984TIP3    H211959   4.884   1.703   0.154
 3985TIP3   OH211960   3.756   5.357   2.420
 3985TIP3    H111961   3.773   5.381   2.329
 3985TIP3    H211962   3.697   5.424   2.453
 3986TIP3   OH211963   3.156   0.451   3.559
 3986TIP3    H111964   3.107   0.522   3.518
 3986TIP3    H211965   3.211   0.493   3.624
 3987TIP3   OH211966   1.240   4.033   3.874
 3987TIP3    H111967   1.146   4.035   3.889
 3987TIP3    H211968   1.271   4.117   3.906
 3988TIP3   OH211969   3.347   0.118   1.085
 3988TIP3    H111970   3.339   0.101   0.991
 3988TIP3    H211971   3.306   0.204   1.097
 3989TIP3   OH211972   4.792   0.401   1.517
 3989TIP3    H111973   4.716   0.343   1.521
 3989TIP3    H211974   4.755   0.487   1.495
 3990TIP3   OH211975   5.342   2.700   1.226
 3990TIP3    H111976   5.436   2.712   1.238
 3990TIP3    H211977   5.335   2.625   1.167
 3991TIP3   OH211978   6.060   1.948   0.743
 3991TIP3    H111979   6.018   1.871   0.783
 3991TIP3    H211980   6.111   1.986   0.815
 3992TIP3   OH211981   0.820   5.917   3.600
 3992TIP3    H111982   0.738   5.935   3.554
 3992TIP3    H211983   0.848   5.831   3.567
 3993TIP3   OH211984   0.752   4.785   3.279
 3993TIP3    H111985   0.713   4.755   3.362
 3993TIP3    H211986   0.738   4.880   3.280
 3994TIP3   OH211987   5.667   5.106   1.428
 3994TIP3    H111988   5.725   5.133   1.499
 3994TIP3    H211989   5.719   5.045   1.376
 3995TIP3   OH211990   2.132   3.218   0.588
 3995TIP3    H111991   2.154   3.283   0.655
 3995TIP3    H211992   2.049   3.181   0.617
 3996TIP3   OH211993   5.484   5.601   0.229
 3996TIP3    H111994   5.489   5.511   0.262
 3996TIP3    H211995   5.402   5.604   0.181
 3997TIP3   OH211996   0.151   3.266   3.532
 3997TIP3    H111997   0.220   3.215   3.575
 3997TIP3    H211998   0.075   3.209   3.533
 3998TIP3   OH211999   3.499   5.548   4.585
 3998TIP3    H112000   3.502   5.623   4.644
 3998TIP3    H212001   3.586   5.509   4.591
 3999TIP3   OH212002   1.953   5.875   3.571
 3999TIP3    H112003   2.048   5.883   3.565
 3999TIP3    H212004   1.920   5.964   3.563
 4000TIP3   OH212005   5.368   3.985   0.846
 4000TIP3    H112006   5.355   4.009   0.937
 4000TIP3    H212007   5.358   4.067   0.798
 4001TIP3   OH212008  -0.010   3.700   4.794
 4001TIP3    H112009  -0.037   3.777   4.743
 4001TIP3    H212010   0.050   3.735   4.861
 4002TIP3   OH212011   3.394   1.575   3.482
 4002TIP3    H112012   3.315   1.617   3.449
 4002TIP3    H212013   3.362   1.499   3.531
 4003TIP3   OH212014   3.013   0.734   3.437
 4003TIP3    H112015   2.987   0.753   3.347
 4003TIP3    H212016   3.090   0.790   3.452
 4004TIP3   OH212017   3.782   3.737   4.799
 4004TIP3    H112018   3.743   3.760   4.883
 4004TIP3    H212019   3.717   3.678   4.758
 4005TIP3   OH212020   4.763   5.301   1.391
 4005TIP3    H112021   4.674   5.313   1.425
 4005TIP3    H212022   4.774   5.206   1.388
 4006TIP3   OH212023   2.950   1.785   4.704
 4006TIP3    H112024   2.905   1.854   4.753
 4006TIP3    H212025   2.958   1.820   4.615
 4007TIP3   OH212026   4.250   1.762   4.853
 4007TIP3    H112027   4.192   1.813   4.797
 4007TIP3    H212028   4.194   1.728   4.923
 4008TIP3   OH212029   0.446   1.668   2.585
 4008TIP3    H112030   0.398   1.676   2.503
 4008TIP3    H212031   0.487   1.754   2.597
 4009TIP3   OH212032   6.124   5.214   4.913
 4009TIP3    H112033   6.065   5.279   4.953
 4009TIP3    H212034   6.164   5.261   4.840
 4010TIP3   OH212035   1.143   2.325   1.363
 4010TIP3    H112036   1.078   2.387   1.330
 4010TIP3    H212037   1.136   2.250   1.305
 4011TIP3   OH212038   5.525   3.777   4.274
 4011TIP3    H112039   5.550   3.725   4.350
 4011TIP3    H212040   5.564   3.863   4.290
 4012TIP3   OH212041   6.072   1.856   1.161
 4012TIP3    H112042   6.143   1.800   1.128
 4012TIP3    H212043   5.994   1.803   1.152
 4013TIP3   OH212044   0.130   2.313   1.349
 4013TIP3    H112045   0.161   2.312   1.258
 4013TIP3    H212046   0.180   2.384   1.390
 4014TIP3   OH212047   4.672   5.924   1.988
 4014TIP3    H112048   4.614   5.848   1.985
 4014TIP3    H212049   4.648   5.970   2.069
 4015TIP3   OH212050   5.412   5.663   1.409
 4015TIP3    H112051   5.449   5.682   1.495
 4015TIP3    H212052   5.426   5.744   1.359
 4016TIP3   OH212053   2.153   3.249   1.338
 4016TIP3    H112054   2.222   3.302   1.296
 4016TIP3    H212055   2.189   3.227   1.424
 4017TIP3   OH212056   1.109   3.576   3.277
 4017TIP3    H112057   1.042   3.512   3.253
 4017TIP3    H212058   1.192   3.533   3.256
 4018TIP3   OH212059   5.160   1.336   4.299
 4018TIP3    H112060   5.130   1.427   4.300
 4018TIP3    H212061   5.083   1.285   4.324
 4019TIP3   OH212062   4.004   2.620   1.716
 4019TIP3    H112063   4.009   2.524   1.722
 4019TIP3    H212064   4.094   2.650   1.720
 4020TIP3   OH212065   0.589   0.406   4.657
 4020TIP3    H112066   0.562   0.497   4.646
 4020TIP3    H212067   0.620   0.400   4.747
 4021TIP3   OH212068   4.283   1.538   2.210
 4021TIP3    H112069   4.255   1.521   2.121
 4021TIP3    H212070   4.369   1.579   2.201
 4022TIP3   OH212071   1.004   4.115   2.626
 4022TIP3    H112072   1.087   4.069   2.635
 4022TIP3    H212073   0.937   4.047   2.634
 4023TIP3   OH212074   5.405   5.352   4.129
 4023TIP3    H112075   5.333   5.361   4.066
 4023TIP3    H212076   5.398   5.262   4.160
 4024TIP3   OH212077   5.750   0.623   3.565
 4024TIP3    H112078   5.826   0.635   3.621
 4024TIP3    H212079   5.768   0.677   3.488
 4025TIP3   OH212080   0.141   4.717   1.857
 4025TIP3    H112081   0.076   4.751   1.919
 4025TIP3    H212082   0.209   4.783   1.855
 4026TIP3   OH212083   0.397   5.122   2.682
 4026TIP3    H112084   0.346   5.171   2.618
 4026TIP3    H212085   0.336   5.057   2.717
 4027TIP3   OH212086   1.015   1.766   2.492
 4027TIP3    H112087   0.979   1.691   2.539
 4027TIP3    H212088   1.085   1.798   2.549
 4028TIP3   OH212089   3.407   5.544   4.899
 4028TIP3    H112090   3.359   5.484   4.841
 4028TIP3    H212091   3.339   5.596   4.942
 4029TIP3   OH212092   5.472   1.768   2.788
 4029TIP3    H112093   5.458   1.754   2.882
 4029TIP3    H212094   5.519   1.689   2.760
 4030TIP3   OH212095   3.525   2.898   0.211
 4030TIP3    H112096   3.529   2.986   0.172
 4030TIP3    H212097   3.609   2.858   0.189
 4031TIP3   OH212098   0.346   0.330   1.992
 4031TIP3    H112099   0.439   0.318   1.971
 4031TIP3    H212100   0.345   0.402   2.055
 4032TIP3   OH212101   3.732   1.246   3.097
 4032TIP3    H112102   3.758   1.290   3.016
 4032TIP3    H212103   3.787   1.167   3.100
 4033TIP3   OH212104   4.804   3.039   0.752
 4033TIP3    H112105   4.869   3.032   0.821
 4033TIP3    H212106   4.745   3.108   0.781
 4034TIP3   OH212107   2.775   2.217   2.386
 4034TIP3    H112108   2.682   2.237   2.393
 4034TIP3    H212109   2.817   2.271   2.453
 4035TIP3   OH212110   4.778   0.202   0.657
 4035TIP3    H112111   4.767   0.296   0.669
 4035TIP3    H212112   4.700   0.175   0.608
 4036TIP3   OH212113   3.451   4.392   2.177
 4036TIP3    H112114   3.482   4.482   2.175
 4036TIP3    H212115   3.488   4.352   2.098
 4037TIP3   OH212116   0.936   5.117   4.316
 4037TIP3    H112117   0.931   5.041   4.259
 4037TIP3    H212118   0.857   5.112   4.370
 4038TIP3   OH212119   1.102   4.715   5.095
 4038TIP3    H112120   1.035   4.654   5.128
 4038TIP3    H212121   1.120   4.684   5.006
 4039TIP3   OH212122   4.719   2.706   1.218
 4039TIP3    H112123   4.807   2.730   1.188
 4039TIP3    H212124   4.703   2.619   1.182
 4040TIP3   OH212125   0.041   0.157   3.073
 4040TIP3    H112126   0.108   0.223   3.054
 4040TIP3    H212127  -0.027   0.173   3.007
 4041TIP3   OH212128   1.603   4.690   0.109
 4041TIP3    H112129   1.612   4.609   0.160
 4041TIP3    H212130   1.685   4.696   0.059
 4042TIP3   OH212131   0.278   2.349   0.122
 4042TIP3    H112132   0.325   2.360   0.040
 4042TIP3    H212133   0.344   2.321   0.185
 4043TIP3   OH212134   2.818   0.994   3.725
 4043TIP3    H112135   2.738   1.036   3.695
 4043TIP3    H212136   2.854   1.053   3.790
 4044TIP3   OH212137   3.886   2.860   4.074
 4044TIP3    H112138   3.905   2.831   3.985
 4044TIP3    H212139   3.812   2.806   4.102
 4045TIP3   OH212140   4.931   4.494   1.133
 4045TIP3    H112141   4.887   4.484   1.218
 4045TIP3    H212142   5.017   4.453   1.145
 4046TIP3   OH212143   3.020   0.164   3.467
 4046TIP3    H112144   2.976   0.124   3.391
 4046TIP3    H212145   3.021   0.094   3.532
 4047TIP3   OH212146   2.356   0.375   1.260
 4047TIP3    H112147   2.395   0.461   1.245
 4047TIP3    H212148   2.409   0.337   1.330
 4048TIP3   OH212149   5.057   1.935   0.194
 4048TIP3    H112150   5.019   2.004   0.140
 4048TIP3    H212151   4.981   1.887   0.228
 4049TIP3   OH212152   2.969   4.366   1.284
 4049TIP3    H112153   2.917   4.408   1.215
 4049TIP3    H212154   2.911   4.367   1.361
 4050TIP3   OH212155   1.463   1.000   1.510
 4050TIP3    H112156   1.529   1.041   1.566
 4050TIP3    H212157   1.380   1.012   1.557
 4051TIP3   OH212158   1.294   2.382   0.373
 4051TIP3    H112159   1.389   2.381   0.363
 4051TIP3    H212160   1.265   2.458   0.322
 4052TIP3   OH212161   2.196   1.954   4.868
 4052TIP3    H112162   2.254   1.901   4.813
 4052TIP3    H212163   2.133   1.993   4.807
 4053TIP3   OH212164   0.166   2.650   1.105
 4053TIP3    H112165   0.143   2.678   1.194
 4053TIP3    H212166   0.124   2.564   1.096
 4054TIP3   OH212167   2.399   4.937   0.774
 4054TIP3    H112168   2.352   5.020   0.770
 4054TIP3    H212169   2.405   4.908   0.683
 4055TIP3   OH212170   5.526   0.832   2.275
 4055TIP3    H112171   5.444   0.835   2.225
 4055TIP3    H212172   5.570   0.752   2.246
 4056TIP3   OH212173   2.152   0.217   0.002
 4056TIP3    H112174   2.067   0.184   0.033
 4056TIP3    H212175   2.216   0.167   0.051
 4057TIP3   OH212176   0.752   4.620   4.248
 4057TIP3    H112177   0.803   4.541   4.263
 4057TIP3    H212178   0.672   4.606   4.299
 4058TIP3   OH212179   5.205   0.078   4.055
 4058TIP3    H112180   5.266   0.095   4.127
 4058TIP3    H212181   5.123   0.053   4.098
 4059TIP3   OH212182   6.269   4.797   2.027
 4059TIP3    H112183   6.246   4.872   2.081
 4059TIP3    H212184   6.223   4.723   2.068
 4060TIP3   OH212185   4.665   2.897   2.102
 4060TIP3    H112186   4.737   2.837   2.118
 4060TIP3    H212187   4.586   2.847   2.125
 4061TIP3   OH212188   5.701   2.392   0.713
 4061TIP3    H112189   5.655   2.429   0.788
 4061TIP3    H212190   5.791   2.380   0.743
 4062TIP3   OH212191   2.802   1.111   1.942
 4062TIP3    H112192   2.756   1.029   1.960
 4062TIP3    H212193   2.841   1.135   2.027
 4063TIP3   OH212194   0.184   0.077   4.362
 4063TIP3    H112195   0.244   0.003   4.347
 4063TIP3    H212196   0.130   0.079   4.283
 4064TIP3   OH212197   5.802   0.953   2.669
 4064TIP3    H112198   5.823   0.919   2.756
 4064TIP3    H212199   5.802   0.875   2.613
 4065TIP3   OH212200   4.417   5.171   2.303
 4065TIP3    H112201   4.472   5.231   2.354
 4065TIP3    H212202   4.456   5.085   2.315
 4066TIP3   OH212203   2.222   0.141   5.089
 4066TIP3    H112204   2.284   0.203   5.128
 4066TIP3    H212205   2.244   0.057   5.128
 4067TIP3   OH212206   3.274   4.243   4.081
 4067TIP3    H112207   3.215   4.238   4.006
 4067TIP3    H212208   3.341   4.178   4.064
 4068TIP3   OH212209   0.241   2.018   0.878
 4068TIP3    H112210   0.289   2.049   0.801
 4068TIP3    H212211   0.306   2.015   0.948
 4069TIP3   OH212212   2.442   1.807   2.155
 4069TIP3    H112213   2.475   1.752   2.227
 4069TIP3    H212214   2.385   1.749   2.105
 4070TIP3   OH212215   5.627   4.414   0.913
 4070TIP3    H112216   5.637   4.357   0.837
 4070TIP3    H212217   5.616   4.502   0.876
 4071TIP3   OH212218   4.924   5.216   3.851
 4071TIP3    H112219   4.974   5.176   3.922
 4071TIP3    H212220   4.940   5.159   3.776
 4072TIP3   OH212221   1.988   5.008   1.947
 4072TIP3    H112222   2.016   4.917   1.956
 4072TIP3    H212223   1.893   5.005   1.960
 4073TIP3   OH212224   0.886   0.677   0.045
 4073TIP3    H112225   0.812   0.734   0.064
 4073TIP3    H212226   0.930   0.666   0.129
 4074TIP3   OH212227   0.904   2.614   1.092
 4074TIP3    H112228   0.820   2.660   1.092
 4074TIP3    H212229   0.917   2.588   1.184
 4075TIP3   OH212230   0.566   5.852   0.637
 4075TIP3    H112231   0.654   5.840   0.672
 4075TIP3    H212232   0.514   5.882   0.712
 4076TIP3   OH212233   5.124   1.467   3.660
 4076TIP3    H112234   5.128   1.372   3.655
 4076TIP3    H212235   5.110   1.486   3.753
 4077TIP3   OH212236   1.756   4.542   1.225
 4077TIP3    H112237   1.796   4.509   1.306
 4077TIP3    H212238   1.826   4.533   1.160
 4078TIP3   OH212239   0.816   2.600   1.564
 4078TIP3    H112240   0.885   2.587   1.630
 4078TIP3    H212241   0.758   2.525   1.574
 4079TIP3   OH212242   5.914   1.308   4.496
 4079TIP3    H112243   5.820   1.306   4.510
 4079TIP3    H212244   5.929   1.385   4.441
 4080TIP3   OH212245   1.657   0.840   1.390
 4080TIP3    H112246   1.582   0.892   1.419
 4080TIP3    H212247   1.727   0.904   1.377
 4081TIP3   OH212248   1.718   5.007   2.748
 4081TIP3    H112249   1.712   5.099   2.774
 4081TIP3    H212250   1.742   5.010   2.656
 4082TIP3   OH212251   4.100   4.084   3.480
 4082TIP3    H112252   4.137   4.168   3.509
 4082TIP3    H212253   4.051   4.105   3.400
 4083TIP3   OH212254   0.124   2.765   2.332
 4083TIP3    H112255   0.097   2.719   2.411
 4083TIP3    H212256   0.042   2.781   2.285
 4084TIP3   OH212257   5.520   2.607   0.438
 4084TIP3    H112258   5.612   2.617   0.417
 4084TIP3    H212259   5.485   2.696   0.436
 4085TIP3   OH212260   0.501   3.901   1.292
 4085TIP3    H112261   0.511   3.809   1.265
 4085TIP3    H212262   0.421   3.930   1.249
 4086TIP3   OH212263   1.352   3.498   3.665
 4086TIP3    H112264   1.267   3.532   3.635
 4086TIP3    H212265   1.331   3.445   3.742
 4087TIP3   OH212266   4.530   2.060   4.556
 4087TIP3    H112267   4.503   1.977   4.593
 4087TIP3    H212268   4.479   2.126   4.604
 4088TIP3   OH212269   3.263   3.492   4.088
 4088TIP3    H112270   3.314   3.539   4.154
 4088TIP3    H212271   3.254   3.554   4.016
 4089TIP3   OH212272   0.019   0.068   1.477
 4089TIP3    H112273   0.113   0.086   1.473
 4089TIP3    H212274   0.012  -0.027   1.466
 4090TIP3   OH212275   1.195   5.464   0.786
 4090TIP3    H112276   1.135   5.529   0.750
 4090TIP3    H212277   1.137   5.401   0.830
 4091TIP3   OH212278   1.818   5.808   0.422
 4091TIP3    H112279   1.819   5.902   0.401
 4091TIP3    H212280   1.884   5.798   0.491
 4092TIP3   OH212281   0.872   5.059   1.471
 4092TIP3    H112282   0.893   5.070   1.378
 4092TIP3    H212283   0.826   4.975   1.476
 4093TIP3   OH212284   5.107   0.133   1.224
 4093TIP3    H112285   5.119   0.040   1.243
 4093TIP3    H212286   5.171   0.153   1.156
 4094TIP3   OH212287   0.366   5.504   2.321
 4094TIP3    H112288   0.298   5.569   2.340
 4094TIP3    H212289   0.439   5.556   2.286
 4095TIP3   OH212290   4.296   1.144   4.374
 4095TIP3    H112291   4.346   1.225   4.365
 4095TIP3    H212292   4.319   1.092   4.297
 4096TIP3   OH212293   4.227   3.498   0.637
 4096TIP3    H112294   4.140   3.492   0.677
 4096TIP3    H212295   4.211   3.532   0.549
 4097TIP3   OH212296   0.466   1.907   1.018
 4097TIP3    H112297   0.556   1.873   1.019
 4097TIP3    H212298   0.468   1.983   1.076
 4098TIP3   OH212299   4.209   4.914   4.116
 4098TIP3    H112300   4.215   4.997   4.164
 4098TIP3    H212301   4.179   4.851   4.181
 4099TIP3   OH212302   2.025   0.733   4.495
 4099TIP3    H112303   2.111   0.698   4.521
 4099TIP3    H212304   2.030   0.739   4.399
 4100TIP3   OH212305   4.036   4.114   3.005
 4100TIP3    H112306   4.064   4.061   2.930
 4100TIP3    H212307   4.044   4.204   2.974
 4101TIP3   OH212308   4.981   2.938   3.037
 4101TIP3    H112309   4.942   2.892   2.962
 4101TIP3    H212310   4.992   3.028   3.006
 4102TIP3   OH212311   4.627   0.923   1.941
 4102TIP3    H112312   4.719   0.944   1.958
 4102TIP3    H212313   4.600   0.869   2.015
 4103TIP3   OH212314   0.426   2.047   0.155
 4103TIP3    H112315   0.451   1.956   0.141
 4103TIP3    H212316   0.465   2.094   0.081
 4104TIP3   OH212317   2.481   4.012   3.047
 4104TIP3    H112318   2.423   3.940   3.024
 4104TIP3    H212319   2.422   4.086   3.063
 4105TIP3   OH212320   2.722   3.521   0.679
 4105TIP3    H112321   2.775   3.473   0.743
 4105TIP3    H212322   2.773   3.520   0.599
 4106TIP3   OH212323   2.398   3.540   1.664
 4106TIP3    H112324   2.354   3.456   1.676
 4106TIP3    H212325   2.380   3.564   1.573
 4107TIP3   OH212326   2.563   0.219   1.793
 4107TIP3    H112327   2.494   0.279   1.822
 4107TIP3    H212328   2.624   0.215   1.866
 4108TIP3   OH212329   0.526   1.958   1.741
 4108TIP3    H112330   0.440   1.933   1.774
 4108TIP3    H212331   0.584   1.887   1.768
 4109TIP3   OH212332   1.926   1.479   3.306
 4109TIP3    H112333   1.954   1.389   3.325
 4109TIP3    H212334   1.890   1.511   3.388
 4110TIP3   OH212335   5.455   3.166   3.474
 4110TIP3    H112336   5.505   3.146   3.395
 4110TIP3    H212337   5.369   3.125   3.459
 4111TIP3   OH212338   2.174   2.589   3.056
 4111TIP3    H112339   2.196   2.520   2.994
 4111TIP3    H212340   2.208   2.669   3.017
 4112TIP3   OH212341   2.728   0.547   4.128
 4112TIP3    H112342   2.697   0.633   4.156
 4112TIP3    H212343   2.740   0.555   4.033
 4113TIP3   OH212344   2.184   2.057   4.307
 4113TIP3    H112345   2.231   2.130   4.266
 4113TIP3    H212346   2.223   1.979   4.267
 4114TIP3   OH212347   0.620   1.304   4.695
 4114TIP3    H112348   0.607   1.374   4.631
 4114TIP3    H212349   0.549   1.242   4.679
 4115TIP3   OH212350   3.593   2.621   2.543
 4115TIP3    H112351   3.578   2.575   2.625
 4115TIP3    H212352   3.685   2.604   2.522
 4116TIP3   OH212353   1.854   3.843   1.793
 4116TIP3    H112354   1.916   3.834   1.866
 4116TIP3    H212355   1.816   3.755   1.783
 4117TIP3   OH212356   0.651   4.671   2.258
 4117TIP3    H112357   0.580   4.723   2.294
 4117TIP3    H212358   0.615   4.583   2.250
 4118TIP3   OH212359   0.306   2.439   3.710
 4118TIP3    H112360   0.218   2.471   3.729
 4118TIP3    H212361   0.350   2.437   3.795
 4119TIP3   OH212362   1.071   5.833   2.005
 4119TIP3    H112363   1.106   5.865   1.922
 4119TIP3    H212364   1.103   5.743   2.012
 4120TIP3   OH212365   1.647   4.763   2.143
 4120TIP3    H112366   1.582   4.743   2.075
 4120TIP3    H212367   1.706   4.826   2.101
 4121TIP3   OH212368   2.370   3.292   3.141
 4121TIP3    H112369   2.282   3.330   3.137
 4121TIP3    H212370   2.375   3.253   3.228
 4122TIP3   OH212371   2.434   3.190   3.967
 4122TIP3    H112372   2.524   3.216   3.982
 4122TIP3    H212373   2.385   3.272   3.962
 4123TIP3   OH212374   0.408   1.655   4.633
 4123TIP3    H112375   0.352   1.578   4.645
 4123TIP3    H212376   0.386   1.713   4.706
 4124TIP3   OH212377   5.410   3.790   2.555
 4124TIP3    H112378   5.460   3.847   2.496
 4124TIP3    H212379   5.444   3.812   2.642
 4125TIP3   OH212380   4.391   1.539   0.912
 4125TIP3    H112381   4.308   1.535   0.866
 4125TIP3    H212382   4.437   1.614   0.874
 4126TIP3   OH212383   4.361   1.178   2.271
 4126TIP3    H112384   4.341   1.122   2.346
 4126TIP3    H212385   4.422   1.126   2.218
 4127TIP3   OH212386   5.886   5.506   1.380
 4127TIP3    H112387   5.898   5.418   1.346
 4127TIP3    H212388   5.869   5.560   1.302
 4128TIP3   OH212389   3.894   3.846   3.060
 4128TIP3    H112390   3.870   3.888   3.143
 4128TIP3    H212391   3.989   3.836   3.066
 4129TIP3   OH212392   3.648   4.908   2.154
 4129TIP3    H112393   3.730   4.860   2.147
 4129TIP3    H212394   3.657   4.981   2.093
 4130TIP3   OH212395   4.051   4.144   2.158
 4130TIP3    H112396   3.974   4.087   2.158
 4130TIP3    H212397   4.095   4.124   2.075
 4131TIP3   OH212398   3.704   1.877   2.019
 4131TIP3    H112399   3.712   1.967   1.990
 4131TIP3    H212400   3.772   1.866   2.085
 4132TIP3   OH212401   4.253   2.883   2.373
 4132TIP3    H112402   4.344   2.880   2.345
 4132TIP3    H212403   4.203   2.867   2.293
 4133TIP3   OH212404   3.437   4.048   1.020
 4133TIP3    H112405   3.388   4.083   1.095
 4133TIP3    H212406   3.461   4.126   0.970
 4134TIP3   OH212407   2.530   3.882   1.496
 4134TIP3    H112408   2.618   3.848   1.513
 4134TIP3    H212409   2.521   3.876   1.401
 4135TIP3   OH212410   1.920   3.731   0.034
 4135TIP3    H112411   1.937   3.792   0.106
 4135TIP3    H212412   1.996   3.673   0.033
 4136TIP3   OH212413   0.387   1.738   4.877
 4136TIP3    H112414   0.317   1.674   4.887
 4136TIP3    H212415   0.426   1.746   4.964
 4137TIP3   OH212416   2.570   0.314   4.219
 4137TIP3    H112417   2.534   0.239   4.172
 4137TIP3    H212418   2.493   0.368   4.240
 4138TIP3   OH212419   2.782   4.506   0.382
 4138TIP3    H112420   2.857   4.549   0.343
 4138TIP3    H212421   2.804   4.499   0.475
 4139TIP3   OH212422   4.256   1.768   4.201
 4139TIP3    H112423   4.294   1.848   4.166
 4139TIP3    H212424   4.302   1.752   4.283
 4140TIP3   OH212425   6.261   1.921   0.559
 4140TIP3    H112426   6.187   1.932   0.619
 4140TIP3    H212427   6.294   1.833   0.578
 4141TIP3   OH212428   2.525   5.706   3.381
 4141TIP3    H112429   2.433   5.692   3.358
 4141TIP3    H212430   2.522   5.754   3.463
 4142TIP3   OH212431   4.332   3.535   4.909
 4142TIP3    H112432   4.318   3.579   4.825
 4142TIP3    H212433   4.362   3.447   4.886
 4143TIP3   OH212434   5.201   2.465   4.012
 4143TIP3    H112435   5.162   2.521   3.945
 4143TIP3    H212436   5.202   2.519   4.091
 4144TIP3   OH212437   3.256   2.324   0.673
 4144TIP3    H112438   3.217   2.357   0.754
 4144TIP3    H212439   3.334   2.275   0.702
 4145TIP3   OH212440   1.858   3.837   4.127
 4145TIP3    H112441   1.907   3.853   4.047
 4145TIP3    H212442   1.924   3.814   4.192
 4146TIP3   OH212443   3.871   3.460   3.341
 4146TIP3    H112444   3.803   3.456   3.408
 4146TIP3    H212445   3.823   3.476   3.260
 4147TIP3   OH212446   0.987   3.344   4.709
 4147TIP3    H112447   1.042   3.387   4.775
 4147TIP3    H212448   0.904   3.329   4.754
 4148TIP3   OH212449   4.168   5.175   4.192
 4148TIP3    H112450   4.142   5.260   4.155
 4148TIP3    H212451   4.247   5.194   4.243
 4149TIP3   OH212452   4.179   1.304   5.060
 4149TIP3    H112453   4.247   1.298   5.128
 4149TIP3    H212454   4.096   1.303   5.109
 4150TIP3   OH212455   2.880   5.091   1.689
 4150TIP3    H112456   2.947   5.031   1.656
 4150TIP3    H212457   2.926   5.148   1.750
 4151TIP3   OH212458   3.934   0.770   0.654
 4151TIP3    H112459   4.009   0.818   0.688
 4151TIP3    H212460   3.950   0.764   0.559
 4152TIP3   OH212461   3.179   4.319   3.020
 4152TIP3    H112462   3.107   4.299   2.960
 4152TIP3    H212463   3.194   4.413   3.011
 4153TIP3   OH212464   6.069   5.124   0.969
 4153TIP3    H112465   6.151   5.097   1.010
 4153TIP3    H212466   6.058   5.215   0.994
 4154TIP3   OH212467   2.709   1.309   3.237
 4154TIP3    H112468   2.696   1.404   3.232
 4154TIP3    H212469   2.794   1.294   3.197
 4155TIP3   OH212470   0.747   5.645   4.025
 4155TIP3    H112471   0.662   5.665   3.987
 4155TIP3    H212472   0.756   5.550   4.016
 4156TIP3   OH212473   0.644   2.188   2.160
 4156TIP3    H112474   0.595   2.109   2.180
 4156TIP3    H212475   0.618   2.250   2.228
 4157TIP3   OH212476   1.584   0.826   2.802
 4157TIP3    H112477   1.610   0.776   2.879
 4157TIP3    H212478   1.554   0.761   2.739
 4158TIP3   OH212479   4.951   0.182   0.403
 4158TIP3    H112480   5.038   0.212   0.377
 4158TIP3    H212481   4.940   0.213   0.492
 4159TIP3   OH212482   1.973   0.400   0.930
 4159TIP3    H112483   2.015   0.458   0.993
 4159TIP3    H212484   1.995   0.312   0.960
 4160TIP3   OH212485   1.881   4.529   2.982
 4160TIP3    H112486   1.839   4.611   2.954
 4160TIP3    H212487   1.870   4.470   2.908
 4161TIP3   OH212488   1.126   3.727   2.191
 4161TIP3    H112489   1.045   3.708   2.238
 4161TIP3    H212490   1.195   3.721   2.257
 4162TIP3   OH212491   2.917   4.978   5.159
 4162TIP3    H112492   2.908   4.940   5.246
 4162TIP3    H212493   2.828   5.006   5.135
 4163TIP3   OH212494   1.636   2.081   0.882
 4163TIP3    H112495   1.543   2.096   0.900
 4163TIP3    H212496   1.670   2.167   0.857
 4164TIP3   OH212497   4.085   5.963   5.132
 4164TIP3    H112498   4.175   5.930   5.133
 4164TIP3    H212499   4.091   6.052   5.099
 4165TIP3   OH212500   5.178   4.774   0.696
 4165TIP3    H112501   5.085   4.762   0.716
 4165TIP3    H212502   5.209   4.834   0.764
 4166TIP3   OH212503   0.598   4.891   0.516
 4166TIP3    H112504   0.575   4.873   0.607
 4166TIP3    H212505   0.588   4.985   0.506
 4167TIP3   OH212506   3.077   0.528   4.290
 4167TIP3    H112507   3.040   0.482   4.215
 4167TIP3    H212508   3.144   0.469   4.324
 4168TIP3   OH212509   2.699   4.101   4.265
 4168TIP3    H112510   2.672   4.191   4.249
 4168TIP3    H212511   2.739   4.104   4.353
 4169TIP3   OH212512   0.260   2.837   3.912
 4169TIP3    H112513   0.201   2.785   3.967
 4169TIP3    H212514   0.203   2.895   3.863
 4170TIP3   OH212515   1.888   4.905   0.467
 4170TIP3    H112516   1.825   4.975   0.447
 4170TIP3    H212517   1.897   4.857   0.384
 4171TIP3   OH212518   1.955   2.213   4.365
 4171TIP3    H112519   2.025   2.150   4.347
 4171TIP3    H212520   1.990   2.296   4.332
 4172TIP3   OH212521   0.571   0.967   4.202
 4172TIP3    H112522   0.642   0.903   4.198
 4172TIP3    H212523   0.549   0.984   4.110
 4173TIP3   OH212524   4.857   2.211   1.479
 4173TIP3    H112525   4.905   2.290   1.502
 4173TIP3    H212526   4.922   2.153   1.441
 4174TIP3   OH212527   2.338   2.076   3.417
 4174TIP3    H112528   2.366   2.101   3.329
 4174TIP3    H212529   2.415   2.091   3.472
 4175TIP3   OH212530   1.738   1.444   4.193
 4175TIP3    H112531   1.658   1.467   4.147
 4175TIP3    H212532   1.807   1.493   4.149
 4176TIP3   OH212533   0.881   1.370   4.358
 4176TIP3    H112534   0.905   1.282   4.327
 4176TIP3    H212535   0.792   1.360   4.391
 4177TIP3   OH212536   3.457   2.928   1.132
 4177TIP3    H112537   3.389   2.887   1.186
 4177TIP3    H212538   3.539   2.894   1.167
 4178TIP3   OH212539   3.573   3.487   4.979
 4178TIP3    H112540   3.520   3.497   5.058
 4178TIP3    H212541   3.664   3.491   5.010
 4179TIP3   OH212542   5.432   0.231   0.922
 4179TIP3    H112543   5.350   0.277   0.943
 4179TIP3    H212544   5.497   0.270   0.980
 4180TIP3   OH212545   0.384   5.953   5.020
 4180TIP3    H112546   0.373   5.876   5.076
 4180TIP3    H212547   0.395   6.026   5.081
 4181TIP3   OH212548   1.889   4.400   2.750
 4181TIP3    H112549   1.912   4.307   2.753
 4181TIP3    H212550   1.974   4.445   2.742
 4182TIP3   OH212551   1.939   3.843   3.544
 4182TIP3    H112552   1.846   3.827   3.528
 4182TIP3    H212553   1.949   3.938   3.535
 4183TIP3   OH212554   4.140   3.140   2.538
 4183TIP3    H112555   4.216   3.123   2.482
 4183TIP3    H212556   4.163   3.102   2.622
 4184TIP3   OH212557   2.745   4.012   1.196
 4184TIP3    H112558   2.676   4.067   1.158
 4184TIP3    H212559   2.824   4.035   1.147
 4185TIP3   OH212560   5.181   3.506   0.713
 4185TIP3    H112561   5.214   3.579   0.766
 4185TIP3    H212562   5.105   3.542   0.667
 4186TIP3   OH212563   1.333   1.823   0.358
 4186TIP3    H112564   1.366   1.911   0.340
 4186TIP3    H212565   1.408   1.776   0.394
 4187TIP3   OH212566   1.729   2.090   3.289
 4187TIP3    H112567   1.664   2.030   3.253
 4187TIP3    H212568   1.739   2.064   3.380
 4188TIP3   OH212569   5.723   4.001   4.841
 4188TIP3    H112570   5.796   4.062   4.836
 4188TIP3    H212571   5.753   3.932   4.900
 4189TIP3   OH212572   3.774   0.872   3.815
 4189TIP3    H112573   3.775   0.905   3.905
 4189TIP3    H212574   3.840   0.925   3.770
 4190TIP3   OH212575   0.448   0.638   1.932
 4190TIP3    H112576   0.394   0.709   1.897
 4190TIP3    H212577   0.473   0.667   2.019
 4191TIP3   OH212578   2.360   5.252   4.748
 4191TIP3    H112579   2.269   5.276   4.735
 4191TIP3    H212580   2.373   5.176   4.691
 4192TIP3   OH212581   2.857   4.370   4.591
 4192TIP3    H112582   2.932   4.396   4.645
 4192TIP3    H212583   2.889   4.375   4.501
 4193TIP3   OH212584   6.020   3.098   2.779
 4193TIP3    H112585   6.003   3.167   2.844
 4193TIP3    H212586   6.004   3.017   2.827
 4194TIP3   OH212587   6.030   3.424   0.882
 4194TIP3    H112588   5.940   3.404   0.907
 4194TIP3    H212589   6.021   3.478   0.803
 4195TIP3   OH212590   1.954   0.061   0.126
 4195TIP3    H112591   2.007  -0.019   0.122
 4195TIP3    H212592   1.873   0.034   0.169
 4196TIP3   OH212593   3.787   0.930   4.092
 4196TIP3    H112594   3.850   0.936   4.165
 4196TIP3    H212595   3.705   0.904   4.134
 4197TIP3   OH212596   5.794   2.943   3.187
 4197TIP3    H112597   5.747   2.872   3.144
 4197TIP3    H212598   5.874   2.954   3.136
 4198TIP3   OH212599   4.146   0.782   4.223
 4198TIP3    H112600   4.113   0.718   4.159
 4198TIP3    H212601   4.073   0.842   4.237
 4199TIP3   OH212602   5.103   5.033   4.470
 4199TIP3    H112603   5.084   5.070   4.556
 4199TIP3    H212604   5.196   5.011   4.474
 4200TIP3   OH212605   5.835   0.859   0.371
 4200TIP3    H112606   5.893   0.827   0.440
 4200TIP3    H212607   5.842   0.793   0.302
 4201TIP3   OH212608   2.192   5.094   3.886
 4201TIP3    H112609   2.208   5.172   3.834
 4201TIP3    H212610   2.186   5.023   3.822
 4202TIP3   OH212611   3.730   5.009   2.763
 4202TIP3    H112612   3.734   4.920   2.727
 4202TIP3    H212613   3.728   5.066   2.686
 4203TIP3   OH212614   6.274   2.807   4.576
 4203TIP3    H112615   6.274   2.759   4.659
 4203TIP3    H212616   6.356   2.782   4.534
 4204TIP3   OH212617   4.074   1.005   1.513
 4204TIP3    H112618   3.989   1.035   1.479
 4204TIP3    H212619   4.069   1.022   1.607
 4205TIP3   OH212620   3.015   1.574   4.985
 4205TIP3    H112621   3.001   1.647   5.045
 4205TIP3    H212622   3.110   1.573   4.970
 4206TIP3   OH212623   6.091   4.338   0.074
 4206TIP3    H112624   6.031   4.411   0.062
 4206TIP3    H212625   6.035   4.264   0.097
 4207TIP3   OH212626   1.246   3.288   4.406
 4207TIP3    H112627   1.189   3.363   4.419
 4207TIP3    H212628   1.218   3.224   4.471
 4208TIP3   OH212629   0.869   3.611   4.972
 4208TIP3    H112630   0.789   3.560   4.978
 4208TIP3    H212631   0.862   3.675   5.042
 4209TIP3   OH212632   0.293   3.860   2.890
 4209TIP3    H112633   0.337   3.863   2.805
 4209TIP3    H212634   0.362   3.833   2.951
 4210TIP3   OH212635   4.918   5.524   4.114
 4210TIP3    H112636   4.884   5.452   4.168
 4210TIP3    H212637   4.938   5.484   4.030
 4211TIP3   OH212638   1.836   4.732   2.544
 4211TIP3    H112639   1.786   4.776   2.476
 4211TIP3    H212640   1.926   4.734   2.514
 4212TIP3   OH212641   2.140   0.980   3.715
 4212TIP3    H112642   2.127   0.984   3.620
 4212TIP3    H212643   2.232   1.003   3.728
 4213TIP3   OH212644   1.822   4.048   0.213
 4213TIP3    H112645   1.738   4.009   0.235
 4213TIP3    H212646   1.824   4.129   0.263
 4214TIP3   OH212647   5.171   1.154   3.379
 4214TIP3    H112648   5.109   1.166   3.451
 4214TIP3    H212649   5.209   1.068   3.394
 4215TIP3   OH212650   2.163   4.105   3.444
 4215TIP3    H112651   2.102   4.119   3.517
 4215TIP3    H212652   2.118   4.045   3.385
 4216TIP3   OH212653   3.505   3.579   2.456
 4216TIP3    H112654   3.463   3.515   2.514
 4216TIP3    H212655   3.432   3.630   2.420
 4217TIP3   OH212656   6.100   1.660   0.365
 4217TIP3    H112657   6.016   1.651   0.410
 4217TIP3    H212658   6.116   1.573   0.328
 4218TIP3   OH212659   0.950   2.001   2.730
 4218TIP3    H112660   0.947   2.068   2.661
 4218TIP3    H212661   0.927   2.048   2.810
 4219TIP3   OH212662   4.782   3.283   3.139
 4219TIP3    H112663   4.786   3.219   3.210
 4219TIP3    H212664   4.870   3.283   3.101
 4220TIP3   OH212665   0.064   0.284   4.624
 4220TIP3    H112666   0.074   0.363   4.677
 4220TIP3    H212667   0.113   0.216   4.671
 4221TIP3   OH212668   3.087   3.383   0.967
 4221TIP3    H112669   3.159   3.363   1.027
 4221TIP3    H212670   3.120   3.455   0.913
 4222TIP3   OH212671   5.817   1.247   4.101
 4222TIP3    H112672   5.878   1.318   4.080
 4222TIP3    H212673   5.740   1.291   4.137
 4223TIP3   OH212674   2.046   1.823   2.751
 4223TIP3    H112675   1.988   1.747   2.743
 4223TIP3    H212676   2.001   1.882   2.812
 4224TIP3   OH212677   0.422   4.437   0.875
 4224TIP3    H112678   0.333   4.461   0.898
 4224TIP3    H212679   0.425   4.342   0.886
 4225TIP3   OH212680   4.176   0.141   0.762
 4225TIP3    H112681   4.192   0.210   0.826
 4225TIP3    H212682   4.238   0.072   0.785
 4226TIP3   OH212683   1.386   3.006   1.663
 4226TIP3    H112684   1.298   3.033   1.690
 4226TIP3    H212685   1.387   2.911   1.677
 4227TIP3   OH212686   4.821   1.513   4.612
 4227TIP3    H112687   4.815   1.590   4.669
 4227TIP3    H212688   4.732   1.500   4.580
 4228TIP3   OH212689   3.568   0.267   1.484
 4228TIP3    H112690   3.558   0.282   1.578
 4228TIP3    H212691   3.485   0.297   1.446
 4229TIP3   OH212692   2.796   3.362   0.029
 4229TIP3    H112693   2.870   3.403   0.074
 4229TIP3    H212694   2.763   3.297   0.092
 4230TIP3   OH212695   6.001   5.623   1.957
 4230TIP3    H112696   5.947   5.702   1.957
 4230TIP3    H212697   5.945   5.556   1.997
 4231TIP3   OH212698   0.544   5.657   2.178
 4231TIP3    H112699   0.546   5.709   2.097
 4231TIP3    H212700   0.564   5.720   2.247
 4232TIP3   OH212701   5.739   3.998   3.698
 4232TIP3    H112702   5.670   3.955   3.647
 4232TIP3    H212703   5.691   4.059   3.755
 4233TIP3   OH212704   3.949   0.708   5.070
 4233TIP3    H112705   3.867   0.730   5.026
 4233TIP3    H212706   4.017   0.739   5.010
 4234TIP3   OH212707   1.403   2.009   1.072
 4234TIP3    H112708   1.455   1.935   1.041
 4234TIP3    H212709   1.341   2.026   1.002
 4235TIP3   OH212710   1.282   0.874   3.525
 4235TIP3    H112711   1.299   0.835   3.439
 4235TIP3    H212712   1.322   0.961   3.520
 4236TIP3   OH212713   2.270   1.786   4.183
 4236TIP3    H112714   2.214   1.793   4.106
 4236TIP3    H212715   2.264   1.694   4.209
 4237TIP3   OH212716   5.025   1.010   3.576
 4237TIP3    H112717   5.109   0.979   3.608
 4237TIP3    H212718   5.006   0.955   3.500
 4238TIP3   OH212719   2.198   3.251   3.591
 4238TIP3    H112720   2.164   3.240   3.679
 4238TIP3    H212721   2.150   3.187   3.538
 4239TIP3   OH212722   4.630   1.623   2.511
 4239TIP3    H112723   4.704   1.611   2.571
 4239TIP3    H212724   4.555   1.587   2.558
 4240TIP3   OH212725   1.708   0.355   1.481
 4240TIP3    H112726   1.686   0.357   1.388
 4240TIP3    H212727   1.796   0.393   1.486
 4241TIP3   OH212728   0.150   2.461   2.649
 4241TIP3    H112729   0.176   2.412   2.727
 4241TIP3    H212730   0.127   2.393   2.585
 4242TIP3   OH212731   1.639   3.424   5.081
 4242TIP3    H112732   1.631   3.334   5.050
 4242TIP3    H212733   1.604   3.477   5.010
 4243TIP3   OH212734   5.650   0.900   1.568
 4243TIP3    H112735   5.692   0.849   1.499
 4243TIP3    H212736   5.565   0.858   1.581
 4244TIP3   OH212737   4.992   5.078   2.780
 4244TIP3    H112738   4.905   5.101   2.745
 4244TIP3    H212739   4.998   5.125   2.863
 4245TIP3   OH212740   4.323   0.977   2.491
 4245TIP3    H112741   4.367   0.898   2.460
 4245TIP3    H212742   4.359   0.993   2.578
 4246TIP3   OH212743   4.950   0.774   0.262
 4246TIP3    H112744   5.006   0.817   0.327
 4246TIP3    H212745   4.969   0.821   0.181
 4247TIP3   OH212746   2.153   5.312   3.280
 4247TIP3    H112747   2.124   5.340   3.193
 4247TIP3    H212748   2.077   5.267   3.317
 4248TIP3   OH212749   4.335   3.906   5.063
 4248TIP3    H112750   4.295   3.854   4.993
 4248TIP3    H212751   4.362   3.841   5.128
 4249TIP3   OH212752   1.284   0.085   2.724
 4249TIP3    H112753   1.328   0.170   2.723
 4249TIP3    H212754   1.309   0.044   2.642
 4250TIP3   OH212755   0.474   5.111   1.372
 4250TIP3    H112756   0.475   5.034   1.316
 4250TIP3    H212757   0.398   5.100   1.428
 4251TIP3   OH212758   5.261   3.834   1.595
 4251TIP3    H112759   5.277   3.740   1.608
 4251TIP3    H212760   5.338   3.876   1.632
 4252TIP3   OH212761   2.830   2.128   2.756
 4252TIP3    H112762   2.869   2.171   2.832
 4252TIP3    H212763   2.867   2.175   2.681
 4253TIP3   OH212764   6.134   3.629   3.100
 4253TIP3    H112765   6.219   3.584   3.100
 4253TIP3    H212766   6.148   3.704   3.042
 4254TIP3   OH212767   1.884   3.784   3.815
 4254TIP3    H112768   1.930   3.777   3.731
 4254TIP3    H212769   1.952   3.769   3.880
 4255TIP3   OH212770   5.480   0.086   4.988
 4255TIP3    H112771   5.513   0.017   5.046
 4255TIP3    H212772   5.387   0.093   5.009
 4256TIP3   OH212773   2.064   4.665   4.172
 4256TIP3    H112774   1.986   4.610   4.170
 4256TIP3    H212775   2.084   4.681   4.079
 4257TIP3   OH212776   3.539   1.872   4.200
 4257TIP3    H112777   3.574   1.802   4.145
 4257TIP3    H212778   3.605   1.941   4.197
 4258TIP3   OH212779   3.425   4.524   1.503
 4258TIP3    H112780   3.489   4.453   1.496
 4258TIP3    H212781   3.340   4.480   1.508
 4259TIP3   OH212782   3.504   1.590   2.808
 4259TIP3    H112783   3.567   1.566   2.740
 4259TIP3    H212784   3.543   1.666   2.852
 4260TIP3   OH212785   1.782   3.672   4.839
 4260TIP3    H112786   1.734   3.687   4.757
 4260TIP3    H212787   1.724   3.704   4.907
 4261TIP3   OH212788   0.486   3.751   4.214
 4261TIP3    H112789   0.579   3.744   4.233
 4261TIP3    H212790   0.481   3.762   4.119
 4262TIP3   OH212791   1.184   1.364   1.262
 4262TIP3    H112792   1.197   1.376   1.168
 4262TIP3    H212793   1.212   1.274   1.279
 4263TIP3   OH212794   4.726   4.272   2.732
 4263TIP3    H112795   4.814   4.306   2.747
 4263TIP3    H212796   4.738   4.178   2.721
 4264TIP3   OH212797   5.867   4.401   1.401
 4264TIP3    H112798   5.830   4.390   1.314
 4264TIP3    H212799   5.886   4.311   1.430
 4265TIP3   OH212800   5.000   5.206   3.057
 4265TIP3    H112801   4.994   5.275   3.123
 4265TIP3    H212802   5.094   5.190   3.048
 4266TIP3   OH212803   1.290   2.446   1.908
 4266TIP3    H112804   1.265   2.398   1.987
 4266TIP3    H212805   1.384   2.434   1.901
 4267TIP3   OH212806   4.824   4.207   2.013
 4267TIP3    H112807   4.790   4.150   1.944
 4267TIP3    H212808   4.849   4.147   2.083
 4268TIP3   OH212809   5.778   4.551   3.991
 4268TIP3    H112810   5.793   4.463   4.026
 4268TIP3    H212811   5.791   4.609   4.065
 4269TIP3   OH212812   3.235   2.203   4.303
 4269TIP3    H112813   3.291   2.281   4.311
 4269TIP3    H212814   3.151   2.238   4.271
 4270TIP3   OH212815   5.881   1.698   4.099
 4270TIP3    H112816   5.911   1.739   4.017
 4270TIP3    H212817   5.794   1.736   4.114
 4271TIP3   OH212818   0.925   1.998   3.735
 4271TIP3    H112819   0.834   2.025   3.721
 4271TIP3    H212820   0.951   1.961   3.651
 4272TIP3   OH212821   4.266   4.576   0.080
 4272TIP3    H112822   4.226   4.663   0.082
 4272TIP3    H212823   4.193   4.515   0.092
 4273TIP3   OH212824   0.338   4.174   4.395
 4273TIP3    H112825   0.361   4.083   4.377
 4273TIP3    H212826   0.421   4.215   4.419
 4274TIP3   OH212827   0.284   3.386   2.467
 4274TIP3    H112828   0.212   3.347   2.517
 4274TIP3    H212829   0.363   3.347   2.504
 4275TIP3   OH212830   1.602   0.454   3.225
 4275TIP3    H112831   1.683   0.403   3.225
 4275TIP3    H212832   1.631   0.545   3.220
 4276TIP3   OH212833   2.101   4.487   4.969
 4276TIP3    H112834   2.155   4.440   5.034
 4276TIP3    H212835   2.132   4.577   4.972
 4277TIP3   OH212836   4.502   1.482   1.517
 4277TIP3    H112837   4.441   1.423   1.474
 4277TIP3    H212838   4.526   1.437   1.598
 4278TIP3   OH212839   1.414   5.197   2.129
 4278TIP3    H112840   1.324   5.169   2.145
 4278TIP3    H212841   1.463   5.164   2.204
 4279TIP3   OH212842   1.934   4.872   0.190
 4279TIP3    H112843   1.879   4.852   0.114
 4279TIP3    H212844   2.023   4.877   0.155
 4280TIP3   OH212845   5.361   0.475   0.744
 4280TIP3    H112846   5.339   0.384   0.723
 4280TIP3    H212847   5.448   0.471   0.783
 4281TIP3   OH212848   1.383   0.837   2.264
 4281TIP3    H112849   1.447   0.784   2.216
 4281TIP3    H212850   1.303   0.831   2.211
 4282TIP3   OH212851   1.615   2.731   2.172
 4282TIP3    H112852   1.535   2.681   2.161
 4282TIP3    H212853   1.682   2.665   2.192
 4283TIP3   OH212854   1.159   5.902   0.170
 4283TIP3    H112855   1.154   5.854   0.087
 4283TIP3    H212856   1.121   5.987   0.150
 4284TIP3   OH212857   0.216   4.968   2.403
 4284TIP3    H112858   0.221   4.932   2.492
 4284TIP3    H212859   0.237   5.061   2.414
 4285TIP3   OH212860   3.180   2.716   3.937
 4285TIP3    H112861   3.176   2.684   4.028
 4285TIP3    H212862   3.178   2.811   3.945
 4286TIP3   OH212863   4.653   0.647   1.459
 4286TIP3    H112864   4.604   0.642   1.377
 4286TIP3    H212865   4.605   0.710   1.513
 4287TIP3   OH212866   5.157   4.907   0.946
 4287TIP3    H112867   5.067   4.922   0.976
 4287TIP3    H212868   5.212   4.955   1.008
 4288TIP3   OH212869   4.630   5.518   0.388
 4288TIP3    H112870   4.661   5.427   0.394
 4288TIP3    H212871   4.711   5.570   0.387
 4289TIP3   OH212872   3.687   0.412   1.829
 4289TIP3    H112873   3.721   0.430   1.742
 4289TIP3    H212874   3.592   0.411   1.818
 4290TIP3   OH212875   2.909   1.595   2.637
 4290TIP3    H112876   3.004   1.582   2.644
 4290TIP3    H212877   2.875   1.509   2.613
 4291TIP3   OH212878   3.094   1.924   3.102
 4291TIP3    H112879   3.138   1.998   3.143
 4291TIP3    H212880   3.017   1.909   3.155
 4292TIP3   OH212881   5.278   1.676   1.866
 4292TIP3    H112882   5.211   1.741   1.888
 4292TIP3    H212883   5.282   1.678   1.770
 4293TIP3   OH212884   0.296   2.866   1.512
 4293TIP3    H112885   0.301   2.903   1.424
 4293TIP3    H212886   0.388   2.853   1.538
 4294TIP3   OH212887   2.757   2.852   4.238
 4294TIP3    H112888   2.762   2.836   4.332
 4294TIP3    H212889   2.778   2.768   4.198
 4295TIP3   OH212890   1.236   0.960   0.191
 4295TIP3    H112891   1.264   1.049   0.214
 4295TIP3    H212892   1.213   0.920   0.275
 4296TIP3   OH212893   1.993   5.456   1.787
 4296TIP3    H112894   2.052   5.430   1.716
 4296TIP3    H212895   1.969   5.373   1.830
 4297TIP3   OH212896   4.047   3.352   0.187
 4297TIP3    H112897   3.974   3.290   0.179
 4297TIP3    H212898   4.124   3.298   0.198
 4298TIP3   OH212899   5.031   1.758   4.395
 4298TIP3    H112900   5.101   1.715   4.443
 4298TIP3    H212901   5.048   1.852   4.405
 4299TIP3   OH212902   0.686   4.616   3.072
 4299TIP3    H112903   0.715   4.680   3.136
 4299TIP3    H212904   0.762   4.559   3.058
 4300TIP3   OH212905   5.699   4.019   1.266
 4300TIP3    H112906   5.702   4.047   1.174
 4300TIP3    H212907   5.609   4.039   1.293
 4301TIP3   OH212908   5.779   3.551   2.033
 4301TIP3    H112909   5.857   3.603   2.047
 4301TIP3    H212910   5.726   3.602   1.972
 4302TIP3   OH212911   0.740   0.306   0.014
 4302TIP3    H112912   0.745   0.342   0.103
 4302TIP3    H212913   0.713   0.215   0.027
 4303TIP3   OH212914   3.360   5.619   1.629
 4303TIP3    H112915   3.271   5.624   1.662
 4303TIP3    H212916   3.351   5.601   1.536
 4304TIP3   OH212917   5.383   1.708   4.085
 4304TIP3    H112918   5.478   1.718   4.095
 4304TIP3    H212919   5.372   1.617   4.057
 4305TIP3   OH212920   4.297   4.577   1.251
 4305TIP3    H112921   4.261   4.490   1.233
 4305TIP3    H212922   4.367   4.587   1.187
 4306TIP3   OH212923   6.248   5.802   0.502
 4306TIP3    H112924   6.207   5.818   0.417
 4306TIP3    H212925   6.176   5.807   0.565
 4307TIP3   OH212926   4.712   5.007   1.941
 4307TIP3    H112927   4.633   5.057   1.920
 4307TIP3    H212928   4.712   4.934   1.879
 4308TIP3   OH212929   2.786   3.622   3.056
 4308TIP3    H112930   2.864   3.647   3.106
 4308TIP3    H212931   2.729   3.581   3.121
 4309TIP3   OH212932   2.927   5.341   0.689
 4309TIP3    H112933   2.956   5.367   0.777
 4309TIP3    H212934   2.961   5.409   0.631
 4310TIP3   OH212935   2.378   0.375   1.902
 4310TIP3    H112936   2.328   0.449   1.868
 4310TIP3    H212937   2.312   0.318   1.942
 4311TIP3   OH212938   2.622   1.555   5.084
 4311TIP3    H112939   2.632   1.489   5.152
 4311TIP3    H212940   2.528   1.557   5.066
 4312TIP3   OH212941   3.955   2.707   4.432
 4312TIP3    H112942   3.887   2.766   4.464
 4312TIP3    H212943   4.030   2.725   4.489
 4313TIP3   OH212944   2.952   4.260   2.169
 4313TIP3    H112945   2.959   4.277   2.075
 4313TIP3    H212946   3.043   4.249   2.197
 4314TIP3   OH212947   2.485   5.613   3.745
 4314TIP3    H112948   2.545   5.539   3.759
 4314TIP3    H212949   2.539   5.691   3.757
 4315TIP3   OH212950   3.580   4.172   0.530
 4315TIP3    H112951   3.493   4.212   0.534
 4315TIP3    H212952   3.574   4.095   0.586
 4316TIP3   OH212953   0.500   4.486   1.518
 4316TIP3    H112954   0.467   4.397   1.528
 4316TIP3    H212955   0.426   4.536   1.485
 4317TIP3   OH212956   3.104   0.053   1.321
 4317TIP3    H112957   3.020   0.048   1.368
 4317TIP3    H212958   3.086   0.108   1.245
 4318TIP3   OH212959   4.912   5.762   0.134
 4318TIP3    H112960   5.000   5.773   0.098
 4318TIP3    H212961   4.857   5.744   0.058
 4319TIP3   OH212962   2.333   4.223   3.751
 4319TIP3    H112963   2.341   4.220   3.846
 4319TIP3    H212964   2.344   4.315   3.729
 4320TIP3   OH212965   3.741   2.135   3.732
 4320TIP3    H112966   3.696   2.219   3.742
 4320TIP3    H212967   3.683   2.083   3.678
 4321TIP3   OH212968   2.528   2.405   0.541
 4321TIP3    H112969   2.542   2.469   0.611
 4321TIP3    H212970   2.460   2.444   0.486
 4322TIP3   OH212971   0.982   4.145   1.723
 4322TIP3    H112972   0.941   4.112   1.803
 4322TIP3    H212973   1.058   4.089   1.710
 4323TIP3   OH212974   3.016   2.703   0.928
 4323TIP3    H112975   3.043   2.737   1.013
 4323TIP3    H212976   3.092   2.655   0.895
 4324TIP3   OH212977   2.974   5.504   4.741
 4324TIP3    H112978   3.066   5.507   4.715
 4324TIP3    H212979   2.971   5.438   4.811
 4325TIP3   OH212980   0.298   0.096   1.474
 4325TIP3    H112981   0.352   0.082   1.396
 4325TIP3    H212982   0.358   0.136   1.537
 4326TIP3   OH212983   0.043   4.141   1.576
 4326TIP3    H112984   0.061   4.054   1.542
 4326TIP3    H212985  -0.048   4.158   1.551
 4327TIP3   OH212986   4.007   2.680   1.351
 4327TIP3    H112987   3.994   2.725   1.267
 4327TIP3    H212988   4.026   2.751   1.413
 4328TIP3   OH212989   0.217   0.953   1.535
 4328TIP3    H112990   0.237   0.860   1.548
 4328TIP3    H212991   0.300   0.991   1.505
 4329TIP3   OH212992   2.498   5.477   1.355
 4329TIP3    H112993   2.431   5.494   1.422
 4329TIP3    H212994   2.449   5.445   1.279
 4330TIP3   OH212995   2.642   0.875   2.037
 4330TIP3    H112996   2.705   0.827   2.092
 4330TIP3    H212997   2.615   0.811   1.971
 4331TIP3   OH212998   0.843   0.090   0.372
 4331TIP3    H112999   0.760   0.058   0.408
 4331TIP3    H213000   0.908   0.026   0.400
 4332TIP3   OH213001   4.893   5.327   2.299
 4332TIP3    H113002   4.833   5.253   2.302
 4332TIP3    H213003   4.921   5.332   2.208
 4333TIP3   OH213004   0.181   4.466   0.384
 4333TIP3    H113005   0.197   4.377   0.418
 4333TIP3    H213006   0.166   4.519   0.462
 4334TIP3   OH213007   2.478   2.963   1.106
 4334TIP3    H113008   2.396   3.003   1.076
 4334TIP3    H213009   2.473   2.873   1.074
 4335TIP3   OH213010   5.228   4.706   2.422
 4335TIP3    H113011   5.174   4.785   2.424
 4335TIP3    H213012   5.185   4.649   2.358
 4336TIP3   OH213013   0.041   2.267   0.258
 4336TIP3    H113014  -0.023   2.325   0.218
 4336TIP3    H213015   0.122   2.281   0.209
 4337TIP3   OH213016   5.153   3.326   2.592
 4337TIP3    H113017   5.187   3.406   2.631
 4337TIP3    H213018   5.101   3.356   2.518
 4338TIP3   OH213019   0.924   0.741   2.941
 4338TIP3    H113020   0.961   0.738   2.853
 4338TIP3    H213021   0.953   0.660   2.982
 4339TIP3   OH213022   3.050   0.109   4.579
 4339TIP3    H113023   3.103   0.181   4.614
 4339TIP3    H213024   3.020   0.062   4.657
 4340TIP3   OH213025   4.611   3.953   5.111
 4340TIP3    H113026   4.515   3.954   5.120
 4340TIP3    H213027   4.628   3.887   5.044
 4341TIP3   OH213028   2.574   0.482   1.587
 4341TIP3    H113029   2.513   0.448   1.652
 4341TIP3    H213030   2.528   0.556   1.547
 4342TIP3   OH213031   0.882   2.287   0.978
 4342TIP3    H113032   0.951   2.334   0.932
 4342TIP3    H213033   0.858   2.345   1.051
 4343TIP3   OH213034   6.101   4.799   4.411
 4343TIP3    H113035   6.019   4.776   4.456
 4343TIP3    H213036   6.089   4.769   4.321
 4344TIP3   OH213037   2.100   0.766   0.657
 4344TIP3    H113038   2.046   0.811   0.593
 4344TIP3    H213039   2.114   0.830   0.727
 4345TIP3   OH213040   5.956   1.840   3.846
 4345TIP3    H113041   6.047   1.827   3.817
 4345TIP3    H213042   5.922   1.906   3.786
 4346TIP3   OH213043   4.555   1.719   0.773
 4346TIP3    H113044   4.497   1.796   0.776
 4346TIP3    H213045   4.551   1.690   0.682
 4347TIP3   OH213046   5.244   2.698   0.085
 4347TIP3    H113047   5.282   2.783   0.063
 4347TIP3    H213048   5.320   2.642   0.101
 4348TIP3   OH213049   5.403   1.221   3.639
 4348TIP3    H113050   5.329   1.228   3.699
 4348TIP3    H213051   5.450   1.143   3.668
 4349TIP3   OH213052   0.204   4.967   0.034
 4349TIP3    H113053   0.143   4.893   0.036
 4349TIP3    H213054   0.290   4.927   0.044
 4350TIP3   OH213055   3.893   2.037   3.233
 4350TIP3    H113056   3.858   2.101   3.296
 4350TIP3    H213057   3.877   2.077   3.148
 4351TIP3   OH213058   5.331   0.987   4.590
 4351TIP3    H113059   5.363   1.011   4.504
 4351TIP3    H213060   5.236   0.991   4.582
 4352TIP3   OH213061   0.819   2.848   1.443
 4352TIP3    H113062   0.886   2.882   1.502
 4352TIP3    H213063   0.820   2.754   1.456
 4353TIP3   OH213064   4.041   2.021   3.609
 4353TIP3    H113065   4.101   2.078   3.561
 4353TIP3    H213066   3.984   2.080   3.657
 4354TIP3   OH213067   0.709   1.833   0.726
 4354TIP3    H113068   0.681   1.912   0.772
 4354TIP3    H213069   0.629   1.782   0.713
 4355TIP3   OH213070   0.191   2.358   4.827
 4355TIP3    H113071   0.130   2.284   4.825
 4355TIP3    H213072   0.139   2.433   4.798
 4356TIP3   OH213073   4.664   3.300   1.785
 4356TIP3    H113074   4.634   3.376   1.735
 4356TIP3    H213075   4.711   3.246   1.720
 4357TIP3   OH213076   6.174   5.045   1.413
 4357TIP3    H113077   6.098   5.018   1.464
 4357TIP3    H213078   6.169   5.141   1.412
 4358TIP3   OH213079   2.715   0.155   3.729
 4358TIP3    H113080   2.733   0.116   3.815
 4358TIP3    H213081   2.771   0.232   3.726
 4359TIP3   OH213082   6.068   0.349   0.453
 4359TIP3    H113083   6.072   0.424   0.512
 4359TIP3    H213084   6.134   0.367   0.386
 4360TIP3   OH213085   1.331   4.493   3.713
 4360TIP3    H113086   1.269   4.512   3.643
 4360TIP3    H213087   1.409   4.459   3.668
 4361TIP3   OH213088   1.635   4.284   2.361
 4361TIP3    H113089   1.660   4.366   2.404
 4361TIP3    H213090   1.700   4.220   2.390
 4362TIP3   OH213091   1.625   2.179   2.855
 4362TIP3    H113092   1.592   2.103   2.902
 4362TIP3    H213093   1.651   2.240   2.923
 4363TIP3   OH213094   3.079   0.681   0.326
 4363TIP3    H113095   3.118   0.719   0.405
 4363TIP3    H213096   2.990   0.717   0.324
 4364TIP3   OH213097   2.000   4.999   3.055
 4364TIP3    H113098   1.949   5.075   3.083
 4364TIP3    H213099   2.048   4.972   3.133
 4365TIP3   OH213100   6.207   2.670   4.841
 4365TIP3    H113101   6.188   2.739   4.905
 4365TIP3    H213102   6.302   2.656   4.850
 4366TIP3   OH213103   2.423   0.918   1.143
 4366TIP3    H113104   2.495   0.966   1.101
 4366TIP3    H213105   2.408   0.965   1.225
 4367TIP3   OH213106   4.807   4.513   2.340
 4367TIP3    H113107   4.787   4.428   2.380
 4367TIP3    H213108   4.901   4.511   2.326
 4368TIP3   OH213109   6.198   1.629   1.360
 4368TIP3    H113110   6.112   1.616   1.320
 4368TIP3    H213111   6.217   1.546   1.404
 4369TIP3   OH213112   3.352   0.735   0.241
 4369TIP3    H113113   3.264   0.705   0.262
 4369TIP3    H213114   3.351   0.750   0.146
 4370TIP3   OH213115   3.242   5.759   0.497
 4370TIP3    H113116   3.293   5.699   0.442
 4370TIP3    H213117   3.201   5.819   0.435
 4371TIP3   OH213118   4.061   5.723   0.008
 4371TIP3    H113119   4.073   5.630  -0.010
 4371TIP3    H213120   4.126   5.743   0.075
 4372TIP3   OH213121   3.731   0.602   0.729
 4372TIP3    H113122   3.784   0.664   0.680
 4372TIP3    H213123   3.687   0.549   0.662
 4373TIP3   OH213124   4.939   5.762   4.957
 4373TIP3    H113125   4.900   5.820   4.893
 4373TIP3    H213126   5.031   5.789   4.962
 4374TIP3   OH213127   1.420   5.502   0.620
 4374TIP3    H113128   1.350   5.514   0.685
 4374TIP3    H213129   1.472   5.429   0.655
 4375TIP3   OH213130   5.440   5.405   3.833
 4375TIP3    H113131   5.356   5.449   3.842
 4375TIP3    H213132   5.424   5.315   3.860
 4376TIP3   OH213133   4.603   2.580   4.424
 4376TIP3    H113134   4.601   2.664   4.379
 4376TIP3    H213135   4.684   2.538   4.394
 4377TIP3   OH213136   0.971   2.748   3.956
 4377TIP3    H113137   0.986   2.662   3.917
 4377TIP3    H213138   1.048   2.799   3.932
 4378TIP3   OH213139   0.826   4.701   0.820
 4378TIP3    H113140   0.919   4.683   0.830
 4378TIP3    H213141   0.802   4.659   0.737
 4379TIP3   OH213142   4.988   4.117   0.736
 4379TIP3    H113143   4.954   4.139   0.822
 4379TIP3    H213144   4.961   4.189   0.679
 4380TIP3   OH213145   1.757   3.394   4.663
 4380TIP3    H113146   1.709   3.451   4.724
 4380TIP3    H213147   1.848   3.421   4.672
 4381TIP3   OH213148   0.162   0.940   4.197
 4381TIP3    H113149   0.124   0.859   4.231
 4381TIP3    H213150   0.219   0.912   4.125
 4382TIP3   OH213151   5.833   5.259   3.633
 4382TIP3    H113152   5.928   5.258   3.620
 4382TIP3    H213153   5.813   5.349   3.658
 4383TIP3   OH213154   5.301   5.513   0.044
 4383TIP3    H113155   5.293   5.418   0.053
 4383TIP3    H213156   5.249   5.534  -0.033
 4384TIP3   OH213157   0.705   3.707   1.994
 4384TIP3    H113158   0.787   3.707   1.943
 4384TIP3    H213159   0.721   3.645   2.065
 4385TIP3   OH213160   0.162   5.198   4.305
 4385TIP3    H113161   0.083   5.241   4.338
 4385TIP3    H213162   0.131   5.135   4.240
 4386TIP3   OH213163   3.953   5.704   0.311
 4386TIP3    H113164   3.994   5.618   0.318
 4386TIP3    H213165   3.892   5.708   0.384
 4387TIP3   OH213166   0.084   5.468   1.786
 4387TIP3    H113167   0.174   5.436   1.784
 4387TIP3    H213168   0.038   5.404   1.841
 4388TIP3   OH213169   5.782   3.720   2.431
 4388TIP3    H113170   5.849   3.659   2.461
 4388TIP3    H213171   5.829   3.779   2.371
 4389TIP3   OH213172   2.654   0.217   1.486
 4389TIP3    H113173   2.658   0.302   1.529
 4389TIP3    H213174   2.562   0.205   1.464
 4390TIP3   OH213175   1.723   1.121   1.423
 4390TIP3    H113176   1.686   1.175   1.493
 4390TIP3    H213177   1.818   1.132   1.433
 4391TIP3   OH213178   3.895   5.556   3.973
 4391TIP3    H113179   3.955   5.610   3.922
 4391TIP3    H213180   3.919   5.572   4.064
 4392TIP3   OH213181   2.422   0.888   3.839
 4392TIP3    H113182   2.453   0.957   3.781
 4392TIP3    H213183   2.465   0.809   3.806
 4393TIP3   OH213184   6.171   5.424   2.937
 4393TIP3    H113185   6.254   5.396   2.899
 4393TIP3    H213186   6.186   5.423   3.032
 4394TIP3   OH213187   0.610   5.955   0.124
 4394TIP3    H113188   0.645   6.044   0.120
 4394TIP3    H213189   0.615   5.931   0.216
 4395TIP3   OH213190   3.370   5.037   0.462
 4395TIP3    H113191   3.406   5.123   0.438
 4395TIP3    H213192   3.275   5.047   0.450
 4396TIP3   OH213193   0.564   3.602   1.705
 4396TIP3    H113194   0.595   3.650   1.782
 4396TIP3    H213195   0.527   3.521   1.741
 4397TIP3   OH213196   5.241   1.775   2.380
 4397TIP3    H113197   5.161   1.772   2.329
 4397TIP3    H213198   5.310   1.751   2.318
 4398TIP3   OH213199   2.614   2.322   3.460
 4398TIP3    H113200   2.598   2.348   3.551
 4398TIP3    H213201   2.591   2.399   3.408
 4399TIP3   OH213202   2.075   2.414   1.963
 4399TIP3    H113203   2.109   2.352   1.898
 4399TIP3    H213204   2.002   2.457   1.919
 4400TIP3   OH213205   2.440   4.082   3.511
 4400TIP3    H113206   2.385   4.125   3.576
 4400TIP3    H213207   2.380   4.059   3.440
 4401TIP3   OH213208   5.091   2.328   4.438
 4401TIP3    H113209   5.150   2.396   4.405
 4401TIP3    H213210   5.128   2.305   4.523
 4402TIP3   OH213211   4.552   4.234   4.280
 4402TIP3    H113212   4.524   4.177   4.209
 4402TIP3    H213213   4.530   4.185   4.360
 4403TIP3   OH213214   2.511   2.578   0.762
 4403TIP3    H113215   2.535   2.577   0.855
 4403TIP3    H213216   2.432   2.633   0.758
 4404TIP3   OH213217   3.574   2.057   2.630
 4404TIP3    H113218   3.537   2.127   2.684
 4404TIP3    H213219   3.528   1.978   2.659
 4405TIP3   OH213220   2.091   2.442   2.839
 4405TIP3    H113221   2.129   2.482   2.762
 4405TIP3    H213222   2.004   2.480   2.846
 4406TIP3   OH213223   0.355   3.287   5.041
 4406TIP3    H113224   0.362   3.199   5.078
 4406TIP3    H213225   0.366   3.274   4.947
 4407TIP3   OH213226   5.391   0.053   1.549
 4407TIP3    H113227   5.482   0.035   1.528
 4407TIP3    H213228   5.347  -0.031   1.539
 4408TIP3   OH213229   6.285   1.912   2.815
 4408TIP3    H113230   6.320   1.987   2.767
 4408TIP3    H213231   6.195   1.938   2.837
 4409TIP3   OH213232   2.039   0.356   0.653
 4409TIP3    H113233   2.007   0.390   0.736
 4409TIP3    H213234   2.103   0.421   0.623
 4410TIP3   OH213235   2.025   3.079   3.472
 4410TIP3    H113236   1.943   3.098   3.518
 4410TIP3    H213237   2.026   3.140   3.398
 4411TIP3   OH213238   0.468   3.650   0.837
 4411TIP3    H113239   0.398   3.639   0.902
 4411TIP3    H213240   0.510   3.565   0.833
 4412TIP3   OH213241   2.699   2.036   3.046
 4412TIP3    H113242   2.680   1.953   3.088
 4412TIP3    H213243   2.630   2.047   2.980
 4413TIP3   OH213244   1.021   2.268   4.138
 4413TIP3    H113245   1.092   2.260   4.201
 4413TIP3    H213246   0.977   2.183   4.141
 4414TIP3   OH213247   5.640   1.551   1.023
 4414TIP3    H113248   5.609   1.471   0.979
 4414TIP3    H213249   5.626   1.533   1.116
 4415TIP3   OH213250   3.367   3.161   4.268
 4415TIP3    H113251   3.282   3.148   4.309
 4415TIP3    H213252   3.425   3.188   4.340
 4416TIP3   OH213253   3.897   4.783   0.238
 4416TIP3    H113254   3.883   4.695   0.204
 4416TIP3    H213255   3.856   4.783   0.324
 4417TIP3   OH213256   4.940   1.751   2.741
 4417TIP3    H113257   4.978   1.839   2.739
 4417TIP3    H213258   4.850   1.764   2.772
 4418TIP3   OH213259   0.984   1.374   3.978
 4418TIP3    H113260   1.034   1.293   3.968
 4418TIP3    H213261   0.980   1.411   3.890
 4419TIP3   OH213262   4.272   3.067   0.781
 4419TIP3    H113263   4.304   3.128   0.715
 4419TIP3    H213264   4.339   3.067   0.849
 4420TIP3   OH213265   1.107   0.906   4.122
 4420TIP3    H113266   1.189   0.950   4.103
 4420TIP3    H213267   1.133   0.822   4.160
 4421TIP3   OH213268   0.323   5.571   0.054
 4421TIP3    H113269   0.378   5.553  -0.022
 4421TIP3    H213270   0.360   5.650   0.092
 4422TIP3   OH213271   4.037   3.797   4.852
 4422TIP3    H113272   4.047   3.810   4.946
 4422TIP3    H213273   3.943   3.782   4.840
 4423TIP3   OH213274   6.327   1.786   3.782
 4423TIP3    H113275   6.385   1.837   3.838
 4423TIP3    H213276   6.380   1.711   3.754
 4424TIP3   OH213277   2.277   0.507   4.002
 4424TIP3    H113278   2.262   0.595   3.968
 4424TIP3    H213279   2.308   0.520   4.092
 4425TIP3   OH213280   4.449   4.436   1.834
 4425TIP3    H113281   4.452   4.343   1.857
 4425TIP3    H213282   4.405   4.438   1.750
 4426TIP3   OH213283   1.083   5.245   4.991
 4426TIP3    H113284   0.988   5.249   4.984
 4426TIP3    H213285   1.100   5.161   5.033
 4427TIP3   OH213286   1.395   3.648   2.807
 4427TIP3    H113287   1.470   3.589   2.798
 4427TIP3    H213288   1.430   3.735   2.788
 4428TIP3   OH213289   3.710   1.495   0.828
 4428TIP3    H113290   3.651   1.515   0.756
 4428TIP3    H213291   3.691   1.560   0.895
 4429TIP3   OH213292   4.848   5.658   0.385
 4429TIP3    H113293   4.857   5.724   0.317
 4429TIP3    H213294   4.937   5.626   0.399
 4430TIP3   OH213295   4.030   1.808   3.172
 4430TIP3    H113296   3.982   1.877   3.217
 4430TIP3    H213297   3.971   1.732   3.173
 4431TIP3   OH213298   3.041   1.908   0.046
 4431TIP3    H113299   2.978   1.968   0.004
 4431TIP3    H213300   3.075   1.958   0.120
 4432TIP3   OH213301   4.980   3.812   1.089
 4432TIP3    H113302   4.997   3.749   1.158
 4432TIP3    H213303   4.897   3.854   1.114
 4433TIP3   OH213304   1.849   3.216   5.121
 4433TIP3    H113305   1.835   3.311   5.121
 4433TIP3    H213306   1.808   3.186   5.040
 4434TIP3   OH213307   0.633   1.529   3.951
 4434TIP3    H113308   0.588   1.565   3.875
 4434TIP3    H213309   0.574   1.547   4.024
 4435TIP3   OH213310   3.012   0.975   0.705
 4435TIP3    H113311   3.019   0.970   0.800
 4435TIP3    H213312   2.919   0.984   0.687
 4436TIP3   OH213313   0.214   3.569   4.029
 4436TIP3    H113314   0.191   3.509   3.958
 4436TIP3    H213315   0.244   3.513   4.100
 4437TIP3   OH213316   0.838   3.387   3.624
 4437TIP3    H113317   0.849   3.302   3.582
 4437TIP3    H213318   0.764   3.427   3.579
 4438TIP3   OH213319   2.031   2.358   0.557
 4438TIP3    H113320   1.938   2.367   0.536
 4438TIP3    H213321   2.048   2.426   0.621
 4439TIP3   OH213322   5.184   3.406   0.371
 4439TIP3    H113323   5.277   3.415   0.391
 4439TIP3    H213324   5.141   3.476   0.421
 4440TIP3   OH213325   1.434   1.453   1.151
 4440TIP3    H113326   1.405   1.424   1.064
 4440TIP3    H213327   1.442   1.373   1.201
 4441TIP3   OH213328   5.100   4.993   3.390
 4441TIP3    H113329   5.104   4.898   3.399
 4441TIP3    H213330   5.187   5.023   3.413
 4442TIP3   OH213331   4.174   0.918   3.539
 4442TIP3    H113332   4.204   0.830   3.516
 4442TIP3    H213333   4.235   0.976   3.494
 4443TIP3   OH213334   2.789   3.989   0.738
 4443TIP3    H113335   2.753   3.931   0.670
 4443TIP3    H213336   2.739   4.070   0.729
 4444TIP3   OH213337   4.574   1.662   4.083
 4444TIP3    H113338   4.557   1.718   4.159
 4444TIP3    H213339   4.487   1.629   4.057
 4445TIP3   OH213340   5.809   3.800   3.249
 4445TIP3    H113341   5.882   3.755   3.292
 4445TIP3    H213342   5.850   3.865   3.192
 4446TIP3   OH213343   5.223   4.673   1.338
 4446TIP3    H113344   5.231   4.633   1.251
 4446TIP3    H213345   5.301   4.728   1.346
 4447TIP3   OH213346   4.851   3.125   1.671
 4447TIP3    H113347   4.899   3.156   1.748
 4447TIP3    H213348   4.838   3.031   1.686
 4448TIP3   OH213349   3.228   0.303   4.665
 4448TIP3    H113350   3.299   0.260   4.712
 4448TIP3    H213351   3.269   0.337   4.585
 4449TIP3   OH213352   4.326   0.427   3.120
 4449TIP3    H113353   4.343   0.433   3.026
 4449TIP3    H213354   4.296   0.336   3.133
 4450TIP3   OH213355   2.628   0.446   4.672
 4450TIP3    H113356   2.544   0.478   4.705
 4450TIP3    H213357   2.645   0.366   4.722
 4451TIP3   OH213358   0.493   3.918   4.474
 4451TIP3    H113359   0.577   3.950   4.508
 4451TIP3    H213360   0.517   3.868   4.396
 4452TIP3   OH213361   1.854   2.329   3.877
 4452TIP3    H113362   1.929   2.272   3.894
 4452TIP3    H213363   1.834   2.316   3.785
 4453TIP3   OH213364   5.633   0.462   0.164
 4453TIP3    H113365   5.728   0.457   0.151
 4453TIP3    H213366   5.613   0.556   0.158
 4454TIP3   OH213367   5.703   2.293   3.871
 4454TIP3    H113368   5.683   2.286   3.777
 4454TIP3    H213369   5.617   2.297   3.913
 4455TIP3   OH213370   0.071   4.745   2.299
 4455TIP3    H113371   0.094   4.838   2.302
 4455TIP3    H213372   0.149   4.702   2.265
 4456TIP3   OH213373   2.786   4.995   2.258
 4456TIP3    H113374   2.755   5.080   2.291
 4456TIP3    H213375   2.792   5.007   2.163
 4457TIP3   OH213376   0.688   3.849   4.782
 4457TIP3    H113377   0.617   3.850   4.718
 4457TIP3    H213378   0.652   3.805   4.858
 4458TIP3   OH213379   3.794   0.139   1.369
 4458TIP3    H113380   3.751   0.103   1.291
 4458TIP3    H213381   3.723   0.180   1.418
 4459TIP3   OH213382   4.808   0.646   2.360
 4459TIP3    H113383   4.901   0.627   2.374
 4459TIP3    H213384   4.789   0.611   2.273
 4460TIP3   OH213385   4.421   5.418   3.938
 4460TIP3    H113386   4.413   5.479   3.864
 4460TIP3    H213387   4.331   5.403   3.967
 4461TIP3   OH213388   3.925   2.558   0.606
 4461TIP3    H113389   3.846   2.515   0.639
 4461TIP3    H213390   3.901   2.651   0.602
 4462TIP3   OH213391   2.134   2.862   4.140
 4462TIP3    H113392   2.223   2.875   4.172
 4462TIP3    H213393   2.114   2.941   4.089
 4463TIP3   OH213394   2.169   0.529   3.132
 4463TIP3    H113395   2.195   0.463   3.196
 4463TIP3    H213396   2.193   0.492   3.047
 4464TIP3   OH213397   1.652   4.267   2.806
 4464TIP3    H113398   1.716   4.333   2.779
 4464TIP3    H213399   1.608   4.307   2.881
 4465TIP3   OH213400   0.335   3.714   1.530
 4465TIP3    H113401   0.425   3.697   1.501
 4465TIP3    H213402   0.330   3.673   1.616
 4466TIP3   OH213403   4.376   1.545   2.679
 4466TIP3    H113404   4.298   1.496   2.705
 4466TIP3    H213405   4.341   1.625   2.638
 4467TIP3   OH213406   1.543   2.981   4.496
 4467TIP3    H113407   1.459   2.984   4.450
 4467TIP3    H213408   1.607   2.957   4.428
 4468TIP3   OH213409   1.642   4.395   0.187
 4468TIP3    H113410   1.668   4.344   0.264
 4468TIP3    H213411   1.552   4.369   0.171
 4469TIP3   OH213412   3.368   4.328   0.553
 4469TIP3    H113413   3.285   4.282   0.541
 4469TIP3    H213414   3.343   4.412   0.591
 4470TIP3   OH213415   4.419   4.732   5.130
 4470TIP3    H113416   4.384   4.648   5.160
 4470TIP3    H213417   4.512   4.729   5.155
 4471TIP3   OH213418   2.970   4.074   3.642
 4471TIP3    H113419   3.015   4.115   3.716
 4471TIP3    H213420   2.974   4.140   3.573
 4472TIP3   OH213421   2.704   5.185   4.172
 4472TIP3    H113422   2.616   5.174   4.137
 4472TIP3    H213423   2.732   5.096   4.196
 4473TIP3   OH213424   3.318   4.788   3.447
 4473TIP3    H113425   3.410   4.807   3.467
 4473TIP3    H213426   3.321   4.738   3.366
 4474TIP3   OH213427   0.331   5.982   4.532
 4474TIP3    H113428   0.370   5.898   4.556
 4474TIP3    H213429   0.298   6.018   4.614
 4475TIP3   OH213430   0.712   3.141   1.420
 4475TIP3    H113431   0.690   3.062   1.371
 4475TIP3    H213432   0.678   3.213   1.367
 4476TIP3   OH213433   3.901   5.626   4.241
 4476TIP3    H113434   3.844   5.676   4.298
 4476TIP3    H213435   3.982   5.615   4.291
 4477TIP3   OH213436   4.635   5.850   2.739
 4477TIP3    H113437   4.642   5.779   2.675
 4477TIP3    H213438   4.726   5.875   2.756
 4478TIP3   OH213439   2.633   1.351   3.771
 4478TIP3    H113440   2.703   1.413   3.791
 4478TIP3    H213441   2.642   1.282   3.837
 4479TIP3   OH213442   1.632   5.766   0.092
 4479TIP3    H113443   1.658   5.761   0.183
 4479TIP3    H213444   1.650   5.856   0.066
 4480TIP3   OH213445   4.850   1.406   0.727
 4480TIP3    H113446   4.794   1.404   0.805
 4480TIP3    H213447   4.803   1.354   0.662
 4481TIP3   OH213448   1.644   4.233   4.612
 4481TIP3    H113449   1.703   4.222   4.686
 4481TIP3    H213450   1.703   4.244   4.537
 4482TIP3   OH213451   1.837   4.857   4.014
 4482TIP3    H113452   1.893   4.794   3.969
 4482TIP3    H213453   1.765   4.873   3.952
 4483TIP3   OH213454   2.317   3.923   0.572
 4483TIP3    H113455   2.370   3.983   0.520
 4483TIP3    H213456   2.227   3.942   0.546
 4484TIP3   OH213457   0.379   5.617   4.174
 4484TIP3    H113458   0.337   5.653   4.096
 4484TIP3    H213459   0.457   5.671   4.187
 4485TIP3   OH213460   3.081   1.841   1.502
 4485TIP3    H113461   3.044   1.889   1.576
 4485TIP3    H213462   3.027   1.866   1.427
 4486TIP3   OH213463   4.276   2.843   0.059
 4486TIP3    H113464   4.202   2.891   0.021
 4486TIP3    H213465   4.311   2.792  -0.014
 4487TIP3   OH213466   4.402   0.417   4.577
 4487TIP3    H113467   4.462   0.362   4.526
 4487TIP3    H213468   4.367   0.358   4.644
 4488TIP3   OH213469   3.949   2.943   4.810
 4488TIP3    H113470   4.021   2.934   4.872
 4488TIP3    H213471   3.889   2.872   4.833
 4489TIP3   OH213472   2.097   0.903   1.273
 4489TIP3    H113473   2.172   0.918   1.331
 4489TIP3    H213474   2.046   0.836   1.318
 4490TIP3   OH213475   3.800   4.468   2.976
 4490TIP3    H113476   3.752   4.545   3.007
 4490TIP3    H213477   3.732   4.409   2.942
 4491TIP3   OH213478   2.830   0.792   0.388
 4491TIP3    H113479   2.771   0.835   0.326
 4491TIP3    H213480   2.848   0.860   0.453
 4492TIP3   OH213481   0.183   3.919   0.725
 4492TIP3    H113482   0.173   3.991   0.788
 4492TIP3    H213483   0.277   3.917   0.706
 4493TIP3   OH213484   3.479   5.351   1.745
 4493TIP3    H113485   3.399   5.342   1.692
 4493TIP3    H213486   3.463   5.428   1.800
 4494TIP3   OH213487   2.922   1.293   0.977
 4494TIP3    H113488   2.989   1.292   0.908
 4494TIP3    H213489   2.945   1.220   1.034
 4495TIP3   OH213490   5.898   4.766   4.143
 4495TIP3    H113491   5.899   4.850   4.189
 4495TIP3    H213492   5.989   4.753   4.116
 4496TIP3   OH213493   1.828   5.043   2.495
 4496TIP3    H113494   1.767   4.981   2.456
 4496TIP3    H213495   1.903   5.046   2.435
 4497TIP3   OH213496   1.924   5.367   2.794
 4497TIP3    H113497   1.865   5.401   2.727
 4497TIP3    H213498   1.958   5.286   2.756
 4498TIP3   OH213499   0.294   3.766   2.068
 4498TIP3    H113500   0.377   3.784   2.023
 4498TIP3    H213501   0.305   3.807   2.154
 4499TIP3   OH213502   3.188   4.036   4.282
 4499TIP3    H113503   3.154   3.947   4.282
 4499TIP3    H213504   3.198   4.058   4.189
 4500TIP3   OH213505   5.047   3.213   1.436
 4500TIP3    H113506   4.983   3.280   1.459
 4500TIP3    H213507   5.102   3.254   1.369
 4501TIP3   OH213508   4.536   4.481   3.273
 4501TIP3    H113509   4.498   4.557   3.317
 4501TIP3    H213510   4.537   4.504   3.180
 4502TIP3   OH213511   5.083   5.546   0.501
 4502TIP3    H113512   5.102   5.469   0.447
 4502TIP3    H213513   5.121   5.525   0.587
 4503TIP3   OH213514   3.756   5.451   4.607
 4503TIP3    H113515   3.800   5.382   4.558
 4503TIP3    H213516   3.827   5.504   4.644
 4504TIP3   OH213517   5.358   4.947   0.030
 4504TIP3    H113518   5.281   4.899   0.000
 4504TIP3    H213519   5.428   4.881   0.030
 4505TIP3   OH213520   1.951   2.631   1.786
 4505TIP3    H113521   1.974   2.679   1.865
 4505TIP3    H213522   1.995   2.678   1.715
 4506TIP3   OH213523   1.785   4.325   3.728
 4506TIP3    H113524   1.789   4.420   3.733
 4506TIP3    H213525   1.795   4.296   3.819
 4507TIP3   OH213526   4.897   2.626   3.609
 4507TIP3    H113527   4.990   2.627   3.630
 4507TIP3    H213528   4.876   2.718   3.590
 4508TIP3   OH213529   4.547   2.543   3.657
 4508TIP3    H113530   4.535   2.467   3.713
 4508TIP3    H213531   4.591   2.607   3.712
 4509TIP3   OH213532   4.779   4.632   0.934
 4509TIP3    H113533   4.840   4.575   0.981
 4509TIP3    H213534   4.692   4.602   0.962
 4510TIP3   OH213535   1.960   3.247   0.066
 4510TIP3    H113536   1.885   3.300   0.040
 4510TIP3    H213537   1.970   3.263   0.160
 4511TIP3   OH213538   2.963   0.598   2.621
 4511TIP3    H113539   2.995   0.646   2.545
 4511TIP3    H213540   3.017   0.629   2.694
 4512TIP3   OH213541   2.098   5.693   4.480
 4512TIP3    H113542   2.105   5.597   4.484
 4512TIP3    H213543   2.091   5.712   4.386
 4513TIP3   OH213544   5.280   0.530   0.236
 4513TIP3    H113545   5.337   0.551   0.162
 4513TIP3    H213546   5.194   0.562   0.210
 4514TIP3   OH213547   3.603   2.349   4.460
 4514TIP3    H113548   3.686   2.390   4.482
 4514TIP3    H213549   3.565   2.406   4.392
 4515TIP3   OH213550   3.236   5.482   3.458
 4515TIP3    H113551   3.325   5.507   3.481
 4515TIP3    H213552   3.208   5.424   3.528
 4516TIP3   OH213553   5.039   5.076   5.051
 4516TIP3    H113554   4.956   5.121   5.068
 4516TIP3    H213555   5.093   5.141   5.006
 4517TIP3   OH213556   4.722   4.666   5.075
 4517TIP3    H113557   4.709   4.750   5.031
 4517TIP3    H213558   4.753   4.690   5.163
 4518TIP3   OH213559   2.998   0.893   3.203
 4518TIP3    H113560   2.983   0.964   3.141
 4518TIP3    H213561   3.078   0.851   3.171
 4519TIP3   OH213562   5.893   0.482   1.319
 4519TIP3    H113563   5.966   0.428   1.286
 4519TIP3    H213564   5.897   0.472   1.414
 4520TIP3   OH213565   5.505   0.204   0.193
 4520TIP3    H113566   5.532   0.295   0.186
 4520TIP3    H213567   5.585   0.157   0.217
 4521TIP3   OH213568   2.167   3.308   5.085
 4521TIP3    H113569   2.107   3.332   5.156
 4521TIP3    H213570   2.254   3.324   5.121
 4522TIP3   OH213571   4.192   1.297   0.449
 4522TIP3    H113572   4.207   1.389   0.468
 4522TIP3    H213573   4.206   1.288   0.355
 4523TIP3   OH213574   4.239   3.066   2.771
 4523TIP3    H113575   4.264   3.141   2.825
 4523TIP3    H213576   4.266   2.989   2.822
 4524TIP3   OH213577   6.324   1.176   3.049
 4524TIP3    H113578   6.334   1.270   3.061
 4524TIP3    H213579   6.230   1.164   3.035
 4525TIP3   OH213580   1.199   2.004   1.973
 4525TIP3    H113581   1.264   1.939   2.002
 4525TIP3    H213582   1.176   1.977   1.884
 4526TIP3   OH213583   2.754   5.884   0.171
 4526TIP3    H113584   2.809   5.961   0.163
 4526TIP3    H213585   2.690   5.907   0.238
 4527TIP3   OH213586   2.881   3.112   4.489
 4527TIP3    H113587   2.925   3.157   4.562
 4527TIP3    H213588   2.843   3.034   4.528
 4528TIP3   OH213589   5.366   3.401   3.884
 4528TIP3    H113590   5.418   3.330   3.846
 4528TIP3    H213591   5.384   3.477   3.828
 4529TIP3   OH213592   0.602   1.644   1.292
 4529TIP3    H113593   0.697   1.645   1.292
 4529TIP3    H213594   0.577   1.721   1.240
 4530TIP3   OH213595   3.152   0.574   0.077
 4530TIP3    H113596   3.178   0.484   0.093
 4530TIP3    H213597   3.121   0.606   0.162
 4531TIP3   OH213598   3.642   0.887   2.435
 4531TIP3    H113599   3.661   0.813   2.377
 4531TIP3    H213600   3.684   0.863   2.518
 4532TIP3   OH213601   4.029   5.059   0.272
 4532TIP3    H113602   3.965   5.088   0.206
 4532TIP3    H213603   4.064   4.977   0.237
 4533TIP3   OH213604   4.206   0.279   4.763
 4533TIP3    H113605   4.160   0.208   4.808
 4533TIP3    H213606   4.138   0.326   4.715
 4534TIP3   OH213607   2.755   3.465   4.597
 4534TIP3    H113608   2.828   3.434   4.650
 4534TIP3    H213609   2.677   3.442   4.647
 4535TIP3   OH213610   1.799   4.015   0.614
 4535TIP3    H113611   1.790   3.961   0.692
 4535TIP3    H213612   1.708   4.037   0.590
 4536TIP3   OH213613   2.637   3.383   4.869
 4536TIP3    H113614   2.713   3.435   4.895
 4536TIP3    H213615   2.562   3.436   4.895
 4537TIP3   OH213616   3.294   1.564   4.672
 4537TIP3    H113617   3.339   1.629   4.617
 4537TIP3    H213618   3.283   1.488   4.615
 4538TIP3   OH213619   1.210   4.037   0.636
 4538TIP3    H113620   1.136   4.059   0.580
 4538TIP3    H213621   1.224   4.114   0.691
 4539TIP3   OH213622   2.748   2.525   3.778
 4539TIP3    H113623   2.825   2.484   3.817
 4539TIP3    H213624   2.683   2.527   3.849
 4540TIP3   OH213625   1.811   3.508   0.211
 4540TIP3    H113626   1.882   3.573   0.211
 4540TIP3    H213627   1.803   3.483   0.119
 4541TIP3   OH213628   2.556   4.794   1.129
 4541TIP3    H113629   2.481   4.844   1.163
 4541TIP3    H213630   2.584   4.740   1.203
 4542TIP3   OH213631   2.086   4.232   0.718
 4542TIP3    H113632   2.142   4.155   0.725
 4542TIP3    H213633   2.015   4.216   0.780
 4543TIP3   OH213634   3.613   1.188   4.829
 4543TIP3    H113635   3.533   1.147   4.863
 4543TIP3    H213636   3.583   1.269   4.788
 4544TIP3   OH213637   0.254   0.985   5.172
 4544TIP3    H113638   0.317   0.947   5.111
 4544TIP3    H213639   0.239   1.074   5.140
 4545TIP3   OH213640   6.124   3.453   1.600
 4545TIP3    H113641   6.160   3.515   1.536
 4545TIP3    H213642   6.138   3.367   1.560
 4546TIP3   OH213643   0.168   4.145   0.872
 4546TIP3    H113644   0.251   4.163   0.917
 4546TIP3    H213645   0.101   4.184   0.929
 4547TIP3   OH213646   2.409   0.819   2.729
 4547TIP3    H113647   2.333   0.878   2.734
 4547TIP3    H213648   2.483   0.874   2.758
 4548TIP3   OH213649   3.464   1.279   4.108
 4548TIP3    H113650   3.471   1.204   4.166
 4548TIP3    H213651   3.548   1.284   4.064
 4549TIP3   OH213652   3.625   4.708   4.142
 4549TIP3    H113653   3.628   4.613   4.156
 4549TIP3    H213654   3.704   4.741   4.186
 4550TIP3   OH213655   2.457   2.020   2.810
 4550TIP3    H113656   2.406   1.940   2.800
 4550TIP3    H213657   2.392   2.090   2.815
 4551TIP3   OH213658   2.073   4.283   1.377
 4551TIP3    H113659   2.048   4.294   1.285
 4551TIP3    H213660   2.168   4.296   1.378
 4552TIP3   OH213661   5.483   2.708   4.858
 4552TIP3    H113662   5.446   2.620   4.850
 4552TIP3    H213663   5.571   2.694   4.893
 4553TIP3   OH213664   5.830   5.352   2.495
 4553TIP3    H113665   5.779   5.278   2.460
 4553TIP3    H213666   5.899   5.365   2.430
 4554TIP3   OH213667   4.978   3.378   0.180
 4554TIP3    H113668   4.984   3.467   0.147
 4554TIP3    H213669   5.017   3.381   0.267
 4555TIP3   OH213670   5.508   3.979   2.013
 4555TIP3    H113671   5.487   4.046   2.079
 4555TIP3    H213672   5.601   3.962   2.025
 4556TIP3   OH213673   0.634   5.678   0.201
 4556TIP3    H113674   0.611   5.637   0.284
 4556TIP3    H213675   0.594   5.765   0.205
 4557TIP3   OH213676   5.027   3.770   3.880
 4557TIP3    H113677   5.118   3.800   3.881
 4557TIP3    H213678   5.031   3.679   3.910
 4558TIP3   OH213679   0.768   1.482   4.887
 4558TIP3    H113680   0.715   1.412   4.849
 4558TIP3    H213681   0.830   1.505   4.818
 4559TIP3   OH213682   3.294   3.400   2.538
 4559TIP3    H113683   3.299   3.311   2.573
 4559TIP3    H213684   3.221   3.441   2.585
 4560TIP3   OH213685   6.044   2.281   4.138
 4560TIP3    H113686   6.137   2.275   4.163
 4560TIP3    H213687   6.006   2.199   4.169
 4561TIP3   OH213688   5.619   4.166   1.698
 4561TIP3    H113689   5.542   4.180   1.753
 4561TIP3    H213690   5.688   4.217   1.740
 4562TIP3   OH213691   4.565   2.470   1.086
 4562TIP3    H113692   4.658   2.452   1.075
 4562TIP3    H213693   4.521   2.387   1.063
 4563TIP3   OH213694   0.544   1.568   1.998
 4563TIP3    H113695   0.610   1.628   1.963
 4563TIP3    H213696   0.492   1.623   2.058
 4564TIP3   OH213697   3.640   4.253   3.890
 4564TIP3    H113698   3.711   4.202   3.851
 4564TIP3    H213699   3.577   4.187   3.919
 4565TIP3   OH213700   1.414   5.139   0.892
 4565TIP3    H113701   1.452   5.052   0.876
 4565TIP3    H213702   1.320   5.126   0.884
 4566TIP3   OH213703   2.279   0.235   2.673
 4566TIP3    H113704   2.259   0.166   2.737
 4566TIP3    H213705   2.348   0.198   2.619
 4567TIP3   OH213706   4.651   4.293   2.455
 4567TIP3    H113707   4.680   4.212   2.413
 4567TIP3    H213708   4.680   4.286   2.546
 4568TIP3   OH213709   3.222   4.286   2.263
 4568TIP3    H113710   3.210   4.349   2.335
 4568TIP3    H213711   3.310   4.303   2.230
 4569TIP3   OH213712   3.643   3.403   0.489
 4569TIP3    H113713   3.659   3.308   0.488
 4569TIP3    H213714   3.559   3.412   0.534
 4570TIP3   OH213715   3.037   4.916   3.859
 4570TIP3    H113716   3.065   4.987   3.916
 4570TIP3    H213717   3.079   4.934   3.775
 4571TIP3   OH213718   3.317   2.488   3.452
 4571TIP3    H113719   3.303   2.540   3.531
 4571TIP3    H213720   3.232   2.448   3.435
 4572TIP3   OH213721   3.830   5.721   2.442
 4572TIP3    H113722   3.782   5.641   2.464
 4572TIP3    H213723   3.783   5.790   2.487
 4573TIP3   OH213724   2.729   2.601   2.172
 4573TIP3    H113725   2.813   2.557   2.158
 4573TIP3    H213726   2.664   2.543   2.134
 4574TIP3   OH213727   3.418   1.800   1.234
 4574TIP3    H113728   3.375   1.886   1.237
 4574TIP3    H213729   3.347   1.737   1.249
 4575TIP3   OH213730   2.640   5.843   3.799
 4575TIP3    H113731   2.733   5.852   3.777
 4575TIP3    H213732   2.595   5.879   3.723
 4576TIP3   OH213733   4.587   3.528   1.640
 4576TIP3    H113734   4.518   3.576   1.686
 4576TIP3    H213735   4.649   3.596   1.613
 4577TIP3   OH213736   0.702   1.419   0.647
 4577TIP3    H113737   0.671   1.446   0.560
 4577TIP3    H213738   0.758   1.344   0.630
 4578TIP3   OH213739   4.894   0.275   4.054
 4578TIP3    H113740   4.925   0.289   3.964
 4578TIP3    H213741   4.846   0.355   4.075
 4579TIP3   OH213742   2.701   3.190   0.243
 4579TIP3    H113743   2.661   3.120   0.192
 4579TIP3    H213744   2.634   3.213   0.308
 4580TIP3   OH213745   4.072   3.467   3.081
 4580TIP3    H113746   4.092   3.402   3.148
 4580TIP3    H213747   4.119   3.545   3.108
 4581TIP3   OH213748   4.284   3.235   0.251
 4581TIP3    H113749   4.327   3.152   0.271
 4581TIP3    H213750   4.343   3.279   0.190
 4582TIP3   OH213751   2.314   3.446   3.949
 4582TIP3    H113752   2.254   3.463   3.876
 4582TIP3    H213753   2.385   3.508   3.937
 4583TIP3   OH213754   5.968   4.833   1.548
 4583TIP3    H113755   5.932   4.787   1.624
 4583TIP3    H213756   6.011   4.765   1.497
 4584TIP3   OH213757   3.331   3.337   0.672
 4584TIP3    H113758   3.241   3.329   0.705
 4584TIP3    H213759   3.355   3.248   0.646
 4585TIP3   OH213760   5.634   0.068   0.794
 4585TIP3    H113761   5.550   0.090   0.834
 4585TIP3    H213762   5.641   0.127   0.719
 4586TIP3   OH213763   3.800   4.895   3.916
 4586TIP3    H113764   3.723   4.850   3.882
 4586TIP3    H213765   3.792   4.984   3.883
 4587TIP3   OH213766   1.446   5.071   1.890
 4587TIP3    H113767   1.429   5.119   1.971
 4587TIP3    H213768   1.360   5.067   1.847
 4588TIP3   OH213769   0.903   3.803   1.808
 4588TIP3    H113770   0.939   3.742   1.743
 4588TIP3    H213771   0.962   3.878   1.805
 4589TIP3   OH213772   3.844   0.344   2.238
 4589TIP3    H113773   3.928   0.350   2.283
 4589TIP3    H213774   3.780   0.327   2.307
 4590TIP3   OH213775   3.253   4.526   1.997
 4590TIP3    H113776   3.264   4.597   1.935
 4590TIP3    H213777   3.285   4.562   2.080
 4591TIP3   OH213778   5.908   0.027   0.648
 4591TIP3    H113779   5.833   0.031   0.708
 4591TIP3    H213780   5.949   0.113   0.656
 4592TIP3   OH213781   2.393   5.104   1.483
 4592TIP3    H113782   2.467   5.147   1.441
 4592TIP3    H213783   2.343   5.175   1.522
 4593TIP3   OH213784   2.311   0.532   0.845
 4593TIP3    H113785   2.323   0.627   0.853
 4593TIP3    H213786   2.305   0.517   0.750
 4594TIP3   OH213787   3.586   5.818   4.635
 4594TIP3    H113788   3.650   5.858   4.695
 4594TIP3    H213789   3.511   5.877   4.638
 4595TIP3   OH213790   6.285   4.400   1.523
 4595TIP3    H113791   6.312   4.457   1.451
 4595TIP3    H213792   6.255   4.320   1.479
 4596TIP3   OH213793   4.963   2.969   1.367
 4596TIP3    H113794   4.889   2.983   1.308
 4596TIP3    H213795   4.975   3.052   1.412
 4597TIP3   OH213796   1.477   4.116   1.010
 4597TIP3    H113797   1.468   4.178   0.937
 4597TIP3    H213798   1.458   4.168   1.088
 4598TIP3   OH213799   2.341   4.300   1.350
 4598TIP3    H113800   2.376   4.280   1.437
 4598TIP3    H213801   2.394   4.248   1.290
 4599TIP3   OH213802   2.577   5.871   4.080
 4599TIP3    H113803   2.595   5.878   3.986
 4599TIP3    H213804   2.529   5.951   4.101
 4600TIP3   OH213805   4.202   2.083   2.977
 4600TIP3    H113806   4.141   2.026   2.930
 4600TIP3    H213807   4.198   2.166   2.930
 4601TIP3   OH213808   0.943   4.703   2.836
 4601TIP3    H113809   0.868   4.764   2.839
 4601TIP3    H213810   0.911   4.629   2.786
 4602TIP3   OH213811   5.642   2.220   3.602
 4602TIP3    H113812   5.590   2.286   3.556
 4602TIP3    H213813   5.610   2.136   3.568
 4603TIP3   OH213814   4.659   1.381   1.702
 4603TIP3    H113815   4.618   1.298   1.727
 4603TIP3    H213816   4.702   1.363   1.618
 4604TIP3   OH213817   3.890   1.225   2.382
 4604TIP3    H113818   3.824   1.269   2.436
 4604TIP3    H213819   3.951   1.293   2.358
 4605TIP3   OH213820   4.964   0.813   2.696
 4605TIP3    H113821   5.032   0.747   2.708
 4605TIP3    H213822   4.972   0.840   2.604
 4606TIP3   OH213823   2.077   2.187   3.856
 4606TIP3    H113824   2.096   2.175   3.763
 4606TIP3    H213825   2.131   2.121   3.900
 4607TIP3   OH213826   1.781   3.480   3.711
 4607TIP3    H113827   1.715   3.549   3.712
 4607TIP3    H213828   1.852   3.515   3.657
 4608TIP3   OH213829   1.626   0.370   4.820
 4608TIP3    H113830   1.555   0.326   4.774
 4608TIP3    H213831   1.684   0.401   4.750
 4609TIP3   OH213832   1.161   3.525   4.187
 4609TIP3    H113833   1.242   3.474   4.192
 4609TIP3    H213834   1.132   3.534   4.277
 4610TIP3   OH213835   5.784   5.531   4.458
 4610TIP3    H113836   5.778   5.474   4.382
 4610TIP3    H213837   5.822   5.612   4.425
 4611TIP3   OH213838   1.559   0.723   5.102
 4611TIP3    H113839   1.477   0.710   5.150
 4611TIP3    H213840   1.546   0.678   5.019
 4612TIP3   OH213841   0.078   1.096   2.817
 4612TIP3    H113842  -0.009   1.116   2.781
 4612TIP3    H213843   0.070   1.117   2.910
 4613TIP3   OH213844   5.314   4.200   4.529
 4613TIP3    H113845   5.341   4.292   4.536
 4613TIP3    H213846   5.394   4.153   4.506
 4614TIP3   OH213847   4.734   5.733   0.626
 4614TIP3    H113848   4.668   5.668   0.647
 4614TIP3    H213849   4.754   5.718   0.533
 4615TIP3   OH213850   2.742   4.562   3.062
 4615TIP3    H113851   2.704   4.592   2.980
 4615TIP3    H213852   2.734   4.467   3.059
 4616TIP3   OH213853   0.779   2.101   1.893
 4616TIP3    H113854   0.692   2.132   1.868
 4616TIP3    H213855   0.831   2.111   1.813
 4617TIP3   OH213856   4.743   5.563   1.331
 4617TIP3    H113857   4.754   5.468   1.339
 4617TIP3    H213858   4.669   5.573   1.271
 4618TIP3   OH213859   0.879   3.149   3.479
 4618TIP3    H113860   0.804   3.140   3.420
 4618TIP3    H213861   0.953   3.166   3.420
 4619TIP3   OH213862   3.268   4.049   3.100
 4619TIP3    H113863   3.257   4.144   3.094
 4619TIP3    H213864   3.305   4.024   3.015
 4620TIP3   OH213865   1.775   4.677   1.517
 4620TIP3    H113866   1.796   4.584   1.519
 4620TIP3    H213867   1.714   4.686   1.444
 4621TIP3   OH213868   4.131   2.604   5.139
 4621TIP3    H113869   4.059   2.665   5.122
 4621TIP3    H213870   4.088   2.522   5.164
 4622TIP3   OH213871   4.854   3.373   4.790
 4622TIP3    H113872   4.765   3.388   4.757
 4622TIP3    H213873   4.847   3.292   4.841
 4623TIP3   OH213874   2.925   3.038   3.151
 4623TIP3    H113875   2.965   2.958   3.116
 4623TIP3    H213876   2.837   3.039   3.114
 4624TIP3   OH213877   5.243   5.161   1.414
 4624TIP3    H113878   5.246   5.257   1.413
 4624TIP3    H213879   5.178   5.139   1.481
 4625TIP3   OH213880   0.633   4.660   1.710
 4625TIP3    H113881   0.680   4.608   1.775
 4625TIP3    H213882   0.596   4.595   1.650
 4626TIP3   OH213883   2.856   5.814   2.001
 4626TIP3    H113884   2.866   5.876   1.930
 4626TIP3    H213885   2.918   5.843   2.068
 4627TIP3   OH213886   4.903   5.955   2.885
 4627TIP3    H113887   4.898   6.003   2.967
 4627TIP3    H213888   4.991   5.974   2.852
 4628TIP3   OH213889   3.313   0.326   1.400
 4628TIP3    H113890   3.270   0.412   1.402
 4628TIP3    H213891   3.245   0.265   1.429
 4629TIP3   OH213892   1.941   4.678   0.615
 4629TIP3    H113893   2.034   4.668   0.596
 4629TIP3    H213894   1.918   4.763   0.576
 4630TIP3   OH213895   4.146   5.646   0.851
 4630TIP3    H113896   4.110   5.601   0.775
 4630TIP3    H213897   4.075   5.644   0.915
 4631TIP3   OH213898   0.381   5.232  -0.004
 4631TIP3    H113899   0.325   5.272   0.063
 4631TIP3    H213900   0.388   5.141   0.022
 4632TIP3   OH213901   1.721   0.773   4.558
 4632TIP3    H113902   1.673   0.699   4.597
 4632TIP3    H213903   1.791   0.792   4.620
 4633TIP3   OH213904   0.461   5.792   1.920
 4633TIP3    H113905   0.421   5.822   1.838
 4633TIP3    H213906   0.477   5.698   1.906
 4634TIP3   OH213907   1.190   4.167   0.256
 4634TIP3    H113908   1.146   4.218   0.324
 4634TIP3    H213909   1.119   4.121   0.211
 4635TIP3   OH213910   3.105   2.359   4.516
 4635TIP3    H113911   3.072   2.315   4.438
 4635TIP3    H213912   3.188   2.316   4.535
 4636TIP3   OH213913   6.179   4.384   0.487
 4636TIP3    H113914   6.273   4.397   0.491
 4636TIP3    H213915   6.144   4.468   0.457
 4637TIP3   OH213916   0.041   0.547   4.141
 4637TIP3    H113917   0.014   0.493   4.067
 4637TIP3    H213918   0.135   0.530   4.151
 4638TIP3   OH213919   3.619   0.671   3.340
 4638TIP3    H113920   3.612   0.595   3.398
 4638TIP3    H213921   3.704   0.660   3.297
 4639TIP3   OH213922   2.349   4.455   0.662
 4639TIP3    H113923   2.436   4.439   0.625
 4639TIP3    H213924   2.311   4.368   0.673
 4640TIP3   OH213925   1.989   4.601   1.847
 4640TIP3    H113926   2.010   4.558   1.764
 4640TIP3    H213927   1.967   4.530   1.907
 4641TIP3   OH213928   1.307   0.541   3.380
 4641TIP3    H113929   1.227   0.569   3.336
 4641TIP3    H213930   1.368   0.613   3.369
 4642TIP3   OH213931   0.389   5.945   2.899
 4642TIP3    H113932   0.433   6.024   2.868
 4642TIP3    H213933   0.459   5.888   2.931
 4643TIP3   OH213934   0.574   1.726   3.348
 4643TIP3    H113935   0.522   1.806   3.336
 4643TIP3    H213936   0.653   1.755   3.393
 4644TIP3   OH213937   3.155   3.993   3.970
 4644TIP3    H113938   3.060   3.988   3.976
 4644TIP3    H213939   3.172   4.061   3.905
 4645TIP3   OH213940   4.969   5.384   3.315
 4645TIP3    H113941   4.950   5.429   3.398
 4645TIP3    H213942   4.895   5.407   3.258
 4646TIP3   OH213943   4.314   4.384   4.963
 4646TIP3    H113944   4.387   4.399   4.902
 4646TIP3    H213945   4.331   4.444   5.036
 4647TIP3   OH213946   0.171   5.065   0.578
 4647TIP3    H113947   0.216   4.980   0.578
 4647TIP3    H213948   0.109   5.059   0.651
 4648TIP3   OH213949   1.373   5.463   4.560
 4648TIP3    H113950   1.442   5.408   4.524
 4648TIP3    H213951   1.300   5.403   4.577
 4649TIP3   OH213952   0.904   0.580   1.074
 4649TIP3    H113953   0.981   0.538   1.110
 4649TIP3    H213954   0.925   0.674   1.075
 4650TIP3   OH213955   5.266   2.675   2.990
 4650TIP3    H113956   5.208   2.692   2.916
 4650TIP3    H213957   5.300   2.761   3.014
 4651TIP3   OH213958   5.129   0.784   4.138
 4651TIP3    H113959   5.120   0.696   4.102
 4651TIP3    H213960   5.133   0.772   4.233
 4652TIP3   OH213961   5.898   1.206   2.619
 4652TIP3    H113962   5.899   1.205   2.523
 4652TIP3    H213963   5.868   1.118   2.643
 4653TIP3   OH213964   1.940  -0.052   5.133
 4653TIP3    H113965   1.921  -0.031   5.041
 4653TIP3    H213966   1.895   0.017   5.183
 4654TIP3   OH213967   5.328   3.522   2.167
 4654TIP3    H113968   5.399   3.571   2.210
 4654TIP3    H213969   5.354   3.519   2.075
 4655TIP3   OH213970   4.600   5.427   2.705
 4655TIP3    H113971   4.528   5.398   2.761
 4655TIP3    H213972   4.677   5.426   2.763
 4656TIP3   OH213973   2.571   0.789   0.555
 4656TIP3    H113974   2.482   0.805   0.525
 4656TIP3    H213975   2.623   0.860   0.517
 4657TIP3   OH213976   4.132   3.713   1.190
 4657TIP3    H113977   4.077   3.773   1.139
 4657TIP3    H213978   4.148   3.760   1.272
 4658TIP3   OH213979   0.711   4.837   0.109
 4658TIP3    H113980   0.792   4.831   0.159
 4658TIP3    H213981   0.700   4.750   0.070
 4659TIP3   OH213982   3.208   3.069   2.018
 4659TIP3    H113983   3.214   3.091   2.112
 4659TIP3    H213984   3.142   3.129   1.984
 4660TIP3   OH213985   4.241   0.837   1.329
 4660TIP3    H113986   4.182   0.880   1.390
 4660TIP3    H213987   4.213   0.745   1.328
 4661TIP3   OH213988   2.549   5.894   5.214
 4661TIP3    H113989   2.547   5.809   5.258
 4661TIP3    H213990   2.575   5.874   5.124
 4662TIP3   OH213991   1.187   2.514   0.076
 4662TIP3    H113992   1.276   2.488   0.053
 4662TIP3    H213993   1.198   2.572   0.151
 4663TIP3   OH213994   5.386   2.805   5.105
 4663TIP3    H113995   5.359   2.764   5.023
 4663TIP3    H213996   5.461   2.753   5.134
 4664TIP3   OH213997   1.115   0.480   3.742
 4664TIP3    H113998   1.132   0.552   3.802
 4664TIP3    H213999   1.159   0.405   3.782
 4665TIP3   OH214000   4.800   0.918   1.693
 4665TIP3    H114001   4.824   1.008   1.714
 4665TIP3    H214002   4.709   0.910   1.718
 4666TIP3   OH214003   0.460   0.020   4.577
 4666TIP3    H114004   0.402  -0.044   4.534
 4666TIP3    H214005   0.412   0.103   4.572
 4667TIP3   OH214006   5.079   5.751   2.538
 4667TIP3    H114007   5.155   5.715   2.584
 4667TIP3    H214008   5.090   5.846   2.545
 4668TIP3   OH214009   2.881   1.390   4.359
 4668TIP3    H114010   2.911   1.416   4.446
 4668TIP3    H214011   2.804   1.446   4.343
 4669TIP3   OH214012   4.030   1.875   4.068
 4669TIP3    H114013   4.056   1.965   4.086
 4669TIP3    H214014   4.102   1.822   4.101
 4670TIP3   OH214015   0.496   0.998   3.922
 4670TIP3    H114016   0.487   1.093   3.916
 4670TIP3    H214017   0.412   0.964   3.891
 4671TIP3   OH214018   5.166   5.796   0.049
 4671TIP3    H114019   5.241   5.851   0.028
 4671TIP3    H214020   5.170   5.723  -0.014
 4672TIP3   OH214021   0.991   2.743   1.920
 4672TIP3    H114022   0.924   2.674   1.924
 4672TIP3    H214023   0.942   2.825   1.930
 4673TIP3   OH214024   1.987   0.936   4.652
 4673TIP3    H114025   2.021   0.859   4.607
 4673TIP3    H214026   1.967   0.998   4.582
 4674TIP3   OH214027   3.434   0.420   1.705
 4674TIP3    H114028   3.459   0.487   1.640
 4674TIP3    H214029   3.347   0.446   1.734
 4675TIP3   OH214030   3.727   2.469   3.910
 4675TIP3    H114031   3.685   2.554   3.921
 4675TIP3    H214032   3.690   2.434   3.829
 4676TIP3   OH214033   2.832   3.440   2.828
 4676TIP3    H114034   2.804   3.520   2.871
 4676TIP3    H214035   2.765   3.375   2.849
 4677TIP3   OH214036   1.989   5.946   4.355
 4677TIP3    H114037   2.011   5.864   4.311
 4677TIP3    H214038   1.927   5.989   4.296
 4678TIP3   OH214039   2.417   2.347   3.691
 4678TIP3    H114040   2.398   2.385   3.777
 4678TIP3    H214041   2.447   2.420   3.638
 4679TIP3   OH214042   1.761   4.193   4.345
 4679TIP3    H114043   1.678   4.189   4.298
 4679TIP3    H214044   1.771   4.106   4.383
 4680TIP3   OH214045   1.685   1.479   0.652
 4680TIP3    H114046   1.738   1.540   0.600
 4680TIP3    H214047   1.746   1.410   0.676
 4681TIP3   OH214048   4.817   5.255   5.130
 4681TIP3    H114049   4.815   5.325   5.064
 4681TIP3    H214050   4.822   5.302   5.214
 4682TIP3   OH214051   1.859   2.373   1.758
 4682TIP3    H114052   1.925   2.348   1.694
 4682TIP3    H214053   1.868   2.468   1.766
 4683TIP3   OH214054   5.268   5.212   4.943
 4683TIP3    H114055   5.268   5.263   4.861
 4683TIP3    H214056   5.361   5.202   4.964
 4684TIP3   OH214057   3.160   5.393   3.731
 4684TIP3    H114058   3.227   5.334   3.765
 4684TIP3    H214059   3.079   5.342   3.734
 4685TIP3   OH214060   3.482   3.118   2.482
 4685TIP3    H114061   3.557   3.140   2.427
 4685TIP3    H214062   3.492   3.172   2.560
 4686TIP3   OH214063   5.735   2.326   5.035
 4686TIP3    H114064   5.682   2.392   5.080
 4686TIP3    H214065   5.681   2.248   5.036
 4687TIP3   OH214066   0.406   3.776   3.917
 4687TIP3    H114067   0.366   3.697   3.956
 4687TIP3    H214068   0.397   3.763   3.823
 4688TIP3   OH214069   1.065   4.185   1.244
 4688TIP3    H114070   0.993   4.143   1.197
 4688TIP3    H214071   1.086   4.123   1.314
 4689TIP3   OH214072   0.898   0.631   1.560
 4689TIP3    H114073   0.897   0.551   1.508
 4689TIP3    H214074   0.982   0.629   1.607
 4690TIP3   OH214075   3.452   0.177   0.650
 4690TIP3    H114076   3.358   0.177   0.668
 4690TIP3    H214077   3.464   0.105   0.589
 4691TIP3   OH214078   6.031   0.485   5.121
 4691TIP3    H114079   5.973   0.553   5.087
 4691TIP3    H214080   6.095   0.471   5.052
 4692TIP3   OH214081   0.329   1.677   1.068
 4692TIP3    H114082   0.277   1.708   1.142
 4692TIP3    H214083   0.383   1.752   1.044
 4693TIP3   OH214084   1.912   0.663   2.009
 4693TIP3    H114085   1.983   0.600   2.007
 4693TIP3    H214086   1.836   0.615   1.976
 4694TIP3   OH214087   4.659   3.645   2.612
 4694TIP3    H114088   4.726   3.691   2.662
 4694TIP3    H214089   4.617   3.587   2.675
 4695TIP3   OH214090   0.103   2.539   3.154
 4695TIP3    H114091   0.077   2.615   3.103
 4695TIP3    H214092   0.130   2.575   3.238
 4696TIP3   OH214093   4.895   0.682   1.936
 4696TIP3    H114094   4.945   0.611   1.894
 4696TIP3    H214095   4.902   0.755   1.875
 4697TIP3   OH214096   3.009   3.318   1.454
 4697TIP3    H114097   3.037   3.405   1.424
 4697TIP3    H214098   2.930   3.336   1.504
 4698TIP3   OH214099   1.221   4.747   0.498
 4698TIP3    H114100   1.275   4.711   0.427
 4698TIP3    H214101   1.192   4.671   0.548
 4699TIP3   OH214102   2.420   4.687   3.310
 4699TIP3    H114103   2.420   4.774   3.269
 4699TIP3    H214104   2.494   4.688   3.370
 4700TIP3   OH214105   2.815   1.751   0.100
 4700TIP3    H114106   2.889   1.803   0.070
 4700TIP3    H214107   2.752   1.814   0.133
 4701TIP3   OH214108   5.967   1.070   1.466
 4701TIP3    H114109   5.918   1.035   1.392
 4701TIP3    H214110   6.059   1.062   1.440
 4702TIP3   OH214111   1.498   1.454   2.048
 4702TIP3    H114112   1.421   1.458   1.991
 4702TIP3    H214113   1.484   1.525   2.112
 4703TIP3   OH214114   5.601   1.003   1.019
 4703TIP3    H114115   5.536   0.990   0.950
 4703TIP3    H214116   5.685   0.981   0.978
 4704TIP3   OH214117   5.710   1.034   4.428
 4704TIP3    H114118   5.741   1.018   4.339
 4704TIP3    H214119   5.788   1.063   4.476
 4705TIP3   OH214120   3.798   5.709   2.100
 4705TIP3    H114121   3.718   5.763   2.105
 4705TIP3    H214122   3.856   5.758   2.042
 4706TIP3   OH214123   0.822   4.694   2.582
 4706TIP3    H114124   0.861   4.754   2.519
 4706TIP3    H214125   0.808   4.613   2.533
 4707TIP3   OH214126   4.497   4.294   0.528
 4707TIP3    H114127   4.431   4.362   0.539
 4707TIP3    H214128   4.454   4.229   0.471
 4708TIP3   OH214129   3.695   2.185   2.294
 4708TIP3    H114130   3.641   2.250   2.248
 4708TIP3    H214131   3.744   2.237   2.358
 4709TIP3   OH214132   1.531   0.499   2.331
 4709TIP3    H114133   1.518   0.558   2.257
 4709TIP3    H214134   1.443   0.472   2.356
 4710TIP3   OH214135   2.718   2.495   5.136
 4710TIP3    H114136   2.726   2.423   5.074
 4710TIP3    H214137   2.730   2.454   5.222
 4711TIP3   OH214138   5.315   1.353   0.491
 4711TIP3    H114139   5.405   1.340   0.521
 4711TIP3    H214140   5.265   1.368   0.572
 4712TIP3   OH214141   4.409   5.123   4.272
 4712TIP3    H114142   4.437   5.070   4.346
 4712TIP3    H214143   4.484   5.125   4.214
 4713TIP3   OH214144   1.885   3.546   1.814
 4713TIP3    H114145   1.976   3.566   1.792
 4713TIP3    H214146   1.859   3.482   1.749
 4714TIP3   OH214147   6.122   1.428   3.778
 4714TIP3    H114148   6.094   1.388   3.695
 4714TIP3    H214149   6.156   1.514   3.753
 4715TIP3   OH214150   1.700   0.088   4.616
 4715TIP3    H114151   1.619   0.129   4.647
 4715TIP3    H214152   1.752   0.160   4.581
 4716TIP3   OH214153   5.780   4.114   2.360
 4716TIP3    H114154   5.874   4.104   2.349
 4716TIP3    H214155   5.762   4.206   2.340
 4717TIP3   OH214156   0.778   1.768   3.989
 4717TIP3    H114157   0.691   1.789   3.955
 4717TIP3    H214158   0.774   1.674   4.007
 4718TIP3   OH214159   0.649   1.290   3.751
 4718TIP3    H114160   0.554   1.304   3.744
 4718TIP3    H214161   0.675   1.347   3.823
 4719TIP3   OH214162   1.194   4.781   3.642
 4719TIP3    H114163   1.130   4.782   3.713
 4719TIP3    H214164   1.170   4.706   3.588
 4720TIP3   OH214165   4.761   5.195   4.778
 4720TIP3    H114166   4.794   5.111   4.745
 4720TIP3    H214167   4.712   5.171   4.857
 4721TIP3   OH214168   4.480   5.712   1.972
 4721TIP3    H114169   4.403   5.740   2.020
 4721TIP3    H214170   4.510   5.633   2.017
 4722TIP3   OH214171   5.894   0.120   5.102
 4722TIP3    H114172   5.977   0.151   5.066
 4722TIP3    H214173   5.908   0.116   5.196
 4723TIP3   OH214174   0.610   3.977   0.849
 4723TIP3    H114175   0.522   3.992   0.885
 4723TIP3    H214176   0.651   3.918   0.913
 4724TIP3   OH214177   1.094   0.311   4.689
 4724TIP3    H114178   1.025   0.365   4.650
 4724TIP3    H214179   1.047   0.242   4.736
 4725TIP3   OH214180   1.508   1.736   0.556
 4725TIP3    H114181   1.424   1.755   0.598
 4725TIP3    H214182   1.573   1.782   0.611
 4726TIP3   OH214183   2.803   2.761   0.058
 4726TIP3    H114184   2.731   2.822   0.067
 4726TIP3    H214185   2.820   2.757  -0.036
 4727TIP3   OH214186   1.155   4.749   0.835
 4727TIP3    H114187   1.177   4.842   0.833
 4727TIP3    H214188   1.169   4.719   0.745
 4728TIP3   OH214189   3.245   1.709   3.181
 4728TIP3    H114190   3.243   1.793   3.135
 4728TIP3    H214191   3.169   1.712   3.240
 4729TIP3   OH214192   3.300   0.511   3.125
 4729TIP3    H114193   3.324   0.459   3.049
 4729TIP3    H214194   3.310   0.452   3.200
 4730TIP3   OH214195   4.702   0.938   2.748
 4730TIP3    H114196   4.659   0.907   2.668
 4730TIP3    H214197   4.781   0.885   2.755
 4731TIP3   OH214198   3.358   2.730   1.309
 4731TIP3    H114199   3.268   2.748   1.337
 4731TIP3    H214200   3.402   2.698   1.388
 4732TIP3   OH214201   2.766   0.195   2.374
 4732TIP3    H114202   2.857   0.168   2.362
 4732TIP3    H214203   2.752   0.263   2.309
 4733TIP3   OH214204   4.499   2.270   3.781
 4733TIP3    H114205   4.463   2.183   3.762
 4733TIP3    H214206   4.594   2.258   3.774
 4734TIP3   OH214207   4.539   0.449   0.469
 4734TIP3    H114208   4.471   0.385   0.487
 4734TIP3    H214209   4.556   0.491   0.554
 4735TIP3   OH214210   0.539   4.977   4.126
 4735TIP3    H114211   0.631   4.952   4.135
 4735TIP3    H214212   0.533   5.063   4.169
 4736TIP3   OH214213   5.342   3.536   1.551
 4736TIP3    H114214   5.374   3.447   1.535
 4736TIP3    H214215   5.413   3.593   1.522
 4737TIP3   OH214216   2.515   0.970   4.100
 4737TIP3    H114217   2.434   0.976   4.151
 4737TIP3    H214218   2.487   0.935   4.015
 4738TIP3   OH214219   5.518   2.763   2.776
 4738TIP3    H114220   5.612   2.777   2.785
 4738TIP3    H214221   5.481   2.790   2.860
 4739TIP3   OH214222   2.853   2.209   1.390
 4739TIP3    H114223   2.779   2.214   1.329
 4739TIP3    H214224   2.814   2.222   1.476
 4740TIP3   OH214225   2.509   4.068   2.102
 4740TIP3    H114226   2.578   4.032   2.158
 4740TIP3    H214227   2.467   4.135   2.155
 4741TIP3   OH214228   0.206   5.513   3.184
 4741TIP3    H114229   0.116   5.519   3.153
 4741TIP3    H214230   0.225   5.419   3.181
 4742TIP3   OH214231   1.331   4.742   4.548
 4742TIP3    H114232   1.237   4.760   4.554
 4742TIP3    H214233   1.360   4.795   4.474
 4743TIP3   OH214234   1.630   5.355   0.960
 4743TIP3    H114235   1.603   5.332   1.049
 4743TIP3    H214236   1.660   5.445   0.967
 4744TIP3   OH214237   0.538   1.795   0.102
 4744TIP3    H114238   0.542   1.708   0.061
 4744TIP3    H214239   0.616   1.800   0.157
 4745TIP3   OH214240   0.794   0.236   3.341
 4745TIP3    H114241   0.879   0.270   3.368
 4745TIP3    H214242   0.746   0.222   3.422
 4746TIP3   OH214243   5.638   1.822   4.122
 4746TIP3    H114244   5.674   1.891   4.067
 4746TIP3    H214245   5.587   1.868   4.188
 4747TIP3   OH214246   0.095   2.086   2.677
 4747TIP3    H114247   0.084   2.015   2.615
 4747TIP3    H214248   0.186   2.080   2.705
 4748TIP3   OH214249   5.839   4.054   2.634
 4748TIP3    H114250   5.779   4.107   2.687
 4748TIP3    H214251   5.796   4.047   2.549
 4749TIP3   OH214252   3.731   1.749   1.648
 4749TIP3    H114253   3.785   1.822   1.618
 4749TIP3    H214254   3.642   1.784   1.650
 4750TIP3   OH214255   3.966   1.144   4.080
 4750TIP3    H114256   3.904   1.081   4.044
 4750TIP3    H214257   3.966   1.217   4.018
 4751TIP3   OH214258   3.007   0.728   2.359
 4751TIP3    H114259   3.039   0.815   2.379
 4751TIP3    H214260   3.084   0.680   2.328
 4752TIP3   OH214261   2.908   2.047   0.417
 4752TIP3    H114262   2.880   2.114   0.480
 4752TIP3    H214263   3.003   2.058   0.411
 4753TIP3   OH214264   3.413   0.933   1.858
 4753TIP3    H114265   3.339   0.944   1.917
 4753TIP3    H214266   3.483   0.896   1.913
 4754TIP3   OH214267   6.097   4.211   1.909
 4754TIP3    H114268   6.089   4.260   1.990
 4754TIP3    H214269   6.144   4.270   1.850
 4755TIP3   OH214270   5.508   2.655   0.728
 4755TIP3    H114271   5.515   2.637   0.634
 4755TIP3    H214272   5.552   2.739   0.740
 4756TIP3   OH214273   4.575   2.956   1.225
 4756TIP3    H114274   4.580   2.979   1.318
 4756TIP3    H214275   4.644   2.892   1.212
 4757TIP3   OH214276   4.643   2.229   1.627
 4757TIP3    H114277   4.591   2.253   1.550
 4757TIP3    H214278   4.727   2.202   1.590
 4758TIP3   OH214279   6.280   5.016   0.757
 4758TIP3    H114280   6.296   5.045   0.847
 4758TIP3    H214281   6.188   5.038   0.741
 4759TIP3   OH214282   4.157   3.763   0.123
 4759TIP3    H114283   4.205   3.727   0.198
 4759TIP3    H214284   4.074   3.793   0.160
 4760TIP3   OH214285   0.495   1.620   4.190
 4760TIP3    H114286   0.430   1.648   4.254
 4760TIP3    H214287   0.567   1.682   4.200
 4761TIP3   OH214288   4.899   1.587   3.106
 4761TIP3    H114289   4.971   1.524   3.114
 4761TIP3    H214290   4.942   1.672   3.104
 4762TIP3   OH214291   2.230   0.537   0.583
 4762TIP3    H114292   2.281   0.562   0.506
 4762TIP3    H214293   2.187   0.618   0.610
 4763TIP3   OH214294   2.543   1.094   3.647
 4763TIP3    H114295   2.552   1.182   3.683
 4763TIP3    H214296   2.549   1.106   3.552
 4764TIP3   OH214297   2.287   4.830   1.516
 4764TIP3    H114298   2.354   4.891   1.549
 4764TIP3    H214299   2.335   4.769   1.460
 4765TIP3   OH214300   2.985   3.679   4.001
 4765TIP3    H114301   2.896   3.709   4.022
 4765TIP3    H214302   2.997   3.702   3.909
 4766TIP3   OH214303   1.463   0.289   4.384
 4766TIP3    H114304   1.522   0.244   4.325
 4766TIP3    H214305   1.375   0.260   4.358
 4767TIP3   OH214306   4.697   3.737   1.482
 4767TIP3    H114307   4.684   3.718   1.389
 4767TIP3    H214308   4.623   3.793   1.506
 4768TIP3   OH214309   2.016   2.234   1.586
 4768TIP3    H114310   2.020   2.311   1.529
 4768TIP3    H214311   2.034   2.160   1.528
 4769TIP3   OH214312   4.704   4.548   1.317
 4769TIP3    H114313   4.655   4.490   1.259
 4769TIP3    H214314   4.637   4.593   1.368
 4770TIP3   OH214315   4.717   4.371   3.470
 4770TIP3    H114316   4.723   4.414   3.555
 4770TIP3    H214317   4.640   4.410   3.429
 4771TIP3   OH214318   2.501   3.744   2.261
 4771TIP3    H114319   2.445   3.758   2.184
 4771TIP3    H214320   2.486   3.652   2.284
 4772TIP3   OH214321   3.534   0.352   0.877
 4772TIP3    H114322   3.546   0.358   0.782
 4772TIP3    H214323   3.452   0.303   0.887
 4773TIP3   OH214324   2.262   0.511   2.643
 4773TIP3    H114325   2.357   0.515   2.627
 4773TIP3    H214326   2.246   0.419   2.664
 4774TIP3   OH214327   4.944   5.840   4.551
 4774TIP3    H114328   4.909   5.893   4.480
 4774TIP3    H214329   4.948   5.751   4.515
 4775TIP3   OH214330   3.649   3.783   3.562
 4775TIP3    H114331   3.592   3.826   3.625
 4775TIP3    H214332   3.716   3.740   3.615
 4776TIP3   OH214333   0.978   3.143   3.998
 4776TIP3    H114334   0.983   3.091   3.918
 4776TIP3    H214335   0.958   3.232   3.968
 4777TIP3   OH214336   5.979   0.296   1.064
 4777TIP3    H114337   6.059   0.323   1.018
 4777TIP3    H214338   6.002   0.213   1.105
 4778TIP3   OH214339   6.249   3.469   4.074
 4778TIP3    H114340   6.239   3.553   4.120
 4778TIP3    H214341   6.160   3.445   4.050
 4779TIP3   OH214342   0.615   3.335   5.103
 4779TIP3    H114343   0.610   3.357   5.197
 4779TIP3    H214344   0.525   3.343   5.072
 4780TIP3   OH214345   2.790   3.403   2.397
 4780TIP3    H114346   2.808   3.316   2.360
 4780TIP3    H214347   2.869   3.423   2.448
 4781TIP3   OH214348   4.822   5.728   3.895
 4781TIP3    H114349   4.825   5.759   3.804
 4781TIP3    H214350   4.853   5.638   3.890
 4782TIP3   OH214351   2.489   1.037   0.705
 4782TIP3    H114352   2.406   1.001   0.675
 4782TIP3    H214353   2.468   1.079   0.789
 4783TIP3   OH214354   3.342   5.498   2.922
 4783TIP3    H114355   3.429   5.465   2.946
 4783TIP3    H214356   3.292   5.419   2.902
 4784TIP3   OH214357   0.495   5.962   2.125
 4784TIP3    H114358   0.504   5.919   2.040
 4784TIP3    H214359   0.402   5.980   2.134
 4785TIP3   OH214360   4.482   4.926   2.398
 4785TIP3    H114361   4.529   4.846   2.377
 4785TIP3    H214362   4.390   4.899   2.405
 4786TIP3   OH214363   5.361   2.871   2.286
 4786TIP3    H114364   5.445   2.861   2.332
 4786TIP3    H214365   5.350   2.966   2.278
 4787TIP3   OH214366   3.506   5.306   0.448
 4787TIP3    H114367   3.477   5.303   0.357
 4787TIP3    H214368   3.568   5.379   0.451
 4788TIP3   OH214369   0.811   2.936   0.709
 4788TIP3    H114370   0.767   2.933   0.624
 4788TIP3    H214371   0.749   2.981   0.766
 4789TIP3   OH214372   3.804   0.723   1.199
 4789TIP3    H114373   3.741   0.713   1.129
 4789TIP3    H214374   3.787   0.650   1.259
 4790TIP3   OH214375   2.686   5.433   2.687
 4790TIP3    H114376   2.621   5.408   2.622
 4790TIP3    H214377   2.720   5.517   2.656
 4791TIP3   OH214378   1.427   3.665   1.031
 4791TIP3    H114379   1.331   3.661   1.031
 4791TIP3    H214380   1.448   3.735   0.969
 4792TIP3   OH214381   2.624   1.833   3.208
 4792TIP3    H114382   2.529   1.822   3.199
 4792TIP3    H214383   2.634   1.915   3.257
 4793TIP3   OH214384   5.200   2.222   3.484
 4793TIP3    H114385   5.146   2.216   3.563
 4793TIP3    H214386   5.215   2.316   3.474
 4794TIP3   OH214387   1.308   4.314   4.751
 4794TIP3    H114388   1.217   4.293   4.733
 4794TIP3    H214389   1.310   4.341   4.843
 4795TIP3   OH214390   2.991   4.663   0.291
 4795TIP3    H114391   3.025   4.745   0.326
 4795TIP3    H214392   2.989   4.675   0.197
 4796TIP3   OH214393   1.795   3.075   4.128
 4796TIP3    H114394   1.747   3.040   4.202
 4796TIP3    H214395   1.865   3.127   4.168
 4797TIP3   OH214396   0.170   5.292   3.703
 4797TIP3    H114397   0.147   5.376   3.663
 4797TIP3    H214398   0.265   5.287   3.696
 4798TIP3   OH214399   3.178   5.004   5.047
 4798TIP3    H114400   3.159   4.958   4.965
 4798TIP3    H214401   3.094   5.012   5.091
 4799TIP3   OH214402   0.144   5.339   0.484
 4799TIP3    H114403   0.143   5.243   0.492
 4799TIP3    H214404   0.168   5.370   0.571
 4800TIP3   OH214405   4.264   0.166   3.144
 4800TIP3    H114406   4.319   0.112   3.089
 4800TIP3    H214407   4.205   0.104   3.187
 4801TIP3   OH214408   5.441   4.403   2.271
 4801TIP3    H114409   5.533   4.428   2.283
 4801TIP3    H214410   5.406   4.395   2.360
 4802TIP3   OH214411   0.208   2.392   3.447
 4802TIP3    H114412   0.271   2.412   3.516
 4802TIP3    H214413   0.166   2.476   3.428
 4803TIP3   OH214414   3.086   0.079   4.951
 4803TIP3    H114415   3.125  -0.008   4.946
 4803TIP3    H214416   3.151   0.133   4.996
 4804TIP3   OH214417   2.830   5.700   4.032
 4804TIP3    H114418   2.803   5.735   4.117
 4804TIP3    H214419   2.923   5.681   4.042
 4805TIP3   OH214420   2.509   1.794   1.159
 4805TIP3    H114421   2.490   1.743   1.080
 4805TIP3    H214422   2.569   1.739   1.209
 4806TIP3   OH214423   5.606   4.298   4.293
 4806TIP3    H114424   5.641   4.308   4.204
 4806TIP3    H214425   5.533   4.359   4.296
 4807TIP3   OH214426   4.210   4.387   4.107
 4807TIP3    H114427   4.199   4.392   4.012
 4807TIP3    H214428   4.148   4.451   4.142
 4808TIP3   OH214429   1.823   2.582   1.157
 4808TIP3    H114430   1.733   2.569   1.125
 4808TIP3    H214431   1.861   2.495   1.156
 4809TIP3   OH214432   4.566   0.644   4.798
 4809TIP3    H114433   4.507   0.665   4.870
 4809TIP3    H214434   4.534   0.698   4.725
 4810TIP3   OH214435   4.967   5.959   1.891
 4810TIP3    H114436   4.990   5.939   1.800
 4810TIP3    H214437   4.888   5.907   1.907
 4811TIP3   OH214438   5.058   2.836   0.786
 4811TIP3    H114439   5.121   2.801   0.723
 4811TIP3    H214440   5.086   2.926   0.801
 4812TIP3   OH214441   3.302   0.269   2.532
 4812TIP3    H114442   3.302   0.188   2.481
 4812TIP3    H214443   3.209   0.289   2.544
 4813TIP3   OH214444   3.000   3.222   2.339
 4813TIP3    H114445   3.024   3.140   2.295
 4813TIP3    H214446   3.050   3.221   2.420
 4814TIP3   OH214447   4.421   2.805   1.393
 4814TIP3    H114448   4.461   2.837   1.312
 4814TIP3    H214449   4.392   2.883   1.438
 4815TIP3   OH214450   3.235   0.963   1.655
 4815TIP3    H114451   3.277   0.921   1.580
 4815TIP3    H214452   3.300   0.957   1.725
 4816TIP3   OH214453   3.842   3.702   3.751
 4816TIP3    H114454   3.848   3.665   3.839
 4816TIP3    H214455   3.917   3.761   3.744
 4817TIP3   OH214456   1.501   4.806   2.713
 4817TIP3    H114457   1.580   4.814   2.766
 4817TIP3    H214458   1.501   4.885   2.659
 4818TIP3   OH214459   0.051   1.809   1.280
 4818TIP3    H114460  -0.026   1.760   1.307
 4818TIP3    H214461   0.114   1.796   1.351
 4819TIP3   OH214462   3.272   1.383   1.440
 4819TIP3    H114463   3.190   1.393   1.489
 4819TIP3    H214464   3.271   1.292   1.410
 4820TIP3   OH214465   2.882   4.414   3.571
 4820TIP3    H114466   2.953   4.474   3.551
 4820TIP3    H214467   2.804   4.456   3.533
 4821TIP3   OH214468   3.674   3.849   0.997
 4821TIP3    H114469   3.663   3.754   1.001
 4821TIP3    H214470   3.585   3.883   0.991
 4822TIP3   OH214471   2.808   3.664   2.134
 4822TIP3    H114472   2.738   3.701   2.188
 4822TIP3    H214473   2.885   3.716   2.157
 4823TIP3   OH214474   4.948   5.831   2.239
 4823TIP3    H114475   4.970   5.857   2.328
 4823TIP3    H214476   4.949   5.913   2.189
 4824TIP3   OH214477   1.359   0.660   1.433
 4824TIP3    H114478   1.333   0.682   1.344
 4824TIP3    H214479   1.372   0.745   1.476
 4825TIP3   OH214480   0.924   4.625   0.212
 4825TIP3    H114481   0.892   4.683   0.281
 4825TIP3    H214482   0.989   4.676   0.166
 4826TIP3   OH214483   5.035   5.663   2.018
 4826TIP3    H114484   4.972   5.704   2.077
 4826TIP3    H214485   5.110   5.644   2.074
 4827TIP3   OH214486   2.399   0.688   1.522
 4827TIP3    H114487   2.367   0.664   1.435
 4827TIP3    H214488   2.415   0.782   1.517
 4828TIP3   OH214489   4.285   5.761   0.520
 4828TIP3    H114490   4.265   5.693   0.584
 4828TIP3    H214491   4.209   5.820   0.522
 4829TIP3   OH214492   6.063   3.446   0.284
 4829TIP3    H114493   6.045   3.437   0.378
 4829TIP3    H214494   6.132   3.383   0.267
 4830TIP3   OH214495   5.512   3.454   4.278
 4830TIP3    H114496   5.566   3.453   4.200
 4830TIP3    H214497   5.563   3.503   4.342
 4831TIP3   OH214498   3.718   3.415   4.744
 4831TIP3    H114499   3.649   3.439   4.806
 4831TIP3    H214500   3.725   3.320   4.752
 4832TIP3   OH214501   3.597   3.097   0.925
 4832TIP3    H114502   3.579   3.030   0.991
 4832TIP3    H214503   3.666   3.151   0.963
 4833TIP3   OH214504   0.399   0.150   5.024
 4833TIP3    H114505   0.327   0.173   4.966
 4833TIP3    H214506   0.465   0.218   5.008
 4834TIP3   OH214507   1.557   1.659   3.955
 4834TIP3    H114508   1.527   1.666   4.046
 4834TIP3    H214509   1.512   1.582   3.921
 4835TIP3   OH214510   2.658   2.020   1.240
 4835TIP3    H114511   2.661   1.975   1.325
 4835TIP3    H214512   2.588   1.976   1.192
 4836TIP3   OH214513   4.023   1.852   2.890
 4836TIP3    H114514   3.967   1.777   2.871
 4836TIP3    H214515   4.060   1.833   2.977
 4837TIP3   OH214516   0.291   5.013   5.149
 4837TIP3    H114517   0.204   4.974   5.150
 4837TIP3    H214518   0.275   5.106   5.133
 4838TIP3   OH214519   1.007   0.763   0.690
 4838TIP3    H114520   1.049   0.768   0.776
 4838TIP3    H214521   1.022   0.848   0.650
 4839TIP3   OH214522   0.070   3.421   0.365
 4839TIP3    H114523   0.034   3.426   0.277
 4839TIP3    H214524   0.035   3.340   0.402
 4840TIP3   OH214525   5.383   3.265   4.157
 4840TIP3    H114526   5.406   3.339   4.213
 4840TIP3    H214527   5.404   3.294   4.069
 4841TIP3   OH214528   2.147   1.257   4.425
 4841TIP3    H114529   2.072   1.199   4.436
 4841TIP3    H214530   2.213   1.221   4.484
 4842TIP3   OH214531   1.810   1.740   0.540
 4842TIP3    H114532   1.903   1.757   0.552
 4842TIP3    H214533   1.767   1.811   0.587
 4843TIP3   OH214534   5.337   3.752   1.976
 4843TIP3    H114535   5.275   3.815   1.938
 4843TIP3    H214536   5.422   3.797   1.972
 4844TIP3   OH214537   2.024   4.207   1.672
 4844TIP3    H114538   2.019   4.292   1.629
 4844TIP3    H214539   2.115   4.198   1.698
 4845TIP3   OH214540   4.070   0.376   2.645
 4845TIP3    H114541   4.117   0.457   2.667
 4845TIP3    H214542   4.033   0.346   2.727
 4846TIP3   OH214543   0.058   0.644   2.969
 4846TIP3    H114544   0.106   0.725   2.954
 4846TIP3    H214545   0.125   0.577   2.976
 4847TIP3   OH214546   4.746   5.027   2.349
 4847TIP3    H114547   4.783   5.051   2.434
 4847TIP3    H214548   4.652   5.023   2.365
 4848TIP3   OH214549   4.463   5.871   3.493
 4848TIP3    H114550   4.447   5.885   3.399
 4848TIP3    H214551   4.481   5.958   3.527
 4849TIP3   OH214552  -0.002   5.124   1.772
 4849TIP3    H114553   0.053   5.048   1.752
 4849TIP3    H214554   0.048   5.174   1.837
 4850TIP3   OH214555   3.825   2.856   3.038
 4850TIP3    H114556   3.844   2.825   3.126
 4850TIP3    H214557   3.880   2.801   2.981
 4851TIP3   OH214558   1.547   3.882   0.912
 4851TIP3    H114559   1.531   3.963   0.960
 4851TIP3    H214560   1.642   3.874   0.910
 4852TIP3   OH214561   2.896   2.345   2.590
 4852TIP3    H114562   2.986   2.354   2.559
 4852TIP3    H214563   2.886   2.415   2.655
 4853TIP3   OH214564   2.734   1.615   4.314
 4853TIP3    H114565   2.672   1.649   4.250
 4853TIP3    H214566   2.816   1.659   4.294
 4854TIP3   OH214567   3.332   5.158   2.183
 4854TIP3    H114568   3.372   5.229   2.233
 4854TIP3    H214569   3.294   5.200   2.106
 4855TIP3   OH214570   3.031   5.569   0.537
 4855TIP3    H114571   3.020   5.555   0.443
 4855TIP3    H214572   3.115   5.614   0.545
 4856TIP3   OH214573   5.568   0.461   2.593
 4856TIP3    H114574   5.486   0.459   2.642
 4856TIP3    H214575   5.576   0.372   2.556
 4857TIP3   OH214576   0.492   1.505   0.815
 4857TIP3    H114577   0.462   1.594   0.793
 4857TIP3    H214578   0.572   1.494   0.763
 4858TIP3   OH214579   4.312   3.937   3.374
 4858TIP3    H114580   4.393   3.983   3.397
 4858TIP3    H214581   4.246   3.974   3.434
 4859TIP3   OH214582   5.608   3.657   0.347
 4859TIP3    H114583   5.677   3.700   0.296
 4859TIP3    H214584   5.538   3.722   0.353
 4860TIP3   OH214585   0.585   4.856   2.635
 4860TIP3    H114586   0.657   4.793   2.638
 4860TIP3    H214587   0.553   4.860   2.725
 4861TIP3   OH214588   5.061   5.028   1.603
 4861TIP3    H114589   5.059   4.954   1.543
 4861TIP3    H214590   5.059   4.989   1.690
 4862TIP3   OH214591   2.145   2.580   2.600
 4862TIP3    H114592   2.084   2.652   2.582
 4862TIP3    H214593   2.113   2.508   2.546
 4863TIP3   OH214594   4.920   0.279   4.544
 4863TIP3    H114595   4.826   0.290   4.559
 4863TIP3    H214596   4.929   0.194   4.502
 4864TIP3   OH214597   6.061   2.786   0.188
 4864TIP3    H114598   6.116   2.732   0.245
 4864TIP3    H214599   6.116   2.803   0.111
 4865TIP3   OH214600   1.516   0.961   0.335
 4865TIP3    H114601   1.569   1.041   0.324
 4865TIP3    H214602   1.548   0.902   0.266
 4866TIP3   OH214603   5.392   4.499   2.928
 4866TIP3    H114604   5.484   4.513   2.951
 4866TIP3    H214605   5.386   4.527   2.837
 4867TIP3   OH214606   4.376   1.612   4.443
 4867TIP3    H114607   4.371   1.664   4.523
 4867TIP3    H214608   4.296   1.561   4.443
 4868TIP3   OH214609   4.896  -0.001   1.079
 4868TIP3    H114610   4.936   0.071   1.127
 4868TIP3    H214611   4.890   0.030   0.989
 4869TIP3   OH214612   2.142   5.383   4.305
 4869TIP3    H114613   2.198   5.455   4.276
 4869TIP3    H214614   2.129   5.329   4.227
 4870TIP3   OH214615   4.570   3.920   0.631
 4870TIP3    H114616   4.502   3.944   0.568
 4870TIP3    H214617   4.522   3.891   0.709
 4871TIP3   OH214618   5.941   4.610   2.373
 4871TIP3    H114619   5.910   4.689   2.417
 4871TIP3    H214620   5.876   4.594   2.305
 4872TIP3   OH214621   0.982   2.547   2.453
 4872TIP3    H114622   0.941   2.524   2.370
 4872TIP3    H214623   1.072   2.515   2.446
 4873TIP3   OH214624   2.502   2.574   3.529
 4873TIP3    H114625   2.559   2.595   3.456
 4873TIP3    H214626   2.529   2.633   3.599
 4874TIP3   OH214627   2.596   0.171   2.608
 4874TIP3    H114628   2.599   0.088   2.561
 4874TIP3    H214629   2.658   0.227   2.562
 4875TIP3   OH214630   6.257   0.154   1.763
 4875TIP3    H114631   6.313   0.228   1.784
 4875TIP3    H214632   6.317   0.083   1.739
 4876TIP3   OH214633   1.721   0.665   3.651
 4876TIP3    H114634   1.629   0.694   3.647
 4876TIP3    H214635   1.771   0.746   3.662
 4877TIP3   OH214636   0.946   2.335   1.999
 4877TIP3    H114637   0.863   2.288   2.008
 4877TIP3    H214638   0.963   2.336   1.905
 4878TIP3   OH214639   6.224   3.905   2.054
 4878TIP3    H114640   6.304   3.861   2.081
 4878TIP3    H214641   6.251   3.966   1.986
 4879TIP3   OH214642   5.722   0.897   1.976
 4879TIP3    H114643   5.671   0.939   1.907
 4879TIP3    H214644   5.799   0.951   1.986
 4880TIP3   OH214645   0.254   4.042   2.391
 4880TIP3    H114646   0.177   4.039   2.333
 4880TIP3    H214647   0.328   4.031   2.332
 4881TIP3   OH214648   5.910   4.883   2.900
 4881TIP3    H114649   5.849   4.950   2.869
 4881TIP3    H214650   5.923   4.826   2.823
 4882TIP3   OH214651   1.960   3.688   3.256
 4882TIP3    H114652   1.927   3.672   3.167
 4882TIP3    H214653   1.883   3.676   3.312
 4883TIP3   OH214654   5.912   0.498   0.152
 4883TIP3    H114655   6.004   0.516   0.176
 4883TIP3    H214656   5.899   0.547   0.071
 4884TIP3   OH214657   1.609   1.471   2.529
 4884TIP3    H114658   1.690   1.500   2.486
 4884TIP3    H214659   1.560   1.551   2.545
 4885TIP3   OH214660   6.261   1.426   2.736
 4885TIP3    H114661   6.330   1.455   2.676
 4885TIP3    H214662   6.198   1.498   2.736
 4886TIP3   OH214663   0.095   1.932   3.968
 4886TIP3    H114664   0.008   1.946   4.006
 4886TIP3    H214665   0.143   1.882   4.033
 4887TIP3   OH214666   2.787   2.739   2.778
 4887TIP3    H114667   2.847   2.669   2.752
 4887TIP3    H214668   2.700   2.699   2.770
 4888TIP3   OH214669   3.723   3.380   3.089
 4888TIP3    H114670   3.669   3.324   3.145
 4888TIP3    H214671   3.783   3.320   3.045
 4889TIP3   OH214672   2.995   3.343   4.056
 4889TIP3    H114673   3.004   3.264   4.109
 4889TIP3    H214674   3.040   3.411   4.106
 4890TIP3   OH214675   1.295   3.904   3.118
 4890TIP3    H114676   1.254   3.984   3.086
 4890TIP3    H214677   1.232   3.835   3.095
 4891TIP3   OH214678   1.255   2.132   5.078
 4891TIP3    H114679   1.218   2.115   4.992
 4891TIP3    H214680   1.182   2.119   5.139
 4892TIP3   OH214681   1.462   4.925   1.180
 4892TIP3    H114682   1.400   4.999   1.181
 4892TIP3    H214683   1.422   4.862   1.240
 4893TIP3   OH214684   3.665   2.718   0.905
 4893TIP3    H114685   3.615   2.637   0.900
 4893TIP3    H214686   3.607   2.779   0.952
 4894TIP3   OH214687   4.910   0.463   3.804
 4894TIP3    H114688   4.906   0.474   3.709
 4894TIP3    H214689   4.978   0.524   3.833
 4895TIP3   OH214690   1.177   3.669   0.968
 4895TIP3    H114691   1.112   3.600   0.979
 4895TIP3    H214692   1.173   3.692   0.875
 4896TIP3   OH214693   1.208   3.792   4.628
 4896TIP3    H114694   1.205   3.852   4.554
 4896TIP3    H214695   1.117   3.782   4.655
 4897TIP3   OH214696   4.088   3.218   4.742
 4897TIP3    H114697   4.054   3.305   4.760
 4897TIP3    H214698   4.019   3.158   4.770
 4898TIP3   OH214699   4.768   3.998   0.447
 4898TIP3    H114700   4.707   3.977   0.517
 4898TIP3    H214701   4.770   3.920   0.392
 4899TIP3   OH214702   4.310   1.444   3.490
 4899TIP3    H114703   4.219   1.461   3.515
 4899TIP3    H214704   4.346   1.392   3.562
 4900TIP3   OH214705   6.258   4.765   0.827
 4900TIP3    H114706   6.268   4.860   0.821
 4900TIP3    H214707   6.241   4.736   0.737
 4901TIP3   OH214708   3.379   1.495   3.030
 4901TIP3    H114709   3.370   1.562   3.098
 4901TIP3    H214710   3.397   1.544   2.950
 4902TIP3   OH214711   5.813   4.323   1.112
 4902TIP3    H114712   5.726   4.325   1.072
 4902TIP3    H214713   5.856   4.247   1.072
 4903TIP3   OH214714   1.874   1.187   3.786
 4903TIP3    H114715   1.903   1.208   3.875
 4903TIP3    H214716   1.780   1.173   3.794
 4904TIP3   OH214717   5.736   3.162   3.589
 4904TIP3    H114718   5.675   3.100   3.630
 4904TIP3    H214719   5.689   3.246   3.589
 4905TIP3   OH214720   4.081   1.098   1.779
 4905TIP3    H114721   4.041   1.185   1.788
 4905TIP3    H214722   4.129   1.085   1.860
 4906TIP3   OH214723   2.011   0.211   4.387
 4906TIP3    H114724   2.099   0.214   4.423
 4906TIP3    H214725   2.023   0.184   4.296
 4907TIP3   OH214726   5.339   1.276   1.505
 4907TIP3    H114727   5.395   1.302   1.579
 4907TIP3    H214728   5.307   1.189   1.529
 4908TIP3   OH214729   3.928   4.193   3.269
 4908TIP3    H114730   3.874   4.118   3.296
 4908TIP3    H214731   3.947   4.177   3.177
 4909TIP3   OH214732   2.221   0.571   1.761
 4909TIP3    H114733   2.125   0.576   1.769
 4909TIP3    H214734   2.248   0.660   1.737
 4910TIP3   OH214735   5.292   3.316   4.950
 4910TIP3    H114736   5.348   3.246   4.985
 4910TIP3    H214737   5.256   3.279   4.869
 4911TIP3   OH214738   3.633   4.462   0.681
 4911TIP3    H114739   3.557   4.519   0.668
 4911TIP3    H214740   3.603   4.396   0.743
 4912TIP3   OH214741   0.326   5.780   2.529
 4912TIP3    H114742   0.373   5.754   2.608
 4912TIP3    H214743   0.390   5.829   2.477
 4913TIP3   OH214744   4.442   1.363   4.756
 4913TIP3    H114745   4.349   1.359   4.735
 4913TIP3    H214746   4.453   1.445   4.803
 4914TIP3   OH214747   0.311   5.266   2.150
 4914TIP3    H114748   0.374   5.232   2.087
 4914TIP3    H214749   0.363   5.321   2.208
 4915TIP3   OH214750   3.890   5.627   4.860
 4915TIP3    H114751   3.910   5.718   4.838
 4915TIP3    H214752   3.969   5.594   4.903
 4916TIP3   OH214753   5.322   0.306   1.466
 4916TIP3    H114754   5.232   0.331   1.489
 4916TIP3    H214755   5.328   0.214   1.489
 4917TIP3   OH214756   4.336   1.377   4.175
 4917TIP3    H114757   4.419   1.336   4.152
 4917TIP3    H214758   4.322   1.441   4.105
 4918TIP3   OH214759   0.882   5.163   0.713
 4918TIP3    H114760   0.805   5.194   0.664
 4918TIP3    H214761   0.907   5.082   0.670
 4919TIP3   OH214762   1.591   5.071   4.768
 4919TIP3    H114763   1.627   4.996   4.815
 4919TIP3    H214764   1.621   5.147   4.818
 4920TIP3   OH214765   5.249   2.509   4.320
 4920TIP3    H114766   5.336   2.471   4.310
 4920TIP3    H214767   5.251   2.552   4.406
 4921TIP3   OH214768  -0.002   2.634   0.340
 4921TIP3    H114769   0.089   2.657   0.360
 4921TIP3    H214770   0.005   2.559   0.280
 4922TIP3   OH214771   3.561   3.731   1.413
 4922TIP3    H114772   3.527   3.820   1.418
 4922TIP3    H214773   3.544   3.694   1.500
 4923TIP3   OH214774   3.520   5.116   4.804
 4923TIP3    H114775   3.461   5.157   4.868
 4923TIP3    H214776   3.478   5.131   4.719
 4924TIP3   OH214777   1.432   2.206   2.654
 4924TIP3    H114778   1.481   2.206   2.572
 4924TIP3    H214779   1.499   2.193   2.722
 4925TIP3   OH214780   5.246   1.553   1.366
 4925TIP3    H114781   5.291   1.470   1.385
 4925TIP3    H214782   5.262   1.607   1.443
 4926TIP3   OH214783   4.341   0.904   1.998
 4926TIP3    H114784   4.378   0.990   1.979
 4926TIP3    H214785   4.398   0.868   2.066
 4927TIP3   OH214786   6.107   3.186   1.429
 4927TIP3    H114787   6.017   3.170   1.456
 4927TIP3    H214788   6.114   3.146   1.343
 4928TIP3   OH214789   0.444   5.059   0.293
 4928TIP3    H114790   0.529   5.075   0.251
 4928TIP3    H214791   0.410   5.147   0.311
 4929TIP3   OH214792   2.170   1.995   1.917
 4929TIP3    H114793   2.179   1.939   1.840
 4929TIP3    H214794   2.117   2.069   1.887
 4930TIP3   OH214795   1.481   0.646   0.637
 4930TIP3    H114796   1.481   0.627   0.543
 4930TIP3    H214797   1.459   0.562   0.678
 4931TIP3   OH214798   5.928   1.843   3.134
 4931TIP3    H114799   5.945   1.772   3.071
 4931TIP3    H214800   5.965   1.812   3.216
 4932TIP3   OH214801   2.230   4.513   3.975
 4932TIP3    H114802   2.167   4.455   4.017
 4932TIP3    H214803   2.218   4.499   3.881
 4933TIP3   OH214804   4.948   4.016   3.943
 4933TIP3    H114805   4.992   3.934   3.923
 4933TIP3    H214806   4.954   4.025   4.038
 4934TIP3   OH214807   5.935   2.551   3.683
 4934TIP3    H114808   6.013   2.530   3.631
 4934TIP3    H214809   5.948   2.506   3.766
 4935TIP3   OH214810   5.301   2.341   5.156
 4935TIP3    H114811   5.357   2.302   5.224
 4935TIP3    H214812   5.233   2.275   5.142
 4936TIP3   OH214813   5.867   0.086   3.856
 4936TIP3    H114814   5.843   0.072   3.947
 4936TIP3    H214815   5.875  -0.002   3.819
 4937TIP3   OH214816   2.041   4.723   3.893
 4937TIP3    H114817   2.106   4.763   3.835
 4937TIP3    H214818   2.006   4.649   3.844
 4938TIP3   OH214819   2.314   1.787   2.750
 4938TIP3    H114820   2.310   1.743   2.836
 4938TIP3    H214821   2.222   1.796   2.724
 4939TIP3   OH214822   5.373   4.154   1.110
 4939TIP3    H114823   5.414   4.113   1.187
 4939TIP3    H214824   5.387   4.247   1.123
 4940TIP3   OH214825   4.619   4.198   0.783
 4940TIP3    H114826   4.596   4.220   0.692
 4940TIP3    H214827   4.666   4.115   0.777
 4941TIP3   OH214828   5.112   1.374   3.221
 4941TIP3    H114829   5.103   1.436   3.293
 4941TIP3    H214830   5.134   1.291   3.264
 4942TIP3   OH214831   5.881   3.872   2.940
 4942TIP3    H114832   5.911   3.848   2.853
 4942TIP3    H214833   5.869   3.967   2.936
 4943TIP3   OH214834   4.012   2.324   1.755
 4943TIP3    H114835   4.057   2.243   1.780
 4943TIP3    H214836   3.920   2.301   1.757
 4944TIP3   OH214837   1.305   3.846   1.973
 4944TIP3    H114838   1.246   3.825   2.045
 4944TIP3    H214839   1.314   3.764   1.925
 4945TIP3   OH214840   0.645   3.948   3.926
 4945TIP3    H114841   0.552   3.931   3.941
 4945TIP3    H214842   0.647   4.001   3.846
 4946TIP3   OH214843   5.472   0.043   3.700
 4946TIP3    H114844   5.497   0.135   3.713
 4946TIP3    H214845   5.531  -0.006   3.757
 4947TIP3   OH214846   2.773   1.848   3.620
 4947TIP3    H114847   2.814   1.762   3.607
 4947TIP3    H214848   2.716   1.836   3.696
 4948TIP3   OH214849   4.208   3.990   3.941
 4948TIP3    H114850   4.116   4.007   3.957
 4948TIP3    H214851   4.223   4.018   3.851
 4949TIP3   OH214852   3.912   3.878   1.650
 4949TIP3    H114853   3.951   3.797   1.683
 4949TIP3    H214854   3.913   3.937   1.725
 4950TIP3   OH214855   2.854   0.014   1.450
 4950TIP3    H114856   2.890   0.044   1.533
 4950TIP3    H214857   2.768   0.055   1.444
 4951TIP3   OH214858   0.705   1.533   5.135
 4951TIP3    H114859   0.743   1.508   5.051
 4951TIP3    H214860   0.770   1.589   5.176
 4952TIP3   OH214861   2.520   2.051   2.214
 4952TIP3    H114862   2.482   1.965   2.196
 4952TIP3    H214863   2.484   2.108   2.146
 4953TIP3   OH214864   3.912   0.550   3.763
 4953TIP3    H114865   3.925   0.512   3.676
 4953TIP3    H214866   3.820   0.575   3.764
 4954TIP3   OH214867   4.763   5.032   2.630
 4954TIP3    H114868   4.786   4.947   2.593
 4954TIP3    H214869   4.696   5.011   2.696
 4955TIP3   OH214870   4.434   1.235   0.592
 4955TIP3    H114871   4.354   1.235   0.539
 4955TIP3    H214872   4.403   1.222   0.682
 4956TIP3   OH214873   2.662   1.723   1.890
 4956TIP3    H114874   2.597   1.719   1.820
 4956TIP3    H214875   2.683   1.816   1.898
 4957TIP3   OH214876   5.332   4.089   3.862
 4957TIP3    H114877   5.301   3.999   3.865
 4957TIP3    H214878   5.293   4.124   3.781
 4958TIP3   OH214879   2.254   5.316   3.713
 4958TIP3    H114880   2.266   5.288   3.622
 4958TIP3    H214881   2.333   5.367   3.733
 4959TIP3   OH214882   5.154   4.589   2.675
 4959TIP3    H114883   5.176   4.648   2.604
 4959TIP3    H214884   5.194   4.505   2.649
 4960TIP3   OH214885   2.748   3.923   3.637
 4960TIP3    H114886   2.811   3.897   3.568
 4960TIP3    H214887   2.794   3.990   3.687
 4961TIP3   OH214888   0.354   3.527   4.874
 4961TIP3    H114889   0.341   3.475   4.795
 4961TIP3    H214890   0.280   3.504   4.931
 4962TIP3   OH214891   1.765   5.063   4.514
 4962TIP3    H114892   1.697   5.066   4.582
 4962TIP3    H214893   1.842   5.028   4.558
 4963TIP3   OH214894   1.328   3.100   2.649
 4963TIP3    H114895   1.375   3.108   2.731
 4963TIP3    H214896   1.382   3.148   2.585
 4964TIP3   OH214897   0.410   4.316   2.199
 4964TIP3    H114898   0.492   4.275   2.226
 4964TIP3    H214899   0.347   4.244   2.198
 4965TIP3   OH214900   4.509   5.860   0.754
 4965TIP3    H114901   4.596   5.821   0.769
 4965TIP3    H214902   4.500   5.863   0.659
 4966TIP3   OH214903   6.235   0.734   3.693
 4966TIP3    H114904   6.260   0.759   3.604
 4966TIP3    H214905   6.262   0.643   3.702
 4967TIP3   OH214906   4.507   2.380   1.397
 4967TIP3    H114907   4.423   2.420   1.421
 4967TIP3    H214908   4.509   2.384   1.302
 4968TIP3   OH214909   4.185   2.919   1.150
 4968TIP3    H114910   4.094   2.889   1.160
 4968TIP3    H214911   4.230   2.845   1.110
 4969TIP3   OH214912   0.958   2.870   2.227
 4969TIP3    H114913   0.903   2.909   2.160
 4969TIP3    H214914   0.961   2.777   2.205
 4970TIP3   OH214915   1.447   4.814   1.543
 4970TIP3    H114916   1.489   4.774   1.467
 4970TIP3    H214917   1.483   4.902   1.547
 4971TIP3   OH214918   4.745   1.743   2.934
 4971TIP3    H114919   4.664   1.692   2.934
 4971TIP3    H214920   4.809   1.686   2.978
 4972TIP3   OH214921   0.758   4.506   1.920
 4972TIP3    H114922   0.805   4.502   2.004
 4972TIP3    H214923   0.679   4.454   1.934
 4973TIP3   OH214924   2.831   4.032   0.262
 4973TIP3    H114925   2.907   3.983   0.229
 4973TIP3    H214926   2.763   4.017   0.197
 4974TIP3   OH214927   0.981   4.902   4.953
 4974TIP3    H114928   0.915   4.833   4.956
 4974TIP3    H214929   1.061   4.860   4.985
 4975TIP3   OH214930   3.322   3.205   2.851
 4975TIP3    H114931   3.336   3.147   2.926
 4975TIP3    H214932   3.235   3.241   2.864
 4976TIP3   OH214933   4.421   3.182   2.514
 4976TIP3    H114934   4.407   3.145   2.601
 4976TIP3    H214935   4.516   3.194   2.507
 4977TIP3   OH214936   1.590   3.671   3.722
 4977TIP3    H114937   1.564   3.747   3.774
 4977TIP3    H214938   1.519   3.609   3.732
 4978TIP3   OH214939   3.387   1.014   1.024
 4978TIP3    H114940   3.292   1.015   1.016
 4978TIP3    H214941   3.419   0.993   0.936
 4979TIP3   OH214942   0.394   0.814   2.606
 4979TIP3    H114943   0.454   0.828   2.679
 4979TIP3    H214944   0.329   0.884   2.614
 4980TIP3   OH214945   0.142   2.717   4.418
 4980TIP3    H114946   0.237   2.707   4.425
 4980TIP3    H214947   0.119   2.664   4.341
 4981TIP3   OH214948   3.720   0.627   4.091
 4981TIP3    H114949   3.774   0.572   4.147
 4981TIP3    H214950   3.664   0.676   4.152
 4982TIP3   OH214951   1.399   5.628  -0.023
 4982TIP3    H114952   1.462   5.688   0.017
 4982TIP3    H214953   1.398   5.552   0.035
 4983TIP3   OH214954   1.507   3.206   2.376
 4983TIP3    H114955   1.592   3.195   2.419
 4983TIP3    H214956   1.519   3.167   2.289
 4984TIP3   OH214957   0.995   2.910   4.697
 4984TIP3    H114958   1.000   2.943   4.787
 4984TIP3    H214959   1.017   2.818   4.705
 4985TIP3   OH214960   2.690   1.912   0.281
 4985TIP3    H114961   2.773   1.950   0.313
 4985TIP3    H214962   2.625   1.939   0.346
 4986TIP3   OH214963   6.068   2.605   0.787
 4986TIP3    H114964   6.117   2.523   0.781
 4986TIP3    H214965   6.092   2.654   0.708
 4987TIP3   OH214966   4.404   4.744   4.858
 4987TIP3    H114967   4.312   4.721   4.852
 4987TIP3    H214968   4.419   4.759   4.952
 4988TIP3   OH214969   4.255   1.665   3.274
 4988TIP3    H114970   4.242   1.577   3.309
 4988TIP3    H214971   4.168   1.694   3.249
 4989TIP3   OH214972   4.368   5.144   1.854
 4989TIP3    H114973   4.332   5.071   1.802
 4989TIP3    H214974   4.447   5.170   1.806
 4990TIP3   OH214975   2.304   5.997   0.823
 4990TIP3    H114976   2.315   6.035   0.910
 4990TIP3    H214977   2.327   5.904   0.834
 4991TIP3   OH214978   4.953   3.142   4.571
 4991TIP3    H114979   5.031   3.196   4.578
 4991TIP3    H214980   4.904   3.179   4.497
 4992TIP3   OH214981   5.794   0.030   4.396
 4992TIP3    H114982   5.797  -0.065   4.412
 4992TIP3    H214983   5.800   0.069   4.484
 4993TIP3   OH214984   4.170   1.480   0.740
 4993TIP3    H114985   4.106   1.499   0.671
 4993TIP3    H214986   4.190   1.387   0.731
 4994TIP3   OH214987   1.725   2.272   4.769
 4994TIP3    H114988   1.727   2.250   4.676
 4994TIP3    H214989   1.687   2.359   4.773
 4995TIP3   OH214990   2.400   4.827   0.512
 4995TIP3    H114991   2.485   4.835   0.468
 4995TIP3    H214992   2.339   4.871   0.452
 4996TIP3   OH214993   3.123   0.156   3.091
 4996TIP3    H114994   3.137   0.097   3.017
 4996TIP3    H214995   3.211   0.174   3.125
 4997TIP3   OH214996   5.366   1.656   0.745
 4997TIP3    H114997   5.414   1.684   0.666
 4997TIP3    H214998   5.363   1.560   0.738
 4998TIP3   OH214999   2.889   0.353   1.285
 4998TIP3    H115000   2.916   0.331   1.374
 4998TIP3    H215001   2.876   0.268   1.242
 4999TIP3   OH215002   3.607   0.792   4.554
 4999TIP3    H115003   3.672   0.861   4.573
 4999TIP3    H215004   3.534   0.812   4.613
 5000TIP3   OH215005   5.211   5.888   4.709
 5000TIP3    H115006   5.213   5.855   4.799
 5000TIP3    H215007   5.211   5.809   4.655
 5001TIP3   OH215008   2.039   4.336   0.409
 5001TIP3    H115009   1.955   4.297   0.432
 5001TIP3    H215010   2.080   4.356   0.494
 5002TIP3   OH215011   3.126   0.125   3.934
 5002TIP3    H115012   3.123   0.057   3.866
 5002TIP3    H215013   3.202   0.102   3.987
 5003TIP3   OH215014   5.273   3.043   3.169
 5003TIP3    H115015   5.260   2.977   3.237
 5003TIP3    H215016   5.186   3.077   3.151
 5004TIP3   OH215017   0.631   2.218   3.467
 5004TIP3    H115018   0.638   2.166   3.546
 5004TIP3    H215019   0.690   2.292   3.481
 5005TIP3   OH215020   1.031   4.466   1.185
 5005TIP3    H115021   1.057   4.385   1.230
 5005TIP3    H215022   1.038   4.445   1.092
 5006TIP3   OH215023   1.041   2.781   0.683
 5006TIP3    H115024   1.055   2.750   0.773
 5006TIP3    H215025   0.956   2.826   0.687
 5007TIP3   OH215026   1.024   2.870   1.640
 5007TIP3    H115027   1.067   2.951   1.666
 5007TIP3    H215028   0.977   2.841   1.718
 5008TIP3   OH215029   3.280   3.215   4.020
 5008TIP3    H115030   3.277   3.171   4.104
 5008TIP3    H215031   3.258   3.306   4.039
 5009TIP3   OH215032   4.537   3.860   1.729
 5009TIP3    H115033   4.479   3.803   1.781
 5009TIP3    H215034   4.584   3.911   1.794
 5010TIP3   OH215035   3.812   1.508   1.557
 5010TIP3    H115036   3.759   1.458   1.496
 5010TIP3    H215037   3.759   1.585   1.578
 5011TIP3   OH215038   4.641   2.149   0.300
 5011TIP3    H115039   4.658   2.244   0.301
 5011TIP3    H215040   4.626   2.129   0.207
 5012TIP3   OH215041   2.690   5.475   3.935
 5012TIP3    H115042   2.757   5.423   3.892
 5012TIP3    H215043   2.734   5.556   3.961
 5013TIP3   OH215044   3.264   4.338   4.346
 5013TIP3    H115045   3.224   4.300   4.267
 5013TIP3    H215046   3.260   4.267   4.411
 5014TIP3   OH215047   3.762   3.379   3.691
 5014TIP3    H115048   3.812   3.460   3.690
 5014TIP3    H215049   3.679   3.402   3.734
 5015TIP3   OH215050   5.637   1.417   3.737
 5015TIP3    H115051   5.584   1.495   3.718
 5015TIP3    H215052   5.604   1.386   3.822
 5016TIP3   OH215053   4.934   0.101   0.839
 5016TIP3    H115054   4.870   0.128   0.773
 5016TIP3    H215055   5.004   0.059   0.789
 5017TIP3   OH215056   4.596   0.772   0.488
 5017TIP3    H115057   4.688   0.797   0.483
 5017TIP3    H215058   4.588   0.724   0.570
 5018TIP3   OH215059   1.261   2.436   3.985
 5018TIP3    H115060   1.321   2.506   3.961
 5018TIP3    H215061   1.289   2.409   4.073
 5019TIP3   OH215062   3.117   4.870   1.176
 5019TIP3    H115063   3.087   4.951   1.135
 5019TIP3    H215064   3.044   4.842   1.231
 5020TIP3   OH215065   2.118   4.765   2.075
 5020TIP3    H115066   2.154   4.721   1.998
 5020TIP3    H215067   2.194   4.800   2.121
 5021TIP3   OH215068   1.496   4.657   1.310
 5021TIP3    H115069   1.452   4.581   1.348
 5021TIP3    H215070   1.559   4.620   1.248
 5022TIP3   OH215071   3.835   5.236   4.368
 5022TIP3    H115072   3.870   5.164   4.315
 5022TIP3    H215073   3.802   5.299   4.304
 5023TIP3   OH215074   3.723   5.900   2.628
 5023TIP3    H115075   3.658   5.840   2.664
 5023TIP3    H215076   3.679   5.985   2.624
 5024TIP3   OH215077   4.894   3.762   2.016
 5024TIP3    H115078   4.803   3.736   2.031
 5024TIP3    H215079   4.911   3.738   1.925
 5025TIP3   OH215080   4.100   3.878   1.408
 5025TIP3    H115081   4.185   3.897   1.447
 5025TIP3    H215082   4.053   3.961   1.411
 5026TIP3   OH215083   3.089   4.970   4.785
 5026TIP3    H115084   3.013   5.027   4.795
 5026TIP3    H215085   3.150   5.020   4.731
 5027TIP3   OH215086   4.116   2.900   0.505
 5027TIP3    H115087   4.096   2.904   0.598
 5027TIP3    H215088   4.208   2.872   0.501
 5028TIP3   OH215089   2.485   4.466   4.508
 5028TIP3    H115090   2.422   4.530   4.477
 5028TIP3    H215091   2.522   4.427   4.429
 5029TIP3   OH215092   5.319   1.342   2.331
 5029TIP3    H115093   5.392   1.350   2.391
 5029TIP3    H215094   5.351   1.378   2.248
 5030TIP3   OH215095   6.166   2.405   1.702
 5030TIP3    H115096   6.125   2.319   1.695
 5030TIP3    H215097   6.168   2.437   1.612
 5031TIP3   OH215098   3.833   5.820   3.770
 5031TIP3    H115099   3.771   5.749   3.786
 5031TIP3    H215100   3.848   5.819   3.676
 5032TIP3   OH215101   5.105   4.642   1.892
 5032TIP3    H115102   5.189   4.636   1.938
 5032TIP3    H215103   5.078   4.551   1.881
 5033TIP3   OH215104   0.585   3.085   0.816
 5033TIP3    H115105   0.582   3.141   0.738
 5033TIP3    H215106   0.595   3.146   0.889
 5034TIP3   OH215107   0.369   0.636   2.986
 5034TIP3    H115108   0.361   0.723   3.026
 5034TIP3    H215109   0.419   0.651   2.907
 5035TIP3   OH215110   2.270   1.591   3.579
 5035TIP3    H115111   2.227   1.575   3.494
 5035TIP3    H215112   2.288   1.685   3.579
 5036TIP3   OH215113   4.633   2.577   4.702
 5036TIP3    H115114   4.619   2.579   4.608
 5036TIP3    H215115   4.724   2.605   4.713
 5037TIP3   OH215116   4.046   1.557   0.498
 5037TIP3    H115117   3.979   1.608   0.453
 5037TIP3    H215118   4.129   1.591   0.465
 5038TIP3   OH215119   5.893   3.574   4.884
 5038TIP3    H115120   5.936   3.633   4.821
 5038TIP3    H215121   5.965   3.542   4.939
 5039TIP3   OH215122   2.973   3.367   3.365
 5039TIP3    H115123   2.980   3.273   3.379
 5039TIP3    H215124   2.897   3.393   3.417
 5040TIP3   OH215125   2.579   3.739   0.732
 5040TIP3    H115126   2.651   3.676   0.730
 5040TIP3    H215127   2.598   3.800   0.661
 5041TIP3   OH215128   5.263   0.576   4.559
 5041TIP3    H115129   5.326   0.589   4.630
 5041TIP3    H215130   5.250   0.481   4.556
 5042TIP3   OH215131   0.836   1.944   0.513
 5042TIP3    H115132   0.927   1.929   0.489
 5042TIP3    H215133   0.829   1.911   0.602
 5043TIP3   OH215134   4.144   4.547   3.063
 5043TIP3    H115135   4.079   4.610   3.093
 5043TIP3    H215136   4.168   4.497   3.141
 5044TIP3   OH215137   1.293   2.703   2.997
 5044TIP3    H115138   1.307   2.615   2.963
 5044TIP3    H215139   1.208   2.698   3.041
 5045TIP3   OH215140   5.963   5.364   3.381
 5045TIP3    H115141   5.884   5.355   3.435
 5045TIP3    H215142   5.962   5.457   3.355
 5046TIP3   OH215143   3.997   4.363   3.711
 5046TIP3    H115144   4.066   4.369   3.646
 5046TIP3    H215145   3.968   4.271   3.707
 5047TIP3   OH215146   5.510   5.599   3.634
 5047TIP3    H115147   5.431   5.651   3.615
 5047TIP3    H215148   5.476   5.515   3.666
 5048TIP3   OH215149   0.976   1.565   4.175
 5048TIP3    H115150   0.959   1.530   4.262
 5048TIP3    H215151   0.955   1.493   4.115
 5049TIP3   OH215152   1.693   4.107   1.378
 5049TIP3    H115153   1.631   4.034   1.372
 5049TIP3    H215154   1.722   4.106   1.469
 5050TIP3   OH215155   1.019   3.085   2.609
 5050TIP3    H115156   1.025   3.030   2.531
 5050TIP3    H215157   1.110   3.110   2.628
 5051TIP3   OH215158   5.331   5.995   0.609
 5051TIP3    H115159   5.385   6.000   0.530
 5051TIP3    H215160   5.347   5.908   0.644
 5052TIP3   OH215161   2.963   4.686   5.110
 5052TIP3    H115162   2.934   4.775   5.129
 5052TIP3    H215163   3.044   4.696   5.061
 5053TIP3   OH215164   3.423   1.042   4.973
 5053TIP3    H115165   3.504   1.001   5.005
 5053TIP3    H215166   3.357   0.973   4.980
 5054TIP3   OH215167   4.954   2.345   1.840
 5054TIP3    H115168   4.928   2.267   1.790
 5054TIP3    H215169   4.944   2.417   1.778
 5055TIP3   OH215170   0.201   5.865   4.075
 5055TIP3    H115171   0.210   5.932   4.143
 5055TIP3    H215172   0.273   5.882   4.015
 5056TIP3   OH215173   4.183   0.400   0.946
 5056TIP3    H115174   4.106   0.431   0.900
 5056TIP3    H215175   4.160   0.311   0.974
 5057TIP3   OH215176   5.601   3.134   0.041
 5057TIP3    H115177   5.530   3.175  -0.010
 5057TIP3    H215178   5.681   3.172   0.004
 5058TIP3   OH215179   3.976   4.995   2.175
 5058TIP3    H115180   4.065   4.964   2.190
 5058TIP3    H215181   3.985   5.089   2.158
 5059TIP3   OH215182   4.605   2.672   2.854
 5059TIP3    H115183   4.632   2.580   2.848
 5059TIP3    H215184   4.618   2.695   2.946
 5060TIP3   OH215185   4.123   3.524  -0.017
 5060TIP3    H115186   4.085   3.467   0.050
 5060TIP3    H215187   4.122   3.611   0.022
 5061TIP3   OH215188   2.921   3.191   0.532
 5061TIP3    H115189   2.985   3.214   0.598
 5061TIP3    H215190   2.937   3.098   0.514
 5062TIP3   OH215191   0.301   2.681   0.152
 5062TIP3    H115192   0.303   2.663   0.246
 5062TIP3    H215193   0.319   2.596   0.111
 5063TIP3   OH215194   0.037   2.670   4.091
 5063TIP3    H115195  -0.019   2.711   4.156
 5063TIP3    H215196   0.082   2.600   4.138
 5064TIP3   OH215197   0.129   2.646   3.408
 5064TIP3    H115198   0.041   2.631   3.373
 5064TIP3    H215199   0.119   2.725   3.462
 5065TIP3   OH215200   4.460   3.076   3.913
 5065TIP3    H115201   4.399   3.117   3.974
 5065TIP3    H215202   4.449   2.982   3.928
 5066TIP3   OH215203   0.440   5.216   4.303
 5066TIP3    H115204   0.416   5.308   4.313
 5066TIP3    H215205   0.356   5.171   4.289
 5067TIP3   OH215206   5.230   1.273   4.712
 5067TIP3    H115207   5.280   1.219   4.651
 5067TIP3    H215208   5.139   1.262   4.686
 5068TIP3   OH215209   0.405   1.652   1.599
 5068TIP3    H115210   0.379   1.742   1.582
 5068TIP3    H215211   0.500   1.652   1.585
 5069TIP3   OH215212   4.244   2.617   3.359
 5069TIP3    H115213   4.191   2.541   3.384
 5069TIP3    H215214   4.285   2.590   3.276
 5070TIP3   OH215215   3.032   4.216   3.363
 5070TIP3    H115216   2.963   4.249   3.305
 5070TIP3    H215217   3.112   4.258   3.333
 5071TIP3   OH215218   2.246   5.606   1.464
 5071TIP3    H115219   2.198   5.651   1.533
 5071TIP3    H215220   2.247   5.514   1.491
 5072TIP3   OH215221   2.646   3.009   0.844
 5072TIP3    H115222   2.588   3.043   0.913
 5072TIP3    H215223   2.667   3.085   0.790
 5073TIP3   OH215224   2.380   4.580   0.322
 5073TIP3    H115225   2.368   4.645   0.392
 5073TIP3    H215226   2.426   4.508   0.365
 5074TIP3   OH215227   0.453   1.103   0.157
 5074TIP3    H115228   0.432   1.187   0.197
 5074TIP3    H215229   0.542   1.113   0.124
 5075TIP3   OH215230   1.080   3.813   0.422
 5075TIP3    H115231   1.033   3.755   0.363
 5075TIP3    H215232   1.026   3.892   0.426
 5076TIP3   OH215233   3.992   1.775   3.542
 5076TIP3    H115234   3.912   1.775   3.490
 5076TIP3    H215235   3.993   1.860   3.585
 5077TIP3   OH215236   1.955   5.752   2.923
 5077TIP3    H115237   2.010   5.675   2.906
 5077TIP3    H215238   1.898   5.726   2.995
 5078TIP3   OH215239   0.763   0.641   3.887
 5078TIP3    H115240   0.834   0.626   3.950
 5078TIP3    H215241   0.760   0.736   3.877
 5079TIP3   OH215242   4.892   3.723   3.321
 5079TIP3    H115243   4.871   3.631   3.333
 5079TIP3    H215244   4.889   3.760   3.410
 5080TIP3   OH215245   4.125   4.858   2.679
 5080TIP3    H115246   4.071   4.897   2.747
 5080TIP3    H215247   4.200   4.821   2.726
 5081TIP3   OH215248   3.461   3.789   2.077
 5081TIP3    H115249   3.405   3.759   2.005
 5081TIP3    H215250   3.401   3.796   2.152
 5082TIP3   OH215251   5.254   5.768   0.813
 5082TIP3    H115252   5.285   5.698   0.755
 5082TIP3    H215253   5.322   5.777   0.879
 5083TIP3   OH215254   4.372   0.970   4.194
 5083TIP3    H115255   4.338   0.951   4.107
 5083TIP3    H215256   4.340   0.899   4.249
 5084TIP3   OH215257   5.518   1.347   3.990
 5084TIP3    H115258   5.428   1.380   3.993
 5084TIP3    H215259   5.554   1.367   4.076
 5085TIP3   OH215260   3.645   2.389   4.855
 5085TIP3    H115261   3.587   2.338   4.911
 5085TIP3    H215262   3.587   2.447   4.806
 5086TIP3   OH215263   4.418   0.402   1.997
 5086TIP3    H115264   4.440   0.405   2.090
 5086TIP3    H215265   4.486   0.456   1.955
 5087TIP3   OH215266   5.531   3.007   3.693
 5087TIP3    H115267   5.496   3.070   3.630
 5087TIP3    H215268   5.455   2.961   3.727
 5088TIP3   OH215269   0.003   2.872   0.892
 5088TIP3    H115270  -0.021   2.888   0.983
 5088TIP3    H215271   0.054   2.792   0.894
 5089TIP3   OH215272   3.650   0.003   0.813
 5089TIP3    H115273   3.731  -0.040   0.786
 5089TIP3    H215274   3.628   0.061   0.740
 5090TIP3   OH215275   2.139   4.383   3.369
 5090TIP3    H115276   2.136   4.389   3.274
 5090TIP3    H215277   2.172   4.295   3.387
 5091TIP3   OH215278   0.020   5.164   0.025
 5091TIP3    H115279   0.096   5.111   0.001
 5091TIP3    H215280   0.055   5.234   0.080
 5092TIP3   OH215281   4.415   5.500   4.797
 5092TIP3    H115282   4.427   5.507   4.892
 5092TIP3    H215283   4.339   5.443   4.787
 5093TIP3   OH215284   4.149   5.200   2.461
 5093TIP3    H115285   4.150   5.236   2.372
 5093TIP3    H215286   4.149   5.105   2.448
 5094TIP3   OH215287   5.847   4.285   1.819
 5094TIP3    H115288   5.866   4.378   1.802
 5094TIP3    H215289   5.931   4.249   1.849
 5095TIP3   OH215290   2.605   2.644   4.710
 5095TIP3    H115291   2.568   2.650   4.798
 5095TIP3    H215292   2.530   2.656   4.651
 5096TIP3   OH215293   1.467   5.737   1.986
 5096TIP3    H115294   1.400   5.675   1.956
 5096TIP3    H215295   1.550   5.696   1.962
 5097TIP3   OH215296   2.329   3.752   0.847
 5097TIP3    H115297   2.392   3.743   0.776
 5097TIP3    H215298   2.313   3.846   0.853
 5098TIP3   OH215299   0.121   1.773   0.902
 5098TIP3    H115300   0.188   1.728   0.953
 5098TIP3    H215301   0.147   1.865   0.904
 5099TIP3   OH215302   5.218   4.194   1.867
 5099TIP3    H115303   5.194   4.240   1.947
 5099TIP3    H215304   5.175   4.245   1.797
 5100TIP3   OH215305   4.488   4.592   1.061
 5100TIP3    H115306   4.470   4.677   1.020
 5100TIP3    H215307   4.434   4.530   1.013
 5101TIP3   OH215308   6.153   4.220   2.530
 5101TIP3    H115309   6.187   4.147   2.478
 5101TIP3    H215310   6.208   4.220   2.609
 5102TIP3   OH215311   2.096   4.020   2.109
 5102TIP3    H115312   2.083   4.051   2.199
 5102TIP3    H215313   2.007   4.007   2.075
 5103TIP3   OH215314   3.465   5.180   4.542
 5103TIP3    H115315   3.480   5.227   4.460
 5103TIP3    H215316   3.372   5.157   4.540
 5104TIP3   OH215317   2.741   3.765   5.019
 5104TIP3    H115318   2.673   3.820   5.056
 5104TIP3    H215319   2.733   3.681   5.065
 5105TIP3   OH215320   1.809   3.969   0.895
 5105TIP3    H115321   1.879   3.911   0.867
 5105TIP3    H215322   1.792   3.945   0.986
 5106TIP3   OH215323   2.081   1.044   0.791
 5106TIP3    H115324   2.046   1.054   0.879
 5106TIP3    H215325   2.077   1.131   0.752
 5107TIP3   OH215326   1.877   3.180   0.708
 5107TIP3    H115327   1.839   3.148   0.626
 5107TIP3    H215328   1.846   3.270   0.715
 5108TIP3   OH215329   5.394   0.811   1.678
 5108TIP3    H115330   5.318   0.768   1.638
 5108TIP3    H215331   5.436   0.742   1.730
 5109TIP3   OH215332   5.677   0.267   4.942
 5109TIP3    H115333   5.608   0.202   4.955
 5109TIP3    H215334   5.752   0.233   4.992
 5110TIP3   OH215335   5.679   3.449   2.308
 5110TIP3    H115336   5.647   3.403   2.386
 5110TIP3    H215337   5.651   3.540   2.320
 5111TIP3   OH215338   3.959   0.856   0.983
 5111TIP3    H115339   3.886   0.906   0.947
 5111TIP3    H215340   3.918   0.799   1.048
 5112TIP3   OH215341   3.945   0.384   3.541
 5112TIP3    H115342   3.931   0.310   3.481
 5112TIP3    H215343   4.039   0.402   3.535
 5113TIP3   OH215344   4.846   3.145   0.278
 5113TIP3    H115345   4.900   3.213   0.238
 5113TIP3    H215346   4.758   3.183   0.280
 5114TIP3   OH215347   2.791   3.369   0.957
 5114TIP3    H115348   2.886   3.352   0.962
 5114TIP3    H215349   2.752   3.301   1.012
 5115TIP3   OH215350   3.592   4.921   0.575
 5115TIP3    H115351   3.512   4.938   0.524
 5115TIP3    H215352   3.567   4.940   0.665
 5116TIP3   OH215353   4.851   3.430   1.417
 5116TIP3    H115354   4.929   3.484   1.407
 5116TIP3    H215355   4.778   3.491   1.414
 5117TIP3   OH215356   5.464   3.951   1.742
 5117TIP3    H115357   5.423   3.994   1.818
 5117TIP3    H215358   5.521   4.019   1.705
 5118TIP3   OH215359   1.153   0.984   0.632
 5118TIP3    H115360   1.222   1.021   0.687
 5118TIP3    H215361   1.200   0.937   0.563
 5119TIP3   OH215362   5.378   2.935   2.920
 5119TIP3    H115363   5.392   3.008   2.980
 5119TIP3    H215364   5.327   2.973   2.848
 5120TIP3   OH215365   1.562   2.386   1.871
 5120TIP3    H115366   1.630   2.431   1.821
 5120TIP3    H215367   1.530   2.318   1.812
 5121TIP3   OH215368   5.351   3.262   1.711
 5121TIP3    H115369   5.277   3.230   1.763
 5121TIP3    H215370   5.369   3.192   1.649
 5122TIP3   OH215371   0.073   3.806   3.987
 5122TIP3    H115372   0.112   3.883   3.946
 5122TIP3    H215373   0.144   3.741   3.988
 5123TIP3   OH215374   2.026   4.332   4.124
 5123TIP3    H115375   1.998   4.351   4.214
 5123TIP3    H215376   1.960   4.270   4.092
 5124TIP3   OH215377   1.257   2.613   2.574
 5124TIP3    H115378   1.208   2.565   2.640
 5124TIP3    H215379   1.349   2.599   2.596
 5125TIP3   OH215380   3.098   1.006   0.981
 5125TIP3    H115381   3.049   1.066   1.038
 5125TIP3    H215382   3.066   0.919   1.004
 5126TIP3   OH215383   1.876   3.521   1.313
 5126TIP3    H115384   1.788   3.558   1.308
 5126TIP3    H215385   1.924   3.565   1.243
 5127TIP3   OH215386   0.176   3.842   0.438
 5127TIP3    H115387   0.194   3.754   0.472
 5127TIP3    H215388   0.174   3.897   0.516
 5128TIP3   OH215389   5.720   4.912   4.701
 5128TIP3    H115390   5.682   4.907   4.613
 5128TIP3    H215391   5.737   5.005   4.715
 5129TIP3   OH215392   5.258   3.718   4.339
 5129TIP3    H115393   5.237   3.659   4.266
 5129TIP3    H215394   5.345   3.752   4.317
 5130TIP3   OH215395   5.394   4.734   4.456
 5130TIP3    H115396   5.420   4.812   4.407
 5130TIP3    H215397   5.301   4.724   4.437
 5131TIP3   OH215398   2.934   5.629   5.005
 5131TIP3    H115399   3.022   5.666   5.007
 5131TIP3    H215400   2.917   5.610   4.913
 5132TIP3   OH215401   2.752   1.597   3.154
 5132TIP3    H115402   2.757   1.589   3.059
 5132TIP3    H215403   2.707   1.680   3.169
 5133TIP3   OH215404   2.884   1.438   2.137
 5133TIP3    H115405   2.957   1.495   2.160
 5133TIP3    H215406   2.894   1.423   2.043
 5134TIP3   OH215407   3.203   2.253   4.971
 5134TIP3    H115408   3.166   2.167   4.950
 5134TIP3    H215409   3.141   2.315   4.933
 5135TIP3   OH215410   5.736   0.350   3.152
 5135TIP3    H115411   5.784   0.427   3.122
 5135TIP3    H215412   5.708   0.373   3.241
 5136TIP3   OH215413   0.823   1.822   1.458
 5136TIP3    H115414   0.749   1.777   1.500
 5136TIP3    H215415   0.890   1.754   1.449
 5137TIP3   OH215416   1.045   5.053   3.815
 5137TIP3    H115417   1.032   5.032   3.723
 5137TIP3    H215418   1.134   5.086   3.820
 5138TIP3   OH215419   4.559   0.163   4.751
 5138TIP3    H115420   4.514   0.099   4.806
 5138TIP3    H215421   4.557   0.244   4.803
 5139TIP3   OH215422   4.397   1.224   2.953
 5139TIP3    H115423   4.457   1.231   3.027
 5139TIP3    H215424   4.334   1.295   2.967
 5140TIP3   OH215425   4.697   2.257   0.629
 5140TIP3    H115426   4.763   2.197   0.595
 5140TIP3    H215427   4.644   2.204   0.688
 5141TIP3   OH215428   2.744   0.603   1.346
 5141TIP3    H115429   2.777   0.523   1.305
 5141TIP3    H215430   2.795   0.612   1.426
 5142TIP3   OH215431   2.542   3.275   2.050
 5142TIP3    H115432   2.594   3.195   2.057
 5142TIP3    H215433   2.493   3.279   2.133
 5143TIP3   OH215434   0.958   0.899   2.412
 5143TIP3    H115435   0.916   0.816   2.433
 5143TIP3    H215436   1.016   0.879   2.338
 5144TIP3   OH215437   5.099   0.709   1.709
 5144TIP3    H115438   5.093   0.789   1.761
 5144TIP3    H215439   5.040   0.724   1.635
 5145TIP3   OH215440   5.060   2.743   3.221
 5145TIP3    H115441   5.050   2.808   3.151
 5145TIP3    H215442   4.981   2.752   3.274
 5146TIP3   OH215443   0.027   1.669   2.892
 5146TIP3    H115444  -0.006   1.747   2.848
 5146TIP3    H215445   0.105   1.644   2.841
 5147TIP3   OH215446   2.970   0.477   1.061
 5147TIP3    H115447   2.884   0.497   1.024
 5147TIP3    H215448   2.952   0.416   1.132
 5148TIP3   OH215449   0.631   5.844   1.696
 5148TIP3    H115450   0.654   5.771   1.639
 5148TIP3    H215451   0.654   5.814   1.784
 5149TIP3   OH215452   0.947   3.925   0.751
 5149TIP3    H115453   0.936   3.981   0.674
 5149TIP3    H215454   1.024   3.961   0.796
 5150TIP3   OH215455   5.392   3.093   0.601
 5150TIP3    H115456   5.303   3.087   0.567
 5150TIP3    H215457   5.402   3.185   0.625
 5151TIP3   OH215458   4.763   5.434   3.122
 5151TIP3    H115459   4.682   5.389   3.098
 5151TIP3    H215460   4.752   5.523   3.092
 5152TIP3   OH215461   5.173   4.553   4.184
 5152TIP3    H115462   5.132   4.467   4.192
 5152TIP3    H215463   5.153   4.596   4.267
 5153TIP3   OH215464   2.911   1.322   3.480
 5153TIP3    H115465   2.978   1.311   3.412
 5153TIP3    H215466   2.868   1.237   3.484
 5154TIP3   OH215467   5.362   2.463   2.009
 5154TIP3    H115468   5.310   2.466   2.090
 5154TIP3    H215469   5.391   2.553   1.995
 5155TIP3   OH215470   3.503   4.798   2.347
 5155TIP3    H115471   3.560   4.843   2.285
 5155TIP3    H215472   3.438   4.864   2.372
 5156TIP3   OH215473   0.345   0.523   1.154
 5156TIP3    H115474   0.362   0.490   1.242
 5156TIP3    H215475   0.406   0.597   1.145
 5157TIP3   OH215476   5.551   2.190   2.181
 5157TIP3    H115477   5.511   2.169   2.097
 5157TIP3    H215478   5.479   2.189   2.243
 5158TIP3   OH215479   4.047   0.621   1.355
 5158TIP3    H115480   4.072   0.533   1.386
 5158TIP3    H215481   3.953   0.615   1.340
 5159TIP3   OH215482   2.443   1.206   0.892
 5159TIP3    H115483   2.378   1.267   0.927
 5159TIP3    H215484   2.494   1.179   0.968
 5160TIP3   OH215485   5.579   5.861   3.942
 5160TIP3    H115486   5.495   5.897   3.915
 5160TIP3    H215487   5.556   5.777   3.984
 5161TIP3   OH215488   4.502   2.689   2.158
 5161TIP3    H115489   4.449   2.650   2.228
 5161TIP3    H215490   4.592   2.661   2.178
 5162TIP3   OH215491   3.512   1.637   3.239
 5162TIP3    H115492   3.527   1.588   3.320
 5162TIP3    H215493   3.418   1.656   3.240
 5163TIP3   OH215494   6.199   4.412   1.777
 5163TIP3    H115495   6.240   4.406   1.691
 5163TIP3    H215496   6.198   4.505   1.797
 5164TIP3   OH215497   2.162   1.494   1.058
 5164TIP3    H115498   2.245   1.476   1.103
 5164TIP3    H215499   2.152   1.589   1.064
 5165TIP3   OH215500   1.167   4.823   4.014
 5165TIP3    H115501   1.242   4.773   3.983
 5165TIP3    H215502   1.105   4.820   3.942
 5166TIP3   OH215503   2.980   0.777   1.077
 5166TIP3    H115504   3.042   0.777   1.150
 5166TIP3    H215505   2.944   0.689   1.077
 5167TIP3   OH215506   3.750   4.854   0.955
 5167TIP3    H115507   3.783   4.916   0.891
 5167TIP3    H215508   3.827   4.804   0.982
 5168TIP3   OH215509   2.024   3.955   3.267
 5168TIP3    H115510   2.009   3.865   3.298
 5168TIP3    H215511   1.989   3.955   3.178
 5169TIP3   OH215512   0.380   3.037   5.123
 5169TIP3    H115513   0.473   3.019   5.108
 5169TIP3    H215514   0.341   2.951   5.137
 5170TIP3   OH215515   0.702   0.230   3.590
 5170TIP3    H115516   0.773   0.188   3.639
 5170TIP3    H215517   0.635   0.247   3.656
 5171TIP3   OH215518   6.219   0.093   4.683
 5171TIP3    H115519   6.281   0.032   4.642
 5171TIP3    H215520   6.257   0.179   4.669
 5172TIP3   OH215521   4.525   0.785   2.173
 5172TIP3    H115522   4.588   0.853   2.199
 5172TIP3    H215523   4.576   0.705   2.170
 5173TIP3   OH215524   0.607   0.841   0.904
 5173TIP3    H115525   0.643   0.761   0.865
 5173TIP3    H215526   0.665   0.911   0.873
 5174TIP3   OH215527   5.534   3.464   0.038
 5174TIP3    H115528   5.576   3.380   0.016
 5174TIP3    H215529   5.579   3.493   0.117
 5175TIP3   OH215530   5.560   1.162   2.975
 5175TIP3    H115531   5.605   1.077   2.976
 5175TIP3    H215532   5.507   1.162   3.055
 5176TIP3   OH215533   2.713   4.750   1.839
 5176TIP3    H115534   2.698   4.732   1.746
 5176TIP3    H215535   2.671   4.835   1.854
 5177TIP3   OH215536   4.923   2.789   1.014
 5177TIP3    H115537   4.910   2.876   1.053
 5177TIP3    H215538   4.973   2.806   0.933
 5178TIP3   OH215539   3.496   1.411   4.784
 5178TIP3    H115540   3.528   1.479   4.844
 5178TIP3    H215541   3.449   1.460   4.716
 5179TIP3   OH215542   3.585   1.187   1.490
 5179TIP3    H115543   3.550   1.114   1.439
 5179TIP3    H215544   3.623   1.146   1.568
 5180TIP3   OH215545   2.575   5.341   3.628
 5180TIP3    H115546   2.517   5.355   3.553
 5180TIP3    H215547   2.663   5.339   3.590
 5181TIP3   OH215548   4.630   1.917   0.460
 5181TIP3    H115549   4.672   1.925   0.545
 5181TIP3    H215550   4.638   2.004   0.421
 5182TIP3   OH215551   2.125   2.723   0.490
 5182TIP3    H115552   2.120   2.770   0.574
 5182TIP3    H215553   2.044   2.745   0.445
 5183TIP3   OH215554   6.006   1.415   5.111
 5183TIP3    H115555   5.946   1.373   5.048
 5183TIP3    H215556   5.956   1.417   5.193
 5184TIP3   OH215557   2.750   2.891   4.835
 5184TIP3    H115558   2.697   2.969   4.849
 5184TIP3    H215559   2.746   2.876   4.740
 5185TIP3   OH215560   1.191   2.499   1.646
 5185TIP3    H115561   1.134   2.423   1.643
 5185TIP3    H215562   1.242   2.489   1.726
 5186TIP3   OH215563   3.942   2.084   0.630
 5186TIP3    H115564   3.952   2.171   0.668
 5186TIP3    H215565   3.849   2.078   0.608
 5187TIP3   OH215566   3.296   2.184   2.132
 5187TIP3    H115567   3.278   2.167   2.224
 5187TIP3    H215568   3.390   2.202   2.128
 5188TIP3   OH215569   6.326   5.532   3.778
 5188TIP3    H115570   6.306   5.604   3.837
 5188TIP3    H215571   6.241   5.506   3.742
 5189TIP3   OH215572   5.048   4.705   3.516
 5189TIP3    H115573   5.009   4.663   3.439
 5189TIP3    H215574   5.128   4.655   3.532
 5190TIP3   OH215575   3.165   4.629   2.697
 5190TIP3    H115576   3.123   4.599   2.617
 5190TIP3    H215577   3.240   4.571   2.709
 5191TIP3   OH215578   2.426   0.756   4.767
 5191TIP3    H115579   2.465   0.816   4.703
 5191TIP3    H215580   2.498   0.731   4.824
 5192TIP3   OH215581   3.223   1.432   4.014
 5192TIP3    H115582   3.279   1.357   4.035
 5192TIP3    H215583   3.193   1.463   4.099
 5193TIP3   OH215584   5.861   1.316   4.800
 5193TIP3    H115585   5.831   1.280   4.716
 5193TIP3    H215586   5.782   1.320   4.854
 5194TIP3   OH215587   6.014   0.680   4.390
 5194TIP3    H115588   6.100   0.655   4.356
 5194TIP3    H215589   6.008   0.774   4.373
 5195TIP3   OH215590   3.220   0.857   3.013
 5195TIP3    H115591   3.289   0.853   3.080
 5195TIP3    H215592   3.261   0.903   2.940
 5196TIP3   OH215593   4.082   3.505   2.028
 5196TIP3    H115594   4.037   3.504   2.113
 5196TIP3    H215595   4.077   3.415   1.998
 5197TIP3   OH215596   5.317   4.923   2.865
 5197TIP3    H115597   5.249   4.956   2.805
 5197TIP3    H215598   5.276   4.849   2.909
 5198TIP3   OH215599   4.263   3.499   5.167
 5198TIP3    H115600   4.277   3.404   5.164
 5198TIP3    H215601   4.281   3.529   5.078
 5199TIP3   OH215602   4.819   0.191   1.903
 5199TIP3    H115603   4.743   0.204   1.847
 5199TIP3    H215604   4.891   0.173   1.843
 5200TIP3   OH215605   0.754   2.202   0.462
 5200TIP3    H115606   0.770   2.109   0.478
 5200TIP3    H215607   0.799   2.247   0.533
 5201TIP3   OH215608   3.372   4.985   3.231
 5201TIP3    H115609   3.424   4.915   3.269
 5201TIP3    H215610   3.380   4.972   3.137
 5202TIP3   OH215611   2.379   1.209   2.314
 5202TIP3    H115612   2.468   1.178   2.300
 5202TIP3    H215613   2.330   1.131   2.339
 5203TIP3   OH215614   2.617   5.546   5.141
 5203TIP3    H115615   2.634   5.621   5.084
 5203TIP3    H215616   2.574   5.482   5.084
 5204TIP3   OH215617   0.356   0.279   4.489
 5204TIP3    H115618   0.442   0.315   4.512
 5204TIP3    H215619   0.300   0.356   4.480
 5205TIP3   OH215620   2.713   0.568   1.029
 5205TIP3    H115621   2.636   0.510   1.037
 5205TIP3    H215622   2.714   0.593   0.937
 5206TIP3   OH215623   2.185  -0.029   2.376
 5206TIP3    H115624   2.218   0.049   2.420
 5206TIP3    H215625   2.195  -0.011   2.282
 5207TIP3   OH215626   3.198   0.271   0.778
 5207TIP3    H115627   3.146   0.290   0.700
 5207TIP3    H215628   3.139   0.223   0.836
 5208TIP3   OH215629   1.065   1.872   1.773
 5208TIP3    H115630   1.033   1.782   1.780
 5208TIP3    H215631   1.149   1.863   1.726
 5209TIP3   OH215632   2.731   5.481   1.088
 5209TIP3    H115633   2.770   5.431   1.160
 5209TIP3    H215634   2.754   5.432   1.009
 5210TIP3   OH215635   3.758   1.073   2.826
 5210TIP3    H115636   3.694   1.067   2.897
 5210TIP3    H215637   3.743   1.159   2.788
 5211TIP3   OH215638   3.295   2.773   0.454
 5211TIP3    H115639   3.368   2.711   0.451
 5211TIP3    H215640   3.293   2.803   0.545
 5212TIP3   OH215641   4.077   2.272   4.979
 5212TIP3    H115642   4.060   2.180   4.958
 5212TIP3    H215643   4.168   2.273   5.011
 5213TIP3   OH215644   6.165   4.984   2.958
 5213TIP3    H115645   6.078   4.944   2.964
 5213TIP3    H215646   6.150   5.077   2.976
 5214TIP3   OH215647   0.185   2.320   4.486
 5214TIP3    H115648   0.258   2.369   4.523
 5214TIP3    H215649   0.227   2.251   4.434
 5215TIP3   OH215650   4.634   3.256   4.925
 5215TIP3    H115651   4.622   3.279   4.833
 5215TIP3    H215652   4.638   3.160   4.926
 5216TIP3   OH215653   5.207   2.459   0.606
 5216TIP3    H115654   5.284   2.448   0.549
 5216TIP3    H215655   5.232   2.417   0.688
 5217TIP3   OH215656   4.038   0.031   4.791
 5217TIP3    H115657   4.041  -0.049   4.739
 5217TIP3    H215658   3.944   0.047   4.805
 5218TIP3   OH215659   2.039   5.083   1.514
 5218TIP3    H115660   1.956   5.114   1.477
 5218TIP3    H215661   2.101   5.154   1.499
 5219TIP3   OH215662   1.325   5.256   2.451
 5219TIP3    H115663   1.294   5.197   2.520
 5219TIP3    H215664   1.280   5.339   2.468
 5220TIP3   OH215665   0.749   4.516   1.424
 5220TIP3    H115666   0.795   4.443   1.466
 5220TIP3    H215667   0.657   4.502   1.444
 5221TIP3   OH215668   3.002   5.527   1.368
 5221TIP3    H115669   2.969   5.504   1.281
 5221TIP3    H215670   2.991   5.447   1.420
 5222TIP3   OH215671   2.501   4.022   1.828
 5222TIP3    H115672   2.576   4.057   1.780
 5222TIP3    H215673   2.526   4.028   1.920
 5223TIP3   OH215674   2.958   1.715   4.030
 5223TIP3    H115675   3.016   1.730   4.104
 5223TIP3    H215676   2.941   1.803   3.995
 5224TIP3   OH215677   5.610   2.761   4.329
 5224TIP3    H115678   5.637   2.697   4.395
 5224TIP3    H215679   5.515   2.770   4.342
 5225TIP3   OH215680   0.385   2.652   0.939
 5225TIP3    H115681   0.363   2.731   0.889
 5225TIP3    H215682   0.315   2.644   1.004
 5226TIP3   OH215683   2.930   1.053   1.580
 5226TIP3    H115684   2.869   1.079   1.649
 5226TIP3    H215685   3.016   1.078   1.614
 5227TIP3   OH215686   0.665   1.214   5.039
 5227TIP3    H115687   0.605   1.275   5.082
 5227TIP3    H215688   0.609   1.164   4.979
 5228TIP3   OH215689   3.539   4.022   4.831
 5228TIP3    H115690   3.525   3.927   4.838
 5228TIP3    H215691   3.515   4.056   4.917
 5229TIP3   OH215692   0.548   5.921   2.383
 5229TIP3    H115693   0.601   6.001   2.393
 5229TIP3    H215694   0.500   5.934   2.302
 5230TIP3   OH215695   5.761   1.455   2.311
 5230TIP3    H115696   5.816   1.376   2.304
 5230TIP3    H215697   5.686   1.437   2.255
 5231TIP3   OH215698   6.060   4.599   1.475
 5231TIP3    H115699   6.132   4.567   1.530
 5231TIP3    H215700   6.013   4.520   1.449
 5232TIP3   OH215701   4.378   2.048   4.928
 5232TIP3    H115702   4.465   2.047   4.968
 5232TIP3    H215703   4.342   1.961   4.946
 5233TIP3   OH215704   0.402   0.035   1.732
 5233TIP3    H115705   0.416   0.022   1.825
 5233TIP3    H215706   0.441   0.121   1.714
 5234TIP3   OH215707   6.315   1.746   4.407
 5234TIP3    H115708   6.295   1.669   4.460
 5234TIP3    H215709   6.389   1.787   4.452
 5235TIP3   OH215710   2.532   2.181   0.713
 5235TIP3    H115711   2.520   2.249   0.647
 5235TIP3    H215712   2.443   2.160   0.741
 5236TIP3   OH215713   3.968   2.867   2.638
 5236TIP3    H115714   3.953   2.942   2.695
 5236TIP3    H215715   4.022   2.902   2.567
 5237TIP3   OH215716   0.546   0.560   2.371
 5237TIP3    H115717   0.521   0.496   2.304
 5237TIP3    H215718   0.502   0.530   2.450
 5238TIP3   OH215719   2.003   0.079   3.631
 5238TIP3    H115720   1.912   0.109   3.632
 5238TIP3    H215721   2.026   0.068   3.724
 5239TIP3   OH215722   2.922   4.634   4.029
 5239TIP3    H115723   2.869   4.711   4.048
 5239TIP3    H215724   2.921   4.627   3.934
 5240TIP3   OH215725   4.731   1.364   2.283
 5240TIP3    H115726   4.758   1.452   2.256
 5240TIP3    H215727   4.643   1.377   2.321
 5241TIP3   OH215728   5.805   0.219   2.048
 5241TIP3    H115729   5.714   0.190   2.044
 5241TIP3    H215730   5.813   0.284   1.978
 5242TIP3   OH215731   1.195   5.197   4.443
 5242TIP3    H115732   1.157   5.171   4.527
 5242TIP3    H215733   1.289   5.202   4.459
 5243TIP3   OH215734   3.295   1.319   0.467
 5243TIP3    H115735   3.293   1.269   0.548
 5243TIP3    H215736   3.205   1.315   0.434
 5244TIP3   OH215737   0.793   3.312   4.175
 5244TIP3    H115738   0.808   3.312   4.270
 5244TIP3    H215739   0.867   3.263   4.139
 5245TIP3   OH215740   2.453   3.978   4.037
 5245TIP3    H115741   2.416   3.966   3.950
 5245TIP3    H215742   2.546   3.993   4.022
 5246TIP3   OH215743   2.089   3.553   3.824
 5246TIP3    H115744   2.048   3.473   3.856
 5246TIP3    H215745   2.062   3.560   3.733
 5247TIP3   OH215746   1.299   5.724   0.464
 5247TIP3    H115747   1.349   5.653   0.505
 5247TIP3    H215748   1.334   5.728   0.375
 5248TIP3   OH215749   2.335   1.581   5.061
 5248TIP3    H115750   2.344   1.676   5.066
 5248TIP3    H215751   2.263   1.560   5.120
 5249TIP3   OH215752   3.631   0.945   5.122
 5249TIP3    H115753   3.620   0.868   5.177
 5249TIP3    H215754   3.722   0.942   5.093
 5250TIP3   OH215755   4.221   5.810   1.356
 5250TIP3    H115756   4.204   5.735   1.413
 5250TIP3    H215757   4.155   5.802   1.287
 5251TIP3   OH215758   2.838   1.197   4.628
 5251TIP3    H115759   2.765   1.248   4.594
 5251TIP3    H215760   2.802   1.110   4.642
 5252TIP3   OH215761   4.770   3.723   4.168
 5252TIP3    H115762   4.853   3.736   4.123
 5252TIP3    H215763   4.723   3.660   4.114
 5253TIP3   OH215764   6.156   0.589   3.123
 5253TIP3    H115765   6.229   0.579   3.061
 5253TIP3    H215766   6.197   0.581   3.209
 5254TIP3   OH215767   2.879   3.989   4.986
 5254TIP3    H115768   2.849   3.899   4.980
 5254TIP3    H215769   2.968   3.987   4.950
 5255TIP3   OH215770   4.033   3.682   0.884
 5255TIP3    H115771   4.112   3.632   0.907
 5255TIP3    H215772   4.053   3.719   0.798
 5256TIP3   OH215773   1.594   3.755   2.549
 5256TIP3    H115774   1.612   3.786   2.460
 5256TIP3    H215775   1.550   3.671   2.537
 5257TIP3   OH215776   3.976   4.330   1.486
 5257TIP3    H115777   3.906   4.396   1.482
 5257TIP3    H215778   3.932   4.247   1.468
 5258TIP3   OH215779   3.664   0.628   2.329
 5258TIP3    H115780   3.656   0.616   2.235
 5258TIP3    H215781   3.598   0.570   2.367
 5259TIP3   OH215782   2.737   5.269   3.174
 5259TIP3    H115783   2.751   5.263   3.080
 5259TIP3    H215784   2.666   5.333   3.184
 5260TIP3   OH215785   2.068   4.857   0.826
 5260TIP3    H115786   2.128   4.924   0.793
 5260TIP3    H215787   2.072   4.787   0.761
 5261TIP3   OH215788   0.949   0.145   1.426
 5261TIP3    H115789   0.907   0.126   1.342
 5261TIP3    H215790   0.961   0.059   1.467
 5262TIP3   OH215791   0.425   2.335   1.355
 5262TIP3    H115792   0.408   2.290   1.438
 5262TIP3    H215793   0.419   2.428   1.376
 5263TIP3   OH215794   3.703   1.628   4.514
 5263TIP3    H115795   3.669   1.555   4.462
 5263TIP3    H215796   3.797   1.629   4.494
 5264TIP3   OH215797   4.644   5.938   0.245
 5264TIP3    H115798   4.728   5.983   0.236
 5264TIP3    H215799   4.623   5.909   0.156
 5265TIP3   OH215800   0.776   0.914   3.856
 5265TIP3    H115801   0.683   0.913   3.877
 5265TIP3    H215802   0.782   0.963   3.774
 5266TIP3   OH215803   6.056   3.594   0.663
 5266TIP3    H115804   6.084   3.590   0.571
 5266TIP3    H215805   6.092   3.677   0.694
 5267TIP3   OH215806   0.809   5.966   4.341
 5267TIP3    H115807   0.796   6.003   4.254
 5267TIP3    H215808   0.868   6.026   4.385
 5268TIP3   OH215809   1.750   0.744   2.245
 5268TIP3    H115810   1.683   0.719   2.182
 5268TIP3    H215811   1.812   0.671   2.244
 5269TIP3   OH215812   4.425   3.867   1.273
 5269TIP3    H115813   4.441   3.915   1.355
 5269TIP3    H215814   4.458   3.925   1.205
 5270TIP3   OH215815   5.075   5.573   1.585
 5270TIP3    H115816   4.990   5.561   1.627
 5270TIP3    H215817   5.136   5.589   1.657
 5271TIP3   OH215818   3.071  -0.036   2.236
 5271TIP3    H115819   3.114  -0.077   2.161
 5271TIP3    H215820   3.138  -0.035   2.305
 5272TIP3   OH215821   6.324   5.774   3.586
 5272TIP3    H115822   6.241   5.747   3.625
 5272TIP3    H215823   6.347   5.855   3.632
 5273TIP3   OH215824   6.159   3.950   4.357
 5273TIP3    H115825   6.123   4.036   4.336
 5273TIP3    H215826   6.092   3.908   4.411
 5274TIP3   OH215827   5.074   1.572   3.413
 5274TIP3    H115828   4.984   1.592   3.436
 5274TIP3    H215829   5.111   1.531   3.491
 5275TIP3   OH215830   4.879   1.491   2.630
 5275TIP3    H115831   4.892   1.569   2.683
 5275TIP3    H215832   4.963   1.445   2.633
 5276TIP3   OH215833   1.171   4.391   1.916
 5276TIP3    H115834   1.119   4.458   1.872
 5276TIP3    H215835   1.248   4.380   1.859
 5277TIP3   OH215836   5.892   1.648   2.927
 5277TIP3    H115837   5.955   1.610   2.988
 5277TIP3    H215838   5.935   1.643   2.842
 5278TIP3   OH215839   1.486   4.793   1.903
 5278TIP3    H115840   1.477   4.882   1.870
 5278TIP3    H215841   1.397   4.759   1.906
 5279TIP3   OH215842   6.238   0.994   0.838
 5279TIP3    H115843   6.263   0.994   0.746
 5279TIP3    H215844   6.160   1.049   0.842
 5280TIP3   OH215845   4.779   2.152   4.483
 5280TIP3    H115846   4.795   2.222   4.547
 5280TIP3    H215847   4.689   2.125   4.500
 5281TIP3   OH215848   5.681   5.892   1.378
 5281TIP3    H115849   5.761   5.905   1.326
 5281TIP3    H215850   5.701   5.816   1.433
 5282TIP3   OH215851   1.066   2.847   4.982
 5282TIP3    H115852   1.119   2.867   5.059
 5282TIP3    H215853   1.100   2.762   4.952
 5283TIP3   OH215854   4.127   5.670   2.730
 5283TIP3    H115855   4.198   5.724   2.696
 5283TIP3    H215856   4.073   5.730   2.782
 5284TIP3   OH215857   1.311   1.111   1.284
 5284TIP3    H115858   1.396   1.149   1.261
 5284TIP3    H215859   1.331   1.045   1.350
 5285TIP3   OH215860   4.182   0.743   0.840
 5285TIP3    H115861   4.194   0.664   0.787
 5285TIP3    H215862   4.092   0.736   0.873
 5286TIP3   OH215863   6.208   5.420   1.986
 5286TIP3    H115864   6.161   5.503   1.985
 5286TIP3    H215865   6.154   5.361   1.932
 5287TIP3   OH215866   2.663   1.080   2.307
 5287TIP3    H115867   2.653   0.997   2.352
 5287TIP3    H215868   2.739   1.067   2.249
 5288TIP3   OH215869   3.682   3.130   0.445
 5288TIP3    H115870   3.742   3.056   0.449
 5288TIP3    H215871   3.609   3.099   0.391
 5289TIP3   OH215872   4.641   1.336   5.103
 5289TIP3    H115873   4.669   1.268   5.042
 5289TIP3    H215874   4.597   1.289   5.173
 5290TIP3   OH215875   5.709   2.699   3.490
 5290TIP3    H115876   5.653   2.756   3.437
 5290TIP3    H215877   5.785   2.753   3.511
 5291TIP3   OH215878   3.752   1.339   1.958
 5291TIP3    H115879   3.777   1.256   1.999
 5291TIP3    H215880   3.827   1.362   1.904
 5292TIP3   OH215881   0.074   1.837   2.119
 5292TIP3    H115882  -0.005   1.891   2.118
 5292TIP3    H215883   0.059   1.774   2.189
 5293TIP3   OH215884   4.460   4.315   2.832
 5293TIP3    H115885   4.447   4.237   2.885
 5293TIP3    H215886   4.546   4.303   2.791
 5294TIP3   OH215887   5.777   5.601   1.132
 5294TIP3    H115888   5.727   5.681   1.148
 5294TIP3    H215889   5.712   5.535   1.111
 5295TIP3   OH215890   5.735   2.416   0.364
 5295TIP3    H115891   5.740   2.342   0.425
 5295TIP3    H215892   5.758   2.378   0.279
 5296TIP3   OH215893   5.253   4.813   3.911
 5296TIP3    H115894   5.314   4.815   3.984
 5296TIP3    H215895   5.309   4.809   3.833
 5297TIP3   OH215896   2.069   5.686   1.660
 5297TIP3    H115897   2.058   5.781   1.660
 5297TIP3    H215898   1.981   5.651   1.675
 5298TIP3   OH215899   3.542   1.970   2.291
 5298TIP3    H115900   3.449   1.980   2.308
 5298TIP3    H215901   3.581   2.052   2.320
 5299TIP3   OH215902   1.381   0.347   2.665
 5299TIP3    H115903   1.472   0.341   2.637
 5299TIP3    H215904   1.333   0.366   2.584
 5300TIP3   OH215905   2.431   2.728   4.518
 5300TIP3    H115906   2.353   2.740   4.572
 5300TIP3    H215907   2.408   2.767   4.434
 5301TIP3   OH215908   5.534   4.408   2.633
 5301TIP3    H115909   5.593   4.483   2.628
 5301TIP3    H215910   5.579   4.345   2.689
 5302TIP3   OH215911   2.607   0.766   4.237
 5302TIP3    H115912   2.591   0.790   4.328
 5302TIP3    H215913   2.579   0.842   4.186
 5303TIP3   OH215914   3.657   2.166   3.377
 5303TIP3    H115915   3.629   2.093   3.432
 5303TIP3    H215916   3.583   2.181   3.318
 5304TIP3   OH215917   6.275   0.470   3.695
 5304TIP3    H115918   6.185   0.461   3.665
 5304TIP3    H215919   6.317   0.388   3.668
 5305TIP3   OH215920   3.209   3.477   1.968
 5305TIP3    H115921   3.286   3.444   1.921
 5305TIP3    H215922   3.229   3.464   2.060
 5306TIP3   OH215923   1.959   3.973   1.307
 5306TIP3    H115924   1.866   3.979   1.326
 5306TIP3    H215925   1.998   4.045   1.356
 5307TIP3   OH215926   2.965   5.571   3.356
 5307TIP3    H115927   2.916   5.544   3.434
 5307TIP3    H215928   2.898   5.606   3.297
 5308TIP3   OH215929   1.444   2.959   4.148
 5308TIP3    H115930   1.396   2.877   4.132
 5308TIP3    H215931   1.527   2.931   4.187
 5309TIP3   OH215932   4.598   0.954   4.600
 5309TIP3    H115933   4.503   0.942   4.606
 5309TIP3    H215934   4.630   0.871   4.566
 5310TIP3   OH215935   5.175  -0.045   1.800
 5310TIP3    H115936   5.228   0.034   1.811
 5310TIP3    H215937   5.094  -0.013   1.759
 5311TIP3   OH215938   5.617   1.167   0.113
 5311TIP3    H115939   5.533   1.126   0.134
 5311TIP3    H215940   5.682   1.110   0.153
 5312TIP3   OH215941   0.716   0.335   2.373
 5312TIP3    H115942   0.700   0.410   2.431
 5312TIP3    H215943   0.638   0.330   2.318
 5313TIP3   OH215944   2.867   0.265   4.233
 5313TIP3    H115945   2.890   0.202   4.164
 5313TIP3    H215946   2.940   0.258   4.295
 5314TIP3   OH215947   3.590   5.533   0.683
 5314TIP3    H115948   3.539   5.510   0.761
 5314TIP3    H215949   3.566   5.624   0.665
 5315TIP3   OH215950   1.291   4.980   3.357
 5315TIP3    H115951   1.264   4.989   3.266
 5315TIP3    H215952   1.247   5.052   3.402
 5316TIP3   OH215953   2.975   3.893   2.781
 5316TIP3    H115954   2.905   3.901   2.846
 5316TIP3    H215955   2.930   3.901   2.697
 5317TIP3   OH215956   0.832   0.400   3.091
 5317TIP3    H115957   0.866   0.334   3.151
 5317TIP3    H215958   0.901   0.466   3.085
 5318TIP3   OH215959   4.011   0.021   2.955
 5318TIP3    H115960   4.057   0.031   3.038
 5318TIP3    H215961   4.028  -0.070   2.929
 5319TIP3   OH215962   1.304   2.394   3.064
 5319TIP3    H115963   1.276   2.352   3.145
 5319TIP3    H215964   1.261   2.345   2.995
 5320TIP3   OH215965   0.091   1.126   0.292
 5320TIP3    H115966   0.136   1.207   0.316
 5320TIP3    H215967   0.149   1.056   0.323
 5321TIP3   OH215968   2.047   1.001   0.329
 5321TIP3    H115969   1.987   1.011   0.255
 5321TIP3    H215970   2.134   1.006   0.291
 5322TIP3   OH215971   4.576   3.729   3.125
 5322TIP3    H115972   4.586   3.808   3.178
 5322TIP3    H215973   4.658   3.722   3.077
 5323TIP3   OH215974   1.814   1.630   1.993
 5323TIP3    H115975   1.761   1.604   1.917
 5323TIP3    H215976   1.904   1.614   1.966
 5324TIP3   OH215977   5.050   0.076   2.669
 5324TIP3    H115978   5.081  -0.006   2.631
 5324TIP3    H215979   4.959   0.058   2.693
 5325TIP3   OH215980   1.439   3.237   1.850
 5325TIP3    H115981   1.431   3.143   1.839
 5325TIP3    H215982   1.502   3.264   1.783
 5326TIP3   OH215983   1.515   4.038   1.819
 5326TIP3    H115984   1.551   3.972   1.761
 5326TIP3    H215985   1.537   4.122   1.778
 5327TIP3   OH215986   6.275   4.627   4.576
 5327TIP3    H115987   6.258   4.637   4.670
 5327TIP3    H215988   6.236   4.705   4.536
 5328TIP3   OH215989   2.317   0.458   3.370
 5328TIP3    H115990   2.410   0.442   3.384
 5328TIP3    H215991   2.273   0.395   3.429
 5329TIP3   OH215992   6.032   1.808   0.134
 5329TIP3    H115993   6.091   1.797   0.208
 5329TIP3    H215994   5.945   1.815   0.174
 5330TIP3   OH215995   2.433   4.160   0.696
 5330TIP3    H115996   2.441   4.136   0.788
 5330TIP3    H215997   2.414   4.078   0.650
 5331TIP3   OH215998   3.945   4.017   4.086
 5331TIP3    H115999   3.856   4.018   4.122
 5331TIP3    H216000   4.001   4.003   4.162
 5332TIP3   OH216001   0.100   2.139   1.562
 5332TIP3    H116002   0.138   2.205   1.620
 5332TIP3    H216003   0.075   2.188   1.483
 5333TIP3   OH216004   4.607   5.469   4.107
 5333TIP3    H116005   4.554   5.430   4.037
 5333TIP3    H216006   4.665   5.398   4.135
 5334TIP3   OH216007   4.090   2.261   3.790
 5334TIP3    H116008   4.174   2.292   3.824
 5334TIP3    H216009   4.033   2.338   3.793
 5335TIP3   OH216010   2.210   3.018   1.940
 5335TIP3    H116011   2.297   3.007   1.979
 5335TIP3    H216012   2.200   3.113   1.930
 5336TIP3   OH216013   4.967   4.413   2.768
 5336TIP3    H116014   4.991   4.414   2.861
 5336TIP3    H216015   5.027   4.475   2.727
 5337TIP3   OH216016   3.152   4.215   0.026
 5337TIP3    H116017   3.157   4.279  -0.045
 5337TIP3    H216018   3.173   4.266   0.105
 5338TIP3   OH216019   4.842   5.135   1.699
 5338TIP3    H116020   4.930   5.119   1.665
 5338TIP3    H216021   4.797   5.051   1.692
 5339TIP3   OH216022   2.110   0.124   2.880
 5339TIP3    H116023   2.127   0.145   2.972
 5339TIP3    H216024   2.095   0.029   2.880
 5340TIP3   OH216025   1.861   0.125   1.206
 5340TIP3    H116026   1.810   0.205   1.195
 5340TIP3    H216027   1.927   0.129   1.137
 5341TIP3   OH216028   3.265   5.269   2.463
 5341TIP3    H116029   3.325   5.198   2.486
 5341TIP3    H216030   3.183   5.245   2.507
 5342TIP3   OH216031   0.282   2.763   5.133
 5342TIP3    H116032   0.282   2.785   5.226
 5342TIP3    H216033   0.373   2.742   5.113
 5343TIP3   OH216034   0.062   0.509   4.762
 5343TIP3    H116035   0.120   0.527   4.836
 5343TIP3    H216036   0.066   0.588   4.708
 5344TIP3   OH216037   4.047   2.179   4.587
 5344TIP3    H116038   3.973   2.187   4.648
 5344TIP3    H216039   4.031   2.096   4.541
 5345TIP3   OH216040   5.912   0.741   5.105
 5345TIP3    H116041   5.986   0.733   5.164
 5345TIP3    H216042   5.880   0.831   5.117
 5346TIP3   OH216043   2.810   0.728   2.193
 5346TIP3    H116044   2.849   0.711   2.279
 5346TIP3    H216045   2.881   0.770   2.143
 5347TIP3   OH216046   0.893   1.222   4.838
 5347TIP3    H116047   0.836   1.272   4.779
 5347TIP3    H216048   0.842   1.213   4.918
 5348TIP3   OH216049   4.619   0.555   3.630
 5348TIP3    H116050   4.715   0.554   3.625
 5348TIP3    H216051   4.600   0.545   3.723
 5349TIP3   OH216052   1.658   5.119   0.446
 5349TIP3    H116053   1.629   5.199   0.488
 5349TIP3    H216054   1.598   5.052   0.477
 5350TIP3   OH216055   1.454   1.894   2.780
 5350TIP3    H116056   1.476   1.937   2.863
 5350TIP3    H216057   1.370   1.852   2.796
 5351TIP3   OH216058   4.535   0.432   3.396
 5351TIP3    H116059   4.561   0.469   3.480
 5351TIP3    H216060   4.559   0.499   3.332
 5352TIP3   OH216061   1.501   4.288   0.786
 5352TIP3    H116062   1.467   4.358   0.730
 5352TIP3    H216063   1.596   4.295   0.779
 5353TIP3   OH216064   0.095   2.439   4.217
 5353TIP3    H116065   0.073   2.388   4.295
 5353TIP3    H216066   0.076   2.381   4.144
 5354TIP3   OH216067   0.843   5.116   3.982
 5354TIP3    H116068   0.831   5.030   4.022
 5354TIP3    H216069   0.919   5.104   3.923
 5355TIP3   OH216070   4.924   3.349   0.524
 5355TIP3    H116071   4.923   3.444   0.510
 5355TIP3    H216072   4.833   3.327   0.541
 5356TIP3   OH216073   1.985   0.415   1.513
 5356TIP3    H116074   1.969   0.457   1.598
 5356TIP3    H216075   2.058   0.355   1.529
 5357TIP3   OH216076   3.174   5.578   3.127
 5357TIP3    H116077   3.099   5.566   3.068
 5357TIP3    H216078   3.250   5.579   3.068
 5358TIP3   OH216079   1.544   0.237   0.484
 5358TIP3    H116080   1.618   0.295   0.504
 5358TIP3    H216081   1.532   0.245   0.389
 5359TIP3   OH216082   5.253   2.246   2.277
 5359TIP3    H116083   5.186   2.246   2.346
 5359TIP3    H216084   5.205   2.230   2.196
 5360TIP3   OH216085   4.450   2.521   0.634
 5360TIP3    H116086   4.411   2.546   0.718
 5360TIP3    H216087   4.528   2.471   0.658
 5361TIP3   OH216088   2.934   2.016   3.298
 5361TIP3    H116089   2.839   2.027   3.300
 5361TIP3    H216090   2.962   2.029   3.389
 5362TIP3   OH216091   3.906   0.876   4.330
 5362TIP3    H116092   3.831   0.873   4.389
 5362TIP3    H216093   3.947   0.961   4.347
 5363TIP3   OH216094   0.183   0.156   0.640
 5363TIP3    H116095   0.215   0.072   0.606
 5363TIP3    H216096   0.263   0.204   0.664
 5364TIP3   OH216097   1.695   2.381   1.423
 5364TIP3    H116098   1.610   2.350   1.391
 5364TIP3    H216099   1.759   2.329   1.375
 5365TIP3   OH216100   4.835   1.278   1.519
 5365TIP3    H116101   4.793   1.196   1.493
 5365TIP3    H216102   4.862   1.318   1.436
 5366TIP3   OH216103   4.720   2.846   4.557
 5366TIP3    H116104   4.689   2.840   4.467
 5366TIP3    H216105   4.815   2.843   4.550
 5367TIP3   OH216106   2.984   0.923   1.362
 5367TIP3    H116107   2.950   0.975   1.435
 5367TIP3    H216108   2.998   0.836   1.399
 5368TIP3   OH216109   2.472   5.391   4.529
 5368TIP3    H116110   2.547   5.333   4.513
 5368TIP3    H216111   2.428   5.352   4.604
 5369TIP3   OH216112   1.208   3.218   3.583
 5369TIP3    H116113   1.297   3.237   3.614
 5369TIP3    H216114   1.151   3.254   3.650
 5370TIP3   OH216115   1.284   5.243   1.469
 5370TIP3    H116116   1.259   5.298   1.544
 5370TIP3    H216117   1.366   5.201   1.496
 5371TIP3   OH216118   6.175   2.722   1.706
 5371TIP3    H116119   6.109   2.660   1.736
 5371TIP3    H216120   6.144   2.752   1.621
 5372TIP3   OH216121   1.337   3.662   0.129
 5372TIP3    H116122   1.342   3.619   0.215
 5372TIP3    H216123   1.315   3.753   0.149
 5373TIP3   OH216124   4.361   1.828   2.516
 5373TIP3    H116125   4.344   1.860   2.604
 5373TIP3    H216126   4.450   1.855   2.497
 5374TIP3   OH216127   1.596   4.914   3.880
 5374TIP3    H116128   1.616   4.935   3.789
 5374TIP3    H216129   1.514   4.866   3.877
 5375TIP3   OH216130   0.392   4.203   1.036
 5375TIP3    H116131   0.484   4.201   1.063
 5375TIP3    H216132   0.349   4.255   1.103
 5376TIP3   OH216133   6.362   4.167   1.095
 5376TIP3    H116134   6.304   4.093   1.073
 5376TIP3    H216135   6.307   4.226   1.146
 5377TIP3   OH216136   2.869   1.157   4.192
 5377TIP3    H116137   2.916   1.217   4.251
 5377TIP3    H216138   2.937   1.116   4.140
 5378TIP3   OH216139   4.684   4.550   3.953
 5378TIP3    H116140   4.748   4.594   4.009
 5378TIP3    H216141   4.610   4.532   4.012
 5379TIP3   OH216142   3.915   5.428   2.919
 5379TIP3    H116143   3.872   5.409   2.835
 5379TIP3    H216144   3.992   5.371   2.920
 5380TIP3   OH216145   2.369   3.580   2.598
 5380TIP3    H116146   2.283   3.622   2.596
 5380TIP3    H216147   2.387   3.569   2.692
 5381TIP3   OH216148   3.716   3.684   1.927
 5381TIP3    H116149   3.665   3.763   1.940
 5381TIP3    H216150   3.683   3.622   1.992
 5382TIP3   OH216151   2.580   1.041   2.749
 5382TIP3    H116152   2.593   0.997   2.833
 5382TIP3    H216153   2.639   1.117   2.753
 5383TIP3   OH216154   0.638   4.230   4.466
 5383TIP3    H116155   0.605   4.271   4.546
 5383TIP3    H216156   0.694   4.159   4.497
 5384TIP3   OH216157   5.378   2.744   4.030
 5384TIP3    H116158   5.452   2.707   3.982
 5384TIP3    H216159   5.345   2.671   4.083
 5385TIP3   OH216160   3.212   5.756   2.293
 5385TIP3    H116161   3.251   5.718   2.371
 5385TIP3    H216162   3.286   5.779   2.237
 5386TIP3   OH216163   5.152   5.228   1.802
 5386TIP3    H116164   5.095   5.199   1.873
 5386TIP3    H216165   5.118   5.184   1.724
 5387TIP3   OH216166   3.661   0.565   4.401
 5387TIP3    H116167   3.635   0.648   4.442
 5387TIP3    H216168   3.579   0.517   4.388
 5388TIP3   OH216169   4.670   3.339   0.172
 5388TIP3    H116170   4.585   3.343   0.127
 5388TIP3    H216171   4.730   3.302   0.106
 5389TIP3   OH216172   2.721   5.680   1.335
 5389TIP3    H116173   2.658   5.608   1.344
 5389TIP3    H216174   2.667   5.755   1.308
 5390TIP3   OH216175   1.303   1.956   4.438
 5390TIP3    H116176   1.296   1.887   4.503
 5390TIP3    H216177   1.271   1.917   4.357
 5391TIP3   OH216178   4.949   5.150   0.581
 5391TIP3    H116179   4.920   5.242   0.576
 5391TIP3    H216180   4.912   5.118   0.663
 5392TIP3   OH216181   3.308   3.742   3.953
 5392TIP3    H116182   3.256   3.822   3.965
 5392TIP3    H216183   3.279   3.707   3.869
 5393TIP3   OH216184   0.628   1.742   2.229
 5393TIP3    H116185   0.617   1.678   2.299
 5393TIP3    H216186   0.716   1.778   2.242
 5394TIP3   OH216187   2.615   1.862   3.876
 5394TIP3    H116188   2.669   1.934   3.911
 5394TIP3    H216189   2.608   1.800   3.948
 5395TIP3   OH216190   0.178   4.143   2.990
 5395TIP3    H116191   0.161   4.089   2.913
 5395TIP3    H216192   0.225   4.219   2.957
 5396TIP3   OH216193   3.363   0.671   0.738
 5396TIP3    H116194   3.307   0.665   0.815
 5396TIP3    H216195   3.427   0.600   0.749
 5397TIP3   OH216196   2.755   3.729   1.556
 5397TIP3    H116197   2.817   3.696   1.621
 5397TIP3    H216198   2.747   3.658   1.492
 5398TIP3   OH216199   6.085   1.572   3.118
 5398TIP3    H116200   6.175   1.543   3.105
 5398TIP3    H216201   6.061   1.540   3.205
 5399TIP3   OH216202   1.431   1.467   0.452
 5399TIP3    H116203   1.449   1.543   0.507
 5399TIP3    H216204   1.513   1.418   0.450
 5400TIP3   OH216205   3.907   3.605   2.862
 5400TIP3    H116206   3.949   3.556   2.933
 5400TIP3    H216207   3.905   3.695   2.894
 5401TIP3   OH216208   5.981   5.144   3.246
 5401TIP3    H116209   5.983   5.160   3.152
 5401TIP3    H216210   5.990   5.232   3.285
 5402TIP3   OH216211   5.851   3.941   0.836
 5402TIP3    H116212   5.881   3.986   0.757
 5402TIP3    H216213   5.863   3.848   0.817
 5403TIP3   OH216214   5.765   5.532   3.721
 5403TIP3    H116215   5.801   5.602   3.775
 5403TIP3    H216216   5.670   5.549   3.720
 5404TIP3   OH216217   4.789   5.873   1.361
 5404TIP3    H116218   4.762   5.799   1.307
 5404TIP3    H216219   4.770   5.950   1.308
 5405TIP3   OH216220   1.630   3.474   2.792
 5405TIP3    H116221   1.639   3.461   2.886
 5405TIP3    H216222   1.719   3.488   2.760
 5406TIP3   OH216223   5.307   0.633   2.540
 5406TIP3    H116224   5.370   0.699   2.568
 5406TIP3    H216225   5.351   0.587   2.468
 5407TIP3   OH216226   5.782   3.415   0.947
 5407TIP3    H116227   5.750   3.384   0.862
 5407TIP3    H216228   5.703   3.430   0.999
 5408TIP3   OH216229   2.082   1.993   3.323
 5408TIP3    H116230   2.159   2.015   3.375
 5408TIP3    H216231   2.052   2.076   3.286
 5409TIP3   OH216232   4.824   1.549   5.161
 5409TIP3    H116233   4.771   1.504   5.095
 5409TIP3    H216234   4.779   1.532   5.244
 5410TIP3   OH216235   5.754   1.313   2.849
 5410TIP3    H116236   5.807   1.266   2.784
 5410TIP3    H216237   5.708   1.244   2.897
 5411TIP3   OH216238   1.116   0.000   0.117
 5411TIP3    H116239   1.038   0.056   0.119
 5411TIP3    H216240   1.142  -0.008   0.209
 5412TIP3   OH216241   2.603   5.932   3.025
 5412TIP3    H116242   2.653   5.976   2.957
 5412TIP3    H216243   2.590   5.843   2.992
 5413TIP3   OH216244   4.603   3.653   3.587
 5413TIP3    H116245   4.681   3.664   3.642
 5413TIP3    H216246   4.612   3.566   3.550
 5414TIP3   OH216247   1.242   3.828   2.526
 5414TIP3    H116248   1.235   3.739   2.491
 5414TIP3    H216249   1.323   3.862   2.489
 5415TIP3   OH216250   6.315   5.031   1.058
 5415TIP3    H116251   6.401   5.073   1.051
 5415TIP3    H216252   6.330   4.952   1.111
 5416TIP3   OH216253   1.298   3.939   0.146
 5416TIP3    H116254   1.231   3.910   0.083
 5416TIP3    H216255   1.277   4.031   0.162
 5417TIP3   OH216256   5.116   4.570   0.520
 5417TIP3    H116257   5.050   4.594   0.455
 5417TIP3    H216258   5.138   4.653   0.562
 5418TIP3   OH216259   4.819   5.419   0.661
 5418TIP3    H116260   4.765   5.490   0.696
 5418TIP3    H216261   4.903   5.461   0.639
 5419TIP3   OH216262   5.524   4.713   2.355
 5419TIP3    H116263   5.441   4.760   2.362
 5419TIP3    H216264   5.508   4.645   2.289
 5420TIP3   OH216265   5.874   4.745   0.540
 5420TIP3    H116266   5.838   4.788   0.618
 5420TIP3    H216267   5.812   4.767   0.470
 5421TIP3   OH216268   4.656   0.347   4.450
 5421TIP3    H116269   4.677   0.270   4.398
 5421TIP3    H216270   4.683   0.421   4.396
 5422TIP3   OH216271   3.078   4.227   3.844
 5422TIP3    H116272   3.120   4.305   3.808
 5422TIP3    H216273   2.992   4.256   3.872
 5423TIP3   OH216274   4.067   5.805   4.695
 5423TIP3    H116275   4.034   5.894   4.687
 5423TIP3    H216276   4.135   5.810   4.761
 5424TIP3   OH216277   0.820   0.305   2.822
 5424TIP3    H116278   0.878   0.229   2.825
 5424TIP3    H216279   0.822   0.340   2.911
 5425TIP3   OH216280   3.979   0.469   0.779
 5425TIP3    H116281   4.031   0.502   0.706
 5425TIP3    H216282   3.896   0.517   0.772
 5426TIP3   OH216283   6.122   5.939   2.183
 5426TIP3    H116284   6.041   5.911   2.141
 5426TIP3    H216285   6.191   5.915   2.121
 5427TIP3   OH216286   2.012   2.477   4.684
 5427TIP3    H116287   1.945   2.448   4.623
 5427TIP3    H216288   1.976   2.458   4.771
 5428TIP3   OH216289   1.582   3.941   3.100
 5428TIP3    H116290   1.571   3.976   3.189
 5428TIP3    H216291   1.504   3.887   3.086
 5429TIP3   OH216292   1.132   1.359   4.540
 5429TIP3    H116293   1.185   1.286   4.574
 5429TIP3    H216294   1.076   1.318   4.474
 5430TIP3   OH216295   2.899   1.039   3.425
 5430TIP3    H116296   2.957   0.999   3.359
 5430TIP3    H216297   2.826   0.978   3.434
 5431TIP3   OH216298   5.617   0.257   0.552
 5431TIP3    H116299   5.664   0.232   0.473
 5431TIP3    H216300   5.652   0.343   0.576
 5432TIP3   OH216301   0.129   3.600   4.405
 5432TIP3    H116302   0.119   3.508   4.428
 5432TIP3    H216303   0.067   3.646   4.463
 5433TIP3   OH216304   3.090   3.144   4.927
 5433TIP3    H116305   3.070   3.235   4.950
 5433TIP3    H216306   3.176   3.127   4.965
 5434TIP3   OH216307   0.565   2.794   1.553
 5434TIP3    H116308   0.632   2.852   1.516
 5434TIP3    H216309   0.568   2.715   1.499
 5435TIP3   OH216310   5.684   1.978   4.423
 5435TIP3    H116311   5.729   2.005   4.503
 5435TIP3    H216312   5.649   1.892   4.443
 5436TIP3   OH216313   2.769   1.615   0.862
 5436TIP3    H116314   2.787   1.677   0.791
 5436TIP3    H216315   2.848   1.561   0.868
 5437TIP3   OH216316   0.876   4.105   2.974
 5437TIP3    H116317   0.812   4.090   3.044
 5437TIP3    H216318   0.859   4.035   2.910
 5438TIP3   OH216319   5.081   2.038   0.609
 5438TIP3    H116320   5.148   2.010   0.547
 5438TIP3    H216321   5.096   1.985   0.687
 5439TIP3   OH216322   5.226   1.631   1.117
 5439TIP3    H116323   5.262   1.720   1.121
 5439TIP3    H216324   5.235   1.598   1.206
 5440TIP3   OH216325   3.821   5.063   0.800
 5440TIP3    H116326   3.775   5.138   0.760
 5440TIP3    H216327   3.910   5.070   0.768
 5441TIP3   OH216328   6.020   3.782   1.586
 5441TIP3    H116329   6.011   3.707   1.645
 5441TIP3    H216330   6.015   3.858   1.644
 5442TIP3   OH216331   3.927   2.978   0.947
 5442TIP3    H116332   4.006   3.032   0.937
 5442TIP3    H216333   3.877   3.022   1.015
 5443TIP3   OH216334   0.480   2.023   4.727
 5443TIP3    H116335   0.538   2.048   4.799
 5443TIP3    H216336   0.398   1.999   4.770
 5444TIP3   OH216337   0.991   2.065   0.743
 5444TIP3    H116338   1.008   2.154   0.713
 5444TIP3    H216339   1.014   2.009   0.668
 5445TIP3   OH216340   3.527   3.401   3.825
 5445TIP3    H116341   3.513   3.392   3.919
 5445TIP3    H216342   3.449   3.364   3.785
 5446TIP3   OH216343   5.819   3.824   5.017
 5446TIP3    H116344   5.772   3.745   4.990
 5446TIP3    H216345   5.910   3.796   5.025
 5447TIP3   OH216346   2.964   3.734   3.735
 5447TIP3    H116347   3.057   3.727   3.757
 5447TIP3    H216348   2.963   3.754   3.642
 5448TIP3   OH216349   2.919   3.474   0.473
 5448TIP3    H116350   2.885   3.498   0.387
 5448TIP3    H216351   2.916   3.379   0.474
 5449TIP3   OH216352   0.984   5.979   2.860
 5449TIP3    H116353   0.963   5.887   2.873
 5449TIP3    H216354   0.899   6.020   2.839
 5450TIP3   OH216355   4.283   2.541   1.476
 5450TIP3    H116356   4.300   2.627   1.438
 5450TIP3    H216357   4.263   2.558   1.568
 5451TIP3   OH216358   5.414   5.294   2.082
 5451TIP3    H116359   5.428   5.220   2.023
 5451TIP3    H216360   5.487   5.352   2.065
 5452TIP3   OH216361   1.694   2.613   0.344
 5452TIP3    H116362   1.653   2.698   0.357
 5452TIP3    H216363   1.624   2.556   0.313
 5453TIP3   OH216364   3.112   4.931   3.207
 5453TIP3    H116365   3.104   4.910   3.114
 5453TIP3    H216366   3.205   4.947   3.221
 5454TIP3   OH216367   3.953   5.165   1.346
 5454TIP3    H116368   3.983   5.255   1.356
 5454TIP3    H216369   3.893   5.167   1.271
 5455TIP3   OH216370   1.138   5.064   0.874
 5455TIP3    H116371   1.106   5.134   0.930
 5455TIP3    H216372   1.099   5.082   0.788
 5456TIP3   OH216373   5.016   1.918   4.797
 5456TIP3    H116374   4.992   2.010   4.796
 5456TIP3    H216375   5.031   1.896   4.705
 5457TIP3   OH216376   1.859   3.955   3.016
 5457TIP3    H116377   1.769   3.937   3.044
 5457TIP3    H216378   1.894   3.868   2.995
 5458TIP3   OH216379   1.317   4.982   0.106
 5458TIP3    H116380   1.369   5.032   0.044
 5458TIP3    H216381   1.331   5.026   0.190
 5459TIP3   OH216382   4.552   4.292   1.412
 5459TIP3    H116383   4.646   4.275   1.411
 5459TIP3    H216384   4.540   4.356   1.483
 5460TIP3   OH216385   4.200   3.486   1.019
 5460TIP3    H116386   4.170   3.409   0.971
 5460TIP3    H216387   4.126   3.508   1.076
 5461TIP3   OH216388   5.602   1.979   0.761
 5461TIP3    H116389   5.582   1.911   0.825
 5461TIP3    H216390   5.612   2.059   0.814
 5462TIP3   OH216391   4.423   4.745   0.798
 5462TIP3    H116392   4.441   4.774   0.709
 5462TIP3    H216393   4.364   4.671   0.788
 5463TIP3   OH216394   5.679   1.265   1.033
 5463TIP3    H116395   5.726   1.246   0.951
 5463TIP3    H216396   5.629   1.185   1.050
 5464TIP3   OH216397   4.043   0.342   0.011
 5464TIP3    H116398   4.108   0.411  -0.002
 5464TIP3    H216399   3.970   0.386   0.054
 5465TIP3   OH216400   0.621   3.235   3.290
 5465TIP3    H116401   0.617   3.165   3.355
 5465TIP3    H216402   0.548   3.217   3.231
 5466TIP3   OH216403   1.999   2.591   4.259
 5466TIP3    H116404   1.948   2.584   4.178
 5466TIP3    H216405   2.050   2.672   4.248
 5467TIP3   OH216406   0.412   4.657   3.435
 5467TIP3    H116407   0.403   4.649   3.340
 5467TIP3    H216408   0.354   4.729   3.459
 5468TIP3   OH216409   2.046   5.318   0.410
 5468TIP3    H116410   2.011   5.267   0.483
 5468TIP3    H216411   2.004   5.281   0.333
 5469TIP3   OH216412   3.114   5.849   4.324
 5469TIP3    H116413   3.033   5.815   4.360
 5469TIP3    H216414   3.173   5.856   4.399
 5470TIP3   OH216415   3.351   0.093   2.756
 5470TIP3    H116416   3.342   0.157   2.685
 5470TIP3    H216417   3.262   0.062   2.772
 5471TIP3   OH216418   4.719   3.761   2.316
 5471TIP3    H116419   4.812   3.759   2.293
 5471TIP3    H216420   4.706   3.680   2.366
 5472TIP3   OH216421   5.731   2.638   2.458
 5472TIP3    H116422   5.660   2.703   2.447
 5472TIP3    H216423   5.686   2.554   2.466
 5473TIP3   OH216424   4.980   5.313   1.214
 5473TIP3    H116425   5.004   5.395   1.258
 5473TIP3    H216426   4.915   5.273   1.272
 5474TIP3   OH216427   0.035   2.262   4.000
 5474TIP3    H116428  -0.039   2.273   3.940
 5474TIP3    H216429   0.049   2.167   4.003
 5475TIP3   OH216430   5.890   0.550   3.070
 5475TIP3    H116431   5.978   0.520   3.093
 5475TIP3    H216432   5.904   0.634   3.027
 5476TIP3   OH216433   4.419   2.331   3.519
 5476TIP3    H116434   4.435   2.327   3.614
 5476TIP3    H216435   4.433   2.423   3.496
 5477TIP3   OH216436   5.989   0.314   4.414
 5477TIP3    H116437   5.937   0.356   4.346
 5477TIP3    H216438   6.078   0.343   4.398
 5478TIP3   OH216439   1.061   1.404   5.007
 5478TIP3    H116440   1.012   1.380   4.928
 5478TIP3    H216441   1.010   1.474   5.047
 5479TIP3   OH216442   3.362   0.357   3.360
 5479TIP3    H116443   3.444   0.381   3.404
 5479TIP3    H216444   3.294   0.374   3.424
 5480TIP3   OH216445   2.423   3.831   4.577
 5480TIP3    H116446   2.449   3.862   4.490
 5480TIP3    H216447   2.407   3.738   4.566
 5481TIP3   OH216448   0.201   4.704   1.555
 5481TIP3    H116449   0.157   4.789   1.557
 5481TIP3    H216450   0.232   4.692   1.645
 5482TIP3   OH216451   1.719   0.686   2.996
 5482TIP3    H116452   1.730   0.593   2.976
 5482TIP3    H216453   1.719   0.691   3.092
 5483TIP3   OH216454   2.169   0.291   3.556
 5483TIP3    H116455   2.236   0.233   3.591
 5483TIP3    H216456   2.090   0.237   3.555
 5484TIP3   OH216457   4.244   5.235   0.922
 5484TIP3    H116458   4.183   5.260   0.992
 5484TIP3    H216459   4.308   5.305   0.920
 5485TIP3   OH216460   1.583   4.188   3.617
 5485TIP3    H116461   1.631   4.132   3.679
 5485TIP3    H216462   1.621   4.275   3.628
 5486TIP3   OH216463   4.190   3.383   2.415
 5486TIP3    H116464   4.186   3.295   2.453
 5486TIP3    H216465   4.196   3.368   2.320
 5487TIP3   OH216466   1.306   2.920   2.115
 5487TIP3    H116467   1.287   2.865   2.191
 5487TIP3    H216468   1.308   2.860   2.041
 5488TIP3   OH216469   5.954   3.307   0.504
 5488TIP3    H116470   5.867   3.315   0.543
 5488TIP3    H216471   6.009   3.275   0.575
 5489TIP3   OH216472   2.211   2.587   2.121
 5489TIP3    H116473   2.183   2.676   2.100
 5489TIP3    H216474   2.168   2.532   2.055
 5490TIP3   OH216475   2.784   0.909   0.929
 5490TIP3    H116476   2.755   0.855   0.856
 5490TIP3    H216477   2.837   0.850   0.983
 5491TIP3   OH216478   0.385   2.773   2.883
 5491TIP3    H116479   0.405   2.748   2.974
 5491TIP3    H216480   0.426   2.859   2.873
 5492TIP3   OH216481   5.837   5.083   3.875
 5492TIP3    H116482   5.811   5.136   3.799
 5492TIP3    H216483   5.754   5.053   3.912
 5493TIP3   OH216484   3.570   4.748   1.128
 5493TIP3    H116485   3.494   4.756   1.071
 5493TIP3    H216486   3.638   4.801   1.086
 5494TIP3   OH216487   1.720   0.174   3.742
 5494TIP3    H116488   1.720   0.254   3.689
 5494TIP3    H216489   1.629   0.148   3.747
 5495TIP3   OH216490   5.569   0.482   3.761
 5495TIP3    H116491   5.594   0.511   3.673
 5495TIP3    H216492   5.624   0.532   3.820
 5496TIP3   OH216493   0.596   5.821   4.881
 5496TIP3    H116494   0.593   5.755   4.949
 5496TIP3    H216495   0.527   5.883   4.905
 5497TIP3   OH216496   2.973   1.182   3.843
 5497TIP3    H116497   2.985   1.273   3.869
 5497TIP3    H216498   2.989   1.131   3.922
 5498TIP3   OH216499   6.175   2.064   4.572
 5498TIP3    H116500   6.244   2.027   4.627
 5498TIP3    H216501   6.105   1.999   4.576
 5499TIP3   OH216502   3.340   0.859   4.624
 5499TIP3    H116503   3.314   0.805   4.549
 5499TIP3    H216504   3.266   0.853   4.684
 5500TIP3   OH216505  -0.044   0.521   1.145
 5500TIP3    H116506  -0.113   0.584   1.165
 5500TIP3    H216507  -0.031   0.472   1.227
 5501TIP3   OH216508   4.908   4.263   3.310
 5501TIP3    H116509   4.854   4.273   3.232
 5501TIP3    H216510   4.851   4.289   3.382
 5502TIP3   OH216511   5.033   0.912   1.874
 5502TIP3    H116512   5.005   0.989   1.825
 5502TIP3    H216513   5.043   0.943   1.964
 5503TIP3   OH216514   0.360   4.404   3.675
 5503TIP3    H116515   0.419   4.340   3.636
 5503TIP3    H216516   0.313   4.442   3.601
 5504TIP3   OH216517   5.577   2.098   4.980
 5504TIP3    H116518   5.492   2.089   4.937
 5504TIP3    H216519   5.612   2.009   4.984
 5505TIP3   OH216520   1.394   3.956   3.644
 5505TIP3    H116521   1.420   4.048   3.644
 5505TIP3    H216522   1.326   3.951   3.711
 5506TIP3   OH216523   1.704   5.233   0.072
 5506TIP3    H116524   1.633   5.275   0.024
 5506TIP3    H216525   1.691   5.139   0.059
 5507TIP3   OH216526   3.115   2.048   2.860
 5507TIP3    H116527   3.061   1.981   2.818
 5507TIP3    H216528   3.110   2.028   2.953
 5508TIP3   OH216529   0.615   3.685   0.145
 5508TIP3    H116530   0.608   3.780   0.146
 5508TIP3    H216531   0.524   3.655   0.147
 5509TIP3   OH216532   2.387   2.817   0.464
 5509TIP3    H116533   2.301   2.780   0.483
 5509TIP3    H216534   2.369   2.905   0.431
 5510TIP3   OH216535   2.929   4.809   1.391
 5510TIP3    H116536   2.856   4.753   1.364
 5510TIP3    H216537   2.964   4.767   1.469
 5511TIP3   OH216538   1.970   1.073   1.095
 5511TIP3    H116539   1.907   1.023   1.045
 5511TIP3    H216540   2.013   1.009   1.152
 5512TIP3   OH216541   1.255   5.671   4.800
 5512TIP3    H116542   1.284   5.585   4.769
 5512TIP3    H216543   1.200   5.704   4.729
 5513TIP3   OH216544   1.415   3.419   4.101
 5513TIP3    H116545   1.432   3.356   4.171
 5513TIP3    H216546   1.491   3.412   4.043
 5514TIP3   OH216547   3.248   2.605   0.767
 5514TIP3    H116548   3.281   2.694   0.755
 5514TIP3    H216549   3.279   2.557   0.690
 5515TIP3   OH216550   5.921   1.201   2.329
 5515TIP3    H116551   5.899   1.110   2.313
 5515TIP3    H216552   6.008   1.212   2.289
 5516TIP3   OH216553   6.194   2.199   1.174
 5516TIP3    H116554   6.204   2.288   1.209
 5516TIP3    H216555   6.127   2.206   1.107
 5517TIP3   OH216556   3.667   2.416   1.889
 5517TIP3    H116557   3.637   2.506   1.898
 5517TIP3    H216558   3.703   2.411   1.801
 5518TIP3   OH216559   5.609   5.415   4.976
 5518TIP3    H116560   5.675   5.479   5.001
 5518TIP3    H216561   5.532   5.466   4.954
 5519TIP3   OH216562   3.782   1.879   4.676
 5519TIP3    H116563   3.724   1.949   4.646
 5519TIP3    H216564   3.766   1.808   4.614
 5520TIP3   OH216565   0.997   0.003   2.570
 5520TIP3    H116566   1.084  -0.005   2.531
 5520TIP3    H216567   0.966   0.089   2.542
 5521TIP3   OH216568   1.285   1.247   2.823
 5521TIP3    H116569   1.350   1.188   2.785
 5521TIP3    H216570   1.203   1.198   2.821
 5522TIP3   OH216571   1.889   5.383   2.273
 5522TIP3    H116572   1.916   5.388   2.365
 5522TIP3    H216573   1.901   5.472   2.240
 5523TIP3   OH216574   3.620   0.091   2.810
 5523TIP3    H116575   3.640   0.003   2.780
 5523TIP3    H216576   3.527   0.103   2.790
 5524TIP3   OH216577   1.704   1.955   0.663
 5524TIP3    H116578   1.705   2.028   0.601
 5524TIP3    H216579   1.668   1.992   0.743
 5525TIP3   OH216580   1.680   0.070   3.410
 5525TIP3    H116581   1.742   0.110   3.350
 5525TIP3    H216582   1.607   0.044   3.356
 5526TIP3   OH216583   4.952   5.611   4.391
 5526TIP3    H116584   4.966   5.602   4.296
 5526TIP3    H216585   4.892   5.540   4.413
 5527TIP3   OH216586   2.472   0.221   3.612
 5527TIP3    H116587   2.565   0.233   3.631
 5527TIP3    H216588   2.428   0.277   3.677
 5528TIP3   OH216589   1.643   1.265   5.182
 5528TIP3    H116590   1.589   1.344   5.181
 5528TIP3    H216591   1.595   1.202   5.127
 5529TIP3   OH216592   5.791   0.039   1.015
 5529TIP3    H116593   5.727   0.037   0.944
 5529TIP3    H216594   5.832   0.126   1.008
 5530TIP3   OH216595   1.500   5.502   2.782
 5530TIP3    H116596   1.528   5.467   2.697
 5530TIP3    H216597   1.404   5.502   2.777
 5531TIP3   OH216598   6.150   5.826   1.804
 5531TIP3    H116599   6.201   5.782   1.735
 5531TIP3    H216600   6.070   5.775   1.812
 5532TIP3   OH216601   2.001   5.952   3.270
 5532TIP3    H116602   2.024   5.861   3.252
 5532TIP3    H216603   1.952   5.947   3.352
 5533TIP3   OH216604   0.874   1.489   4.628
 5533TIP3    H116605   0.800   1.470   4.570
 5533TIP3    H216606   0.950   1.452   4.584
 5534TIP3   OH216607   1.253   3.397   1.698
 5534TIP3    H116608   1.235   3.371   1.608
 5534TIP3    H216609   1.318   3.334   1.729
 5535TIP3   OH216610   3.615   5.455   0.225
 5535TIP3    H116611   3.701   5.445   0.185
 5535TIP3    H216612   3.554   5.416   0.162
 5536TIP3   OH216613   3.769   2.220   1.276
 5536TIP3    H116614   3.676   2.214   1.302
 5536TIP3    H216615   3.767   2.220   1.181
 5537TIP3   OH216616   4.284   5.747   0.178
 5537TIP3    H116617   4.248   5.800   0.250
 5537TIP3    H216618   4.312   5.666   0.219
 5538TIP3   OH216619   6.178   0.982   4.170
 5538TIP3    H116620   6.118   0.914   4.140
 5538TIP3    H216621   6.209   0.952   4.255
 5539TIP3   OH216622   6.002   4.980   4.612
 5539TIP3    H116623   6.064   4.966   4.541
 5539TIP3    H216624   5.987   5.075   4.614
 5540TIP3   OH216625   6.225   4.958   3.866
 5540TIP3    H116626   6.242   5.051   3.881
 5540TIP3    H216627   6.311   4.920   3.850
 5541TIP3   OH216628   1.247   0.417   2.426
 5541TIP3    H116629   1.261   0.359   2.351
 5541TIP3    H216630   1.167   0.465   2.404
 5542TIP3   OH216631   0.413   2.370   0.863
 5542TIP3    H116632   0.419   2.459   0.900
 5542TIP3    H216633   0.456   2.377   0.778
 5543TIP3   OH216634   5.709   3.380   0.671
 5543TIP3    H116635   5.700   3.475   0.666
 5543TIP3    H216636   5.622   3.346   0.646
 5544TIP3   OH216637   4.313   0.721   0.459
 5544TIP3    H116638   4.407   0.707   0.447
 5544TIP3    H216639   4.307   0.789   0.526
 5545TIP3   OH216640   0.434   5.709   4.621
 5545TIP3    H116641   0.502   5.718   4.687
 5545TIP3    H216642   0.353   5.732   4.666
 5546TIP3   OH216643   1.204   1.566   4.012
 5546TIP3    H116644   1.122   1.521   4.032
 5546TIP3    H216645   1.178   1.639   3.955
 5547TIP3   OH216646   1.054   5.598   0.590
 5547TIP3    H116647   1.119   5.667   0.600
 5547TIP3    H216648   1.065   5.567   0.500
 5548TIP3   OH216649   0.065   3.049   1.814
 5548TIP3    H116650   0.153   3.079   1.838
 5548TIP3    H216651   0.008   3.121   1.842
 5549TIP3   OH216652   3.305   1.521   0.263
 5549TIP3    H116653   3.301   1.614   0.284
 5549TIP3    H216654   3.250   1.512   0.185
 5550TIP3   OH216655   1.585   2.207   2.441
 5550TIP3    H116656   1.670   2.170   2.421
 5550TIP3    H216657   1.563   2.260   2.364
 5551TIP3   OH216658   1.728   3.232   4.446
 5551TIP3    H116659   1.643   3.211   4.406
 5551TIP3    H216660   1.709   3.305   4.505
 5552TIP3   OH216661   5.087   1.847   4.114
 5552TIP3    H116662   5.117   1.862   4.204
 5552TIP3    H216663   5.073   1.753   4.109
 5553TIP3   OH216664   4.094   5.444   1.309
 5553TIP3    H116665   4.078   5.423   1.218
 5553TIP3    H216666   4.184   5.477   1.311
 5554TIP3   OH216667   1.602   1.318   3.366
 5554TIP3    H116668   1.682   1.369   3.383
 5554TIP3    H216669   1.598   1.311   3.270
 5555TIP3   OH216670   3.297   5.040   1.290
 5555TIP3    H116671   3.226   4.986   1.255
 5555TIP3    H216672   3.351   4.978   1.339
 5556TIP3   OH216673   5.717   4.226   4.540
 5556TIP3    H116674   5.802   4.195   4.508
 5556TIP3    H216675   5.687   4.288   4.473
 5557TIP3   OH216676   3.644   2.879   1.806
 5557TIP3    H116677   3.647   2.915   1.895
 5557TIP3    H216678   3.686   2.946   1.752
 5558TIP3   OH216679   4.525   4.993   1.494
 5558TIP3    H116680   4.543   4.944   1.414
 5558TIP3    H216681   4.580   4.952   1.561
 5559TIP3   OH216682   2.263   0.756   4.979
 5559TIP3    H116683   2.187   0.699   4.971
 5559TIP3    H216684   2.318   0.734   4.904
 5560TIP3   OH216685   5.642   3.244   0.296
 5560TIP3    H116686   5.733   3.214   0.302
 5560TIP3    H216687   5.603   3.186   0.231
 5561TIP3   OH216688   3.151   1.307   0.839
 5561TIP3    H116689   3.201   1.322   0.920
 5561TIP3    H216690   3.206   1.249   0.787
 5562TIP3   OH216691   2.914   4.656   4.809
 5562TIP3    H116692   2.888   4.581   4.861
 5562TIP3    H216693   3.003   4.676   4.837
 5563TIP3   OH216694   0.746   0.352   0.741
 5563TIP3    H116695   0.784   0.265   0.750
 5563TIP3    H216696   0.736   0.383   0.831
 5564TIP3   OH216697   2.420   2.764   1.980
 5564TIP3    H116698   2.507   2.739   1.947
 5564TIP3    H216699   2.360   2.704   1.936
 5565TIP3   OH216700   3.180   4.607   2.978
 5565TIP3    H116701   3.133   4.688   2.998
 5565TIP3    H216702   3.156   4.587   2.887
 5566TIP3   OH216703   3.641   5.600   3.866
 5566TIP3    H116704   3.602   5.520   3.830
 5566TIP3    H216705   3.726   5.572   3.900
 5567TIP3   OH216706   2.315   5.219   3.457
 5567TIP3    H116707   2.388   5.275   3.432
 5567TIP3    H216708   2.245   5.241   3.396
 5568TIP3   OH216709   6.314   1.214   4.817
 5568TIP3    H116710   6.303   1.127   4.854
 5568TIP3    H216711   6.368   1.261   4.881
 5569TIP3   OH216712   5.153   1.217   0.141
 5569TIP3    H116713   5.150   1.236   0.047
 5569TIP3    H216714   5.235   1.255   0.172
 5570TIP3   OH216715   2.734   3.830   1.928
 5570TIP3    H116716   2.660   3.779   1.896
 5570TIP3    H216717   2.761   3.787   2.009
 5571TIP3   OH216718   2.034   1.531   3.737
 5571TIP3    H116719   2.129   1.546   3.735
 5571TIP3    H216720   2.024   1.440   3.708
 5572TIP3   OH216721   1.777   4.247   1.158
 5572TIP3    H116722   1.705   4.308   1.143
 5572TIP3    H216723   1.740   4.178   1.213
 5573TIP3   OH216724   5.467   1.375   0.742
 5573TIP3    H116725   5.488   1.283   0.760
 5573TIP3    H216726   5.410   1.401   0.814
 5574TIP3   OH216727   1.856   4.234   3.312
 5574TIP3    H116728   1.907   4.306   3.275
 5574TIP3    H216729   1.904   4.155   3.285
 5575TIP3   OH216730   1.331   0.894   4.890
 5575TIP3    H116731   1.253   0.940   4.859
 5575TIP3    H216732   1.302   0.803   4.900
 5576TIP3   OH216733   1.704   1.283   4.578
 5576TIP3    H116734   1.672   1.198   4.609
 5576TIP3    H216735   1.630   1.320   4.530
 5577TIP3   OH216736   6.112   1.432   4.815
 5577TIP3    H116737   6.171   1.357   4.826
 5577TIP3    H216738   6.026   1.392   4.801
 5578TIP3   OH216739   3.523   3.303   2.693
 5578TIP3    H116740   3.469   3.253   2.754
 5578TIP3    H216741   3.508   3.394   2.719
 5579TIP3   OH216742   0.429   3.177   4.790
 5579TIP3    H116743   0.439   3.229   4.710
 5579TIP3    H216744   0.516   3.139   4.805
 5580TIP3   OH216745   0.803   2.867   3.315
 5580TIP3    H116746   0.881   2.854   3.368
 5580TIP3    H216747   0.736   2.893   3.377
 5581TIP3   OH216748   0.036   2.257   3.174
 5581TIP3    H116749   0.031   2.352   3.187
 5581TIP3    H216750  -0.014   2.241   3.094
 5582TIP3   OH216751   2.636   1.499   0.590
 5582TIP3    H116752   2.686   1.442   0.648
 5582TIP3    H216753   2.665   1.587   0.612
 5583TIP3   OH216754   2.209   5.934   3.481
 5583TIP3    H116755   2.244   5.852   3.445
 5583TIP3    H216756   2.275   6.000   3.459
 5584TIP3   OH216757   2.232   5.505   0.835
 5584TIP3    H116758   2.231   5.418   0.875
 5584TIP3    H216759   2.174   5.497   0.759
 5585TIP3   OH216760   2.274   2.638   3.356
 5585TIP3    H116761   2.218   2.715   3.345
 5585TIP3    H216762   2.360   2.673   3.376
 5586TIP3   OH216763   4.162   4.108   4.531
 5586TIP3    H116764   4.134   4.017   4.541
 5586TIP3    H216765   4.163   4.143   4.620
 5587TIP3   OH216766   3.789   3.879   1.251
 5587TIP3    H116767   3.711   3.876   1.195
 5587TIP3    H216768   3.862   3.887   1.189
 5588TIP3   OH216769   5.663   1.539   3.156
 5588TIP3    H116770   5.672   1.574   3.067
 5588TIP3    H216771   5.698   1.607   3.213
 5589TIP3   OH216772   2.331   3.779   2.974
 5589TIP3    H116773   2.253   3.743   3.016
 5589TIP3    H216774   2.393   3.706   2.970
 5590TIP3   OH216775   3.155   4.184   0.463
 5590TIP3    H116776   3.209   4.141   0.397
 5590TIP3    H216777   3.103   4.248   0.414
 5591TIP3   OH216778   6.247   3.576   3.688
 5591TIP3    H116779   6.318   3.604   3.747
 5591TIP3    H216780   6.223   3.655   3.640
 5592TIP3   OH216781   3.176   5.393   2.099
 5592TIP3    H116782   3.265   5.424   2.116
 5592TIP3    H216783   3.129   5.408   2.181
 5593TIP3   OH216784   5.498   1.005   4.872
 5593TIP3    H116785   5.565   1.072   4.884
 5593TIP3    H216786   5.441   1.040   4.804
 5594TIP3   OH216787   0.348   1.311   0.629
 5594TIP3    H116788   0.281   1.256   0.670
 5594TIP3    H216789   0.378   1.369   0.699
 5595TIP3   OH216790   2.149   0.513   2.399
 5595TIP3    H116791   2.161   0.599   2.358
 5595TIP3    H216792   2.193   0.521   2.484
 5596TIP3   OH216793   4.627   2.909   3.450
 5596TIP3    H116794   4.600   2.969   3.381
 5596TIP3    H216795   4.575   2.934   3.527
 5597TIP3   OH216796   3.969   3.219   0.679
 5597TIP3    H116797   3.968   3.152   0.610
 5597TIP3    H216798   3.949   3.301   0.633
 5598TIP3   OH216799   4.438   2.993   3.643
 5598TIP3    H116800   4.467   3.035   3.724
 5598TIP3    H216801   4.366   2.936   3.670
 5599TIP3   OH216802   4.130   3.431   3.990
 5599TIP3    H116803   4.062   3.415   4.056
 5599TIP3    H216804   4.119   3.523   3.966
 5600TIP3   OH216805   1.560   2.503   1.075
 5600TIP3    H116806   1.567   2.426   1.132
 5600TIP3    H216807   1.527   2.469   0.992
 5601TIP3   OH216808   4.672   2.708   0.901
 5601TIP3    H116809   4.673   2.620   0.864
 5601TIP3    H216810   4.755   2.716   0.948
 5602TIP3   OH216811   4.307   2.787   4.653
 5602TIP3    H116812   4.313   2.742   4.569
 5602TIP3    H216813   4.304   2.717   4.718
 5603TIP3   OH216814   2.716   4.536   3.373
 5603TIP3    H116815   2.754   4.516   3.287
 5603TIP3    H216816   2.736   4.629   3.386
 5604TIP3   OH216817   3.722   0.302   2.683
 5604TIP3    H116818   3.720   0.215   2.723
 5604TIP3    H216819   3.803   0.341   2.716
 5605TIP3   OH216820   3.946   5.915   1.976
 5605TIP3    H116821   3.953   5.940   1.883
 5605TIP3    H216822   3.984   5.990   2.023
 5606TIP3   OH216823   4.819   4.976   4.644
 5606TIP3    H116824   4.891   4.921   4.614
 5606TIP3    H216825   4.750   4.914   4.669
 5607TIP3   OH216826   4.092   3.063   4.449
 5607TIP3    H116827   4.010   3.110   4.433
 5607TIP3    H216828   4.102   3.064   4.544
 5608TIP3   OH216829   3.411   1.938   3.078
 5608TIP3    H116830   3.499   1.902   3.087
 5608TIP3    H216831   3.379   1.947   3.167
 5609TIP3   OH216832   4.942   1.420   0.250
 5609TIP3    H116833   5.001   1.350   0.222
 5609TIP3    H216834   4.996   1.478   0.303
 5610TIP3   OH216835   6.124   0.879   2.640
 5610TIP3    H116836   6.091   0.844   2.723
 5610TIP3    H216837   6.148   0.969   2.659
 5611TIP3   OH216838   4.946   5.584   2.787
 5611TIP3    H116839   5.008   5.548   2.850
 5611TIP3    H216840   4.958   5.530   2.709
 5612TIP3   OH216841   3.636   0.754   0.958
 5612TIP3    H116842   3.657   0.689   0.890
 5612TIP3    H216843   3.680   0.834   0.930
 5613TIP3   OH216844   5.979   2.206   0.061
 5613TIP3    H116845   5.990   2.113   0.081
 5613TIP3    H216846   5.884   2.221   0.069
 5614TIP3   OH216847   1.538   4.180   5.057
 5614TIP3    H116848   1.501   4.196   5.144
 5614TIP3    H216849   1.515   4.258   5.007
 5615TIP3   OH216850   0.688   4.055   3.686
 5615TIP3    H116851   0.632   4.078   3.612
 5615TIP3    H216852   0.755   3.998   3.650
 5616TIP3   OH216853   5.163   3.194   1.102
 5616TIP3    H116854   5.235   3.242   1.061
 5616TIP3    H216855   5.188   3.102   1.096
 5617TIP3   OH216856   5.123   1.905   1.955
 5617TIP3    H116857   5.190   1.973   1.956
 5617TIP3    H216858   5.051   1.943   1.905
 5618TIP3   OH216859   5.093   2.300   1.177
 5618TIP3    H116860   5.084   2.328   1.268
 5618TIP3    H216861   5.021   2.240   1.162
 5619TIP3   OH216862   4.889   3.058   1.073
 5619TIP3    H116863   4.977   3.084   1.100
 5619TIP3    H216864   4.834   3.134   1.092
 5620TIP3   OH216865   6.037   1.141   0.918
 5620TIP3    H116866   6.090   1.186   0.984
 5620TIP3    H216867   5.998   1.067   0.964
 5621TIP3   OH216868   4.568   4.077   3.412
 5621TIP3    H116869   4.592   4.166   3.437
 5621TIP3    H216870   4.610   4.021   3.477
 5622TIP3   OH216871   0.954   5.066   1.206
 5622TIP3    H116872   0.869   5.021   1.201
 5622TIP3    H216873   0.944   5.141   1.148
 5623TIP3   OH216874   2.194   0.974   2.804
 5623TIP3    H116875   2.206   0.937   2.891
 5623TIP3    H216876   2.155   0.903   2.752
 5624TIP3   OH216877   1.187   4.797   4.280
 5624TIP3    H116878   1.178   4.828   4.189
 5624TIP3    H216879   1.281   4.800   4.297
 5625TIP3   OH216880   5.482   2.373   1.358
 5625TIP3    H116881   5.560   2.426   1.344
 5625TIP3    H216882   5.478   2.361   1.453
 5626TIP3   OH216883   5.328   0.719   4.997
 5626TIP3    H116884   5.321   0.798   5.051
 5626TIP3    H216885   5.284   0.651   5.047
 5627TIP3   OH216886   2.500   0.753   1.839
 5627TIP3    H116887   2.563   0.684   1.819
 5627TIP3    H216888   2.435   0.747   1.770
 5628TIP3   OH216889   1.049   3.615   2.443
 5628TIP3    H116890   1.049   3.533   2.394
 5628TIP3    H216891   1.118   3.605   2.508
 5629TIP3   OH216892   2.453   2.333   1.601
 5629TIP3    H116893   2.529   2.276   1.611
 5629TIP3    H216894   2.428   2.323   1.509
 5630TIP3   OH216895   0.516   3.102   1.642
 5630TIP3    H116896   0.585   3.112   1.576
 5630TIP3    H216897   0.440   3.146   1.604
 5631TIP3   OH216898   4.253   0.746   3.921
 5631TIP3    H116899   4.168   0.737   3.963
 5631TIP3    H216900   4.255   0.837   3.890
 5632TIP3   OH216901   4.577   1.456   4.529
 5632TIP3    H116902   4.514   1.511   4.483
 5632TIP3    H216903   4.532   1.428   4.608
 5633TIP3   OH216904   3.490   5.783   0.626
 5633TIP3    H116905   3.406   5.747   0.598
 5633TIP3    H216906   3.491   5.872   0.591
 5634TIP3   OH216907   5.107   3.136   5.185
 5634TIP3    H116908   5.188   3.101   5.148
 5634TIP3    H216909   5.059   3.172   5.110
 5635TIP3   OH216910   5.841   4.369   2.904
 5635TIP3    H116911   5.841   4.463   2.885
 5635TIP3    H216912   5.924   4.354   2.949
 5636TIP3   OH216913   5.231   4.034   0.191
 5636TIP3    H116914   5.187   4.104   0.143
 5636TIP3    H216915   5.191   4.036   0.279
 5637TIP3   OH216916   4.232   5.914   4.194
 5637TIP3    H116917   4.145   5.899   4.157
 5637TIP3    H216918   4.231   5.867   4.277
 5638TIP3   OH216919   6.254   4.776   0.177
 5638TIP3    H116920   6.226   4.863   0.149
 5638TIP3    H216921   6.230   4.772   0.270
 5639TIP3   OH216922   3.551   3.715   0.734
 5639TIP3    H116923   3.515   3.659   0.665
 5639TIP3    H216924   3.643   3.689   0.740
 5640TIP3   OH216925   4.830   3.112   2.225
 5640TIP3    H116926   4.850   3.157   2.143
 5640TIP3    H216927   4.772   3.040   2.200
 5641TIP3   OH216928   4.012   0.399   4.623
 5641TIP3    H116929   3.945   0.467   4.609
 5641TIP3    H216930   3.981   0.324   4.572
 5642TIP3   OH216931   4.261   4.412   4.524
 5642TIP3    H116932   4.293   4.331   4.563
 5642TIP3    H216933   4.185   4.384   4.471
 5643TIP3   OH216934   2.002   5.674   1.946
 5643TIP3    H116935   1.994   5.602   1.883
 5643TIP3    H216936   1.912   5.698   1.966
 5644TIP3   OH216937   5.202   5.784   3.947
 5644TIP3    H116938   5.269   5.851   3.939
 5644TIP3    H216939   5.152   5.809   4.026
 5645TIP3   OH216940   1.834   2.974   3.840
 5645TIP3    H116941   1.849   3.036   3.768
 5645TIP3    H216942   1.778   3.023   3.901
 5646TIP3   OH216943   5.619   0.185   2.396
 5646TIP3    H116944   5.691   0.236   2.358
 5646TIP3    H216945   5.650   0.160   2.483
 5647TIP3   OH216946   2.041   3.075   4.963
 5647TIP3    H116947   2.122   3.059   5.012
 5647TIP3    H216948   2.006   3.156   5.001
 5648TIP3   OH216949   5.709   2.941   0.348
 5648TIP3    H116950   5.776   3.004   0.321
 5648TIP3    H216951   5.747   2.855   0.329
 5649TIP3   OH216952   5.783   3.402   1.520
 5649TIP3    H116953   5.851   3.465   1.497
 5649TIP3    H216954   5.831   3.324   1.548
 5650TIP3   OH216955   1.077   0.772   4.635
 5650TIP3    H116956   1.106   0.819   4.556
 5650TIP3    H216957   1.035   0.840   4.688
 5651TIP3   OH216958   3.200   5.685   5.053
 5651TIP3    H116959   3.215   5.637   5.135
 5651TIP3    H216960   3.250   5.767   5.065
 5652TIP3   OH216961   2.748   2.752   2.400
 5652TIP3    H116962   2.835   2.716   2.416
 5652TIP3    H216963   2.716   2.703   2.324
 5653TIP3   OH216964   1.222   5.245   3.446
 5653TIP3    H116965   1.132   5.259   3.475
 5653TIP3    H216966   1.268   5.326   3.468
 5654TIP3   OH216967   0.862   3.487   2.160
 5654TIP3    H116968   0.906   3.489   2.075
 5654TIP3    H216969   0.906   3.415   2.207
 5655TIP3   OH216970   4.257   0.438   3.853
 5655TIP3    H116971   4.173   0.437   3.897
 5655TIP3    H216972   4.321   0.454   3.923
 5656TIP3   OH216973   3.306   5.334   0.663
 5656TIP3    H116974   3.382   5.318   0.607
 5656TIP3    H216975   3.234   5.287   0.620
 5657TIP3   OH216976   6.397   3.078   3.843
 5657TIP3    H116977   6.389   3.088   3.938
 5657TIP3    H216978   6.309   3.054   3.814
 5658TIP3   OH216979   2.815   5.309   2.910
 5658TIP3    H116980   2.754   5.346   2.847
 5658TIP3    H216981   2.867   5.383   2.939
 5659TIP3   OH216982   4.007   3.119   4.082
 5659TIP3    H116983   4.029   3.029   4.057
 5659TIP3    H216984   3.944   3.148   4.017
 5660TIP3   OH216985   5.708   1.972   2.492
 5660TIP3    H116986   5.734   2.063   2.507
 5660TIP3    H216987   5.640   1.956   2.557
 5661TIP3   OH216988   0.679   1.002   1.652
 5661TIP3    H116989   0.721   1.083   1.621
 5661TIP3    H216990   0.728   0.979   1.731
 5662TIP3   OH216991   1.472   5.798   0.989
 5662TIP3    H116992   1.541   5.732   0.995
 5662TIP3    H216993   1.490   5.846   0.909
 5663TIP3   OH216994   1.468   4.554   4.725
 5663TIP3    H116995   1.427   4.468   4.718
 5663TIP3    H216996   1.444   4.599   4.644
 5664TIP3   OH216997   2.083   4.207   2.684
 5664TIP3    H116998   2.144   4.135   2.668
 5664TIP3    H216999   2.133   4.270   2.736
 5665TIP3   OH217000   5.143   0.768   0.025
 5665TIP3    H117001   5.082   0.832  -0.011
 5665TIP3    H217002   5.227   0.812   0.028
 5666TIP3   OH217003   2.384   1.856   5.085
 5666TIP3    H117004   2.436   1.922   5.132
 5666TIP3    H217005   2.354   1.901   5.006
 5667TIP3   OH217006   0.432   0.071   1.213
 5667TIP3    H117007   0.347   0.039   1.181
 5667TIP3    H217008   0.481   0.092   1.134
 5668TIP3   OH217009   0.788   3.141   1.045
 5668TIP3    H117010   0.853   3.075   1.025
 5668TIP3    H217011   0.720   3.093   1.094
 5669TIP3   OH217012   2.638   2.054   3.384
 5669TIP3    H117013   2.631   2.014   3.470
 5669TIP3    H217014   2.660   2.145   3.402
 5670TIP3   OH217015   5.994   0.824   2.327
 5670TIP3    H117016   6.037   0.837   2.243
 5670TIP3    H217017   5.911   0.870   2.319
 5671TIP3   OH217018   4.948   5.286   0.951
 5671TIP3    H117019   4.956   5.281   1.046
 5671TIP3    H217020   4.889   5.360   0.935
 5672TIP3   OH217021   0.470   0.264   1.601
 5672TIP3    H117022   0.497   0.338   1.655
 5672TIP3    H217023   0.548   0.242   1.550
 5673TIP3   OH217024   1.320   5.880   3.112
 5673TIP3    H117025   1.306   5.826   3.034
 5673TIP3    H217026   1.335   5.969   3.078
 5674TIP3   OH217027   1.643   2.825   1.195
 5674TIP3    H117028   1.603   2.838   1.109
 5674TIP3    H217029   1.569   2.829   1.256
 5675TIP3   OH217030   0.484   5.085   3.520
 5675TIP3    H117031   0.513   5.174   3.538
 5675TIP3    H217032   0.564   5.033   3.521
 5676TIP3   OH217033   3.951   1.365   1.733
 5676TIP3    H117034   3.893   1.421   1.681
 5676TIP3    H217035   4.022   1.423   1.761
 5677TIP3   OH217036   4.531   5.759   1.691
 5677TIP3    H117037   4.532   5.723   1.780
 5677TIP3    H217038   4.544   5.853   1.703
 5678TIP3   OH217039   4.005   0.429   4.028
 5678TIP3    H117040   3.973   0.495   3.966
 5678TIP3    H217041   3.968   0.455   4.112
 5679TIP3   OH217042   4.269   2.954   1.944
 5679TIP3    H117043   4.323   2.891   1.896
 5679TIP3    H217044   4.328   3.027   1.961
 5680TIP3   OH217045   5.161   1.547   0.367
 5680TIP3    H117046   5.224   1.617   0.382
 5680TIP3    H217047   5.202   1.469   0.404
 5681TIP3   OH217048   2.788   4.282   3.191
 5681TIP3    H117049   2.724   4.264   3.259
 5681TIP3    H217050   2.800   4.198   3.147
 5682TIP3   OH217051   0.420   3.573   2.856
 5682TIP3    H117052   0.397   3.560   2.764
 5682TIP3    H217053   0.503   3.620   2.853
 5683TIP3   OH217054   0.971   4.176   4.604
 5683TIP3    H117055   1.015   4.143   4.526
 5683TIP3    H217056   1.005   4.124   4.676
 5684TIP3   OH217057   1.184   4.510   0.634
 5684TIP3    H117058   1.276   4.503   0.608
 5684TIP3    H217059   1.148   4.424   0.614
 5685TIP3   OH217060   6.133   2.925   4.017
 5685TIP3    H117061   6.075   2.850   4.030
 5685TIP3    H217062   6.171   2.941   4.103
 5686TIP3   OH217063   0.264   1.215   3.388
 5686TIP3    H117064   0.240   1.290   3.335
 5686TIP3    H217065   0.204   1.146   3.361
 5687TIP3   OH217066   1.436   5.418   0.143
 5687TIP3    H117067   1.402   5.328   0.146
 5687TIP3    H217068   1.510   5.417   0.204
 5688TIP3   OH217069   0.867   5.763   1.388
 5688TIP3    H117070   0.808   5.834   1.415
 5688TIP3    H217071   0.901   5.791   1.303
 5689TIP3   OH217072   0.844   5.820   4.762
 5689TIP3    H117073   0.894   5.831   4.842
 5689TIP3    H217074   0.755   5.846   4.785
 5690TIP3   OH217075   3.591   3.463   4.440
 5690TIP3    H117076   3.669   3.462   4.384
 5690TIP3    H217077   3.573   3.371   4.458
 5691TIP3   OH217078   4.677   0.333   3.023
 5691TIP3    H117079   4.692   0.406   3.083
 5691TIP3    H217080   4.602   0.360   2.970
 5692TIP3   OH217081   4.469   4.482   4.120
 5692TIP3    H117082   4.390   4.435   4.093
 5692TIP3    H217083   4.522   4.416   4.164
 5693TIP3   OH217084   3.984   1.137   4.348
 5693TIP3    H117085   3.960   1.157   4.257
 5693TIP3    H217086   4.077   1.159   4.354
 5694TIP3   OH217087   2.421   0.653   2.450
 5694TIP3    H117088   2.391   0.712   2.519
 5694TIP3    H217089   2.502   0.693   2.417
 5695TIP3   OH217090   6.043   1.723   1.723
 5695TIP3    H117091   5.993   1.805   1.725
 5695TIP3    H217092   6.124   1.745   1.676
 5696TIP3   OH217093   1.136   5.848   3.318
 5696TIP3    H117094   1.224   5.839   3.280
 5696TIP3    H217095   1.138   5.932   3.363
 5697TIP3   OH217096   3.577   5.751   3.360
 5697TIP3    H117097   3.658   5.738   3.311
 5697TIP3    H217098   3.579   5.843   3.387
 5698TIP3   OH217099   5.036   2.183   3.711
 5698TIP3    H117100   5.018   2.133   3.791
 5698TIP3    H217101   4.952   2.221   3.687
 5699TIP3   OH217102   3.040   0.329   2.584
 5699TIP3    H117103   2.989   0.270   2.640
 5699TIP3    H217104   3.010   0.417   2.610
 5700TIP3   OH217105   2.704   5.245   4.552
 5700TIP3    H117106   2.758   5.194   4.613
 5700TIP3    H217107   2.666   5.179   4.494
 5701TIP3   OH217108   1.625   1.207   0.824
 5701TIP3    H117109   1.558   1.269   0.853
 5701TIP3    H217110   1.686   1.202   0.898
 5702TIP3   OH217111   2.051   5.139   2.693
 5702TIP3    H117112   1.989   5.077   2.656
 5702TIP3    H217113   2.122   5.144   2.629
 5703TIP3   OH217114   3.557   0.867   3.518
 5703TIP3    H117115   3.592   0.942   3.470
 5703TIP3    H217116   3.588   0.791   3.468
 5704TIP3   OH217117   6.046   3.501   2.168
 5704TIP3    H117118   6.094   3.548   2.101
 5704TIP3    H217119   6.084   3.532   2.251
 5705TIP3   OH217120   4.640   1.013   0.804
 5705TIP3    H117121   4.641   0.947   0.874
 5705TIP3    H217122   4.733   1.032   0.789
 5706TIP3   OH217123   5.616   3.680   1.834
 5706TIP3    H117124   5.565   3.754   1.801
 5706TIP3    H217125   5.579   3.604   1.789
 5707TIP3   OH217126   5.831   2.689   0.383
 5707TIP3    H117127   5.927   2.687   0.381
 5707TIP3    H217128   5.805   2.597   0.375
 5708TIP3   OH217129   3.619   2.651   4.548
 5708TIP3    H117130   3.697   2.596   4.547
 5708TIP3    H217131   3.650   2.737   4.518
 5709TIP3   OH217132   2.469   5.782   4.767
 5709TIP3    H117133   2.394   5.816   4.717
 5709TIP3    H217134   2.541   5.781   4.704
 5710TIP3   OH217135   1.951   4.634   4.661
 5710TIP3    H117136   2.019   4.669   4.604
 5710TIP3    H217137   2.000   4.589   4.730
 5711TIP3   OH217138   2.648   1.174   3.963
 5711TIP3    H117139   2.715   1.199   4.027
 5711TIP3    H217140   2.584   1.123   4.013
 5712TIP3   OH217141   1.490   4.579   2.313
 5712TIP3    H117142   1.459   4.665   2.286
 5712TIP3    H217143   1.488   4.581   2.409
 5713TIP3   OH217144   1.765   1.044   4.209
 5713TIP3    H117145   1.691   1.011   4.260
 5713TIP3    H217146   1.795   0.969   4.157
 5714TIP3   OH217147   2.573   4.249   1.128
 5714TIP3    H117148   2.496   4.290   1.088
 5714TIP3    H217149   2.633   4.322   1.143
 5715TIP3   OH217150   6.205   1.652   4.026
 5715TIP3    H117151   6.250   1.723   4.072
 5715TIP3    H217152   6.215   1.673   3.934
 5716TIP3   OH217153   3.550   2.886   4.713
 5716TIP3    H117154   3.508   2.869   4.798
 5716TIP3    H217155   3.561   2.799   4.674
 5717TIP3   OH217156   2.546   5.127   1.141
 5717TIP3    H117157   2.473   5.067   1.151
 5717TIP3    H217158   2.574   5.116   1.050
 5718TIP3   OH217159   2.614   4.280   5.078
 5718TIP3    H117160   2.609   4.323   5.164
 5718TIP3    H217161   2.677   4.332   5.029
 5719TIP3   OH217162   4.397   1.181   3.584
 5719TIP3    H117163   4.373   1.134   3.504
 5719TIP3    H217164   4.471   1.236   3.558
 5720TIP3   OH217165   0.588   0.951   0.503
 5720TIP3    H117166   0.596   0.856   0.507
 5720TIP3    H217167   0.629   0.982   0.584
 5721TIP3   OH217168   1.724   4.470   2.541
 5721TIP3    H117169   1.781   4.441   2.613
 5721TIP3    H217170   1.747   4.562   2.528
 5722TIP3   OH217171   5.395   2.676   4.569
 5722TIP3    H117172   5.456   2.699   4.639
 5722TIP3    H217173   5.411   2.583   4.552
 5723TIP3   OH217174   2.879   5.396   4.192
 5723TIP3    H117175   2.815   5.325   4.194
 5723TIP3    H217176   2.855   5.451   4.267
 5724TIP3   OH217177   6.215   5.735   2.804
 5724TIP3    H117178   6.309   5.753   2.802
 5724TIP3    H217179   6.177   5.797   2.741
 5725TIP3   OH217180   5.352   3.481   1.894
 5725TIP3    H117181   5.397   3.423   1.832
 5725TIP3    H217182   5.355   3.567   1.852
 5726TIP3   OH217183   3.807   5.092   0.472
 5726TIP3    H117184   3.807   5.139   0.555
 5726TIP3    H217185   3.743   5.022   0.484
 5727TIP3   OH217186   3.550   2.655   3.680
 5727TIP3    H117187   3.614   2.634   3.612
 5727TIP3    H217188   3.589   2.728   3.729
 5728TIP3   OH217189   1.593   3.861   1.644
 5728TIP3    H117190   1.680   3.895   1.625
 5728TIP3    H217191   1.550   3.856   1.559
 5729TIP3   OH217192   3.286   3.805   2.297
 5729TIP3    H117193   3.210   3.751   2.278
 5729TIP3    H217194   3.251   3.881   2.343
 5730TIP3   OH217195   3.195   4.347   1.469
 5730TIP3    H117196   3.143   4.385   1.398
 5730TIP3    H217197   3.137   4.281   1.508
 5731TIP3   OH217198   0.146   3.190   0.775
 5731TIP3    H117199   0.152   3.104   0.733
 5731TIP3    H217200   0.061   3.188   0.821
 5732TIP3   OH217201   0.857   5.380   3.974
 5732TIP3    H117202   0.864   5.288   3.998
 5732TIP3    H217203   0.947   5.413   3.978
 5733TIP3   OH217204   6.250   2.162   4.306
 5733TIP3    H117205   6.211   2.158   4.393
 5733TIP3    H217206   6.333   2.115   4.315
 5734TIP3   OH217207   3.541   2.690   4.987
 5734TIP3    H117208   3.457   2.695   4.942
 5734TIP3    H217209   3.522   2.645   5.069
 5735TIP3   OH217210   5.597   1.350   4.596
 5735TIP3    H117211   5.589   1.445   4.583
 5735TIP3    H217212   5.531   1.312   4.538
 5736TIP3   OH217213   0.103   3.577   1.309
 5736TIP3    H117214   0.061   3.641   1.251
 5736TIP3    H217215   0.032   3.543   1.363
 5737TIP3   OH217216   0.993   4.045   3.272
 5737TIP3    H117217   0.999   3.954   3.303
 5737TIP3    H217218   1.038   4.045   3.188
 5738TIP3   OH217219   4.188   3.387   3.331
 5738TIP3    H117220   4.239   3.461   3.364
 5738TIP3    H217221   4.101   3.400   3.366
 5739TIP3   OH217222   5.578   4.851   3.059
 5739TIP3    H117223   5.628   4.919   3.105
 5739TIP3    H217224   5.514   4.900   3.007
 5740TIP3   OH217225   6.279   5.419   3.205
 5740TIP3    H117226   6.239   5.487   3.258
 5740TIP3    H217227   6.291   5.345   3.265
 5741TIP3   OH217228   2.079   3.773   4.320
 5741TIP3    H117229   2.128   3.732   4.392
 5741TIP3    H217230   2.118   3.737   4.241
 5742TIP3   OH217231   2.261   0.874   1.703
 5742TIP3    H117232   2.223   0.918   1.779
 5742TIP3    H217233   2.186   0.857   1.645
 5743TIP3   OH217234   3.723   3.993   4.238
 5743TIP3    H117235   3.650   4.055   4.239
 5743TIP3    H217236   3.685   3.910   4.211
 5744TIP3   OH217237   0.376   5.781   0.262
 5744TIP3    H117238   0.374   5.875   0.244
 5744TIP3    H217239   0.284   5.758   0.279
 5745TIP3   OH217240   4.971   4.871   1.822
 5745TIP3    H117241   4.998   4.783   1.851
 5745TIP3    H217242   4.894   4.855   1.768
 5746TIP3   OH217243   0.325   4.386   4.620
 5746TIP3    H117244   0.353   4.473   4.593
 5746TIP3    H217245   0.406   4.336   4.628
 5747TIP3   OH217246   4.756  -0.007   0.411
 5747TIP3    H117247   4.830   0.053   0.421
 5747TIP3    H217248   4.681   0.041   0.445
 5748TIP3   OH217249   0.827   2.927   2.451
 5748TIP3    H117250   0.893   2.917   2.382
 5748TIP3    H217251   0.840   2.850   2.507
 5749TIP3   OH217252   0.065   1.358   3.589
 5749TIP3    H117253   0.086   1.265   3.583
 5749TIP3    H217254  -0.011   1.370   3.532
 5750TIP3   OH217255   0.277   5.152   4.582
 5750TIP3    H117256   0.198   5.104   4.605
 5750TIP3    H217257   0.255   5.198   4.501
 5751TIP3   OH217258   0.047   0.234   3.667
 5751TIP3    H117259   0.135   0.199   3.676
 5751TIP3    H217260  -0.007   0.175   3.720
 5752TIP3   OH217261   1.171   4.452   4.141
 5752TIP3    H117262   1.191   4.546   4.145
 5752TIP3    H217263   1.126   4.433   4.223
 5753TIP3   OH217264   6.134   1.406   1.027
 5753TIP3    H117265   6.113   1.486   1.076
 5753TIP3    H217266   6.215   1.427   0.980
 5754TIP3   OH217267   0.243   0.108   2.165
 5754TIP3    H117268   0.244   0.173   2.094
 5754TIP3    H217269   0.154   0.111   2.199
 5755TIP3   OH217270   0.506   4.456   5.138
 5755TIP3    H117271   0.486   4.415   5.054
 5755TIP3    H217272   0.565   4.394   5.181
 5756TIP3   OH217273   0.813   2.450   2.638
 5756TIP3    H117274   0.891   2.458   2.583
 5756TIP3    H217275   0.775   2.538   2.637
 5757TIP3   OH217276   5.513   0.786   2.831
 5757TIP3    H117277   5.554   0.784   2.745
 5757TIP3    H217278   5.578   0.829   2.887
 5758TIP3   OH217279   4.032   5.489   3.698
 5758TIP3    H117280   4.069   5.544   3.768
 5758TIP3    H217281   4.108   5.443   3.662
 5759TIP3   OH217282   1.721   5.020   2.017
 5759TIP3    H117283   1.702   5.029   2.110
 5759TIP3    H217284   1.662   5.084   1.975
 5760TIP3   OH217285   4.184   4.315   2.865
 5760TIP3    H117286   4.278   4.332   2.853
 5760TIP3    H217287   4.153   4.389   2.918
 5761TIP3   OH217288   1.829  -0.037   2.712
 5761TIP3    H117289   1.842  -0.026   2.617
 5761TIP3    H217290   1.833   0.052   2.747
 5762TIP3   OH217291   0.229   4.885   2.716
 5762TIP3    H117292   0.248   4.792   2.704
 5762TIP3    H217293   0.134   4.889   2.725
 5763TIP3   OH217294   0.280   4.870   0.399
 5763TIP3    H117295   0.209   4.931   0.380
 5763TIP3    H217296   0.359   4.914   0.367
 5764TIP3   OH217297   0.048   1.286   5.060
 5764TIP3    H117298   0.111   1.324   5.122
 5764TIP3    H217299  -0.037   1.299   5.101
 5765TIP3   OH217300   2.726   1.187   0.284
 5765TIP3    H117301   2.808   1.139   0.268
 5765TIP3    H217302   2.742   1.274   0.247
 5766TIP3   OH217303   4.735   4.073   4.712
 5766TIP3    H117304   4.809   4.024   4.677
 5766TIP3    H217305   4.658   4.027   4.679
 5767TIP3   OH217306   4.134   4.327   2.318
 5767TIP3    H117307   4.195   4.296   2.385
 5767TIP3    H217308   4.124   4.254   2.258
 5768TIP3   OH217309   1.480   4.463   0.569
 5768TIP3    H117310   1.485   4.478   0.474
 5768TIP3    H217311   1.571   4.466   0.598
 5769TIP3   OH217312   5.442   0.494   3.202
 5769TIP3    H117313   5.373   0.482   3.267
 5769TIP3    H217314   5.501   0.558   3.241
 5770TIP3   OH217315   0.638   2.208   3.935
 5770TIP3    H117316   0.543   2.225   3.938
 5770TIP3    H217317   0.665   2.206   4.026
 5771TIP3   OH217318   3.163   5.884   3.862
 5771TIP3    H117319   3.189   5.920   3.777
 5771TIP3    H217320   3.104   5.951   3.898
 5772TIP3   OH217321   4.376   5.949   3.843
 5772TIP3    H117322   4.350   6.009   3.913
 5772TIP3    H217323   4.380   5.863   3.885
 5773TIP3   OH217324   5.318   0.601   1.220
 5773TIP3    H117325   5.283   0.682   1.258
 5773TIP3    H217326   5.351   0.551   1.295
 5774TIP3   OH217327   1.880   2.112   0.465
 5774TIP3    H117328   1.948   2.101   0.533
 5774TIP3    H217329   1.846   2.200   0.480
 5775TIP3   OH217330   5.719   2.510   1.334
 5775TIP3    H117331   5.801   2.500   1.285
 5775TIP3    H217332   5.713   2.604   1.352
 5776TIP3   OH217333   2.533   4.505   4.799
 5776TIP3    H117334   2.581   4.422   4.796
 5776TIP3    H217335   2.513   4.525   4.708
 5777TIP3   OH217336   0.996   5.399   1.457
 5777TIP3    H117337   0.934   5.447   1.513
 5777TIP3    H217338   0.972   5.307   1.468
 5778TIP3   OH217339   2.189   2.950   4.698
 5778TIP3    H117340   2.156   2.866   4.665
 5778TIP3    H217341   2.136   2.967   4.776
 5779TIP3   OH217342   0.150   1.842   2.542
 5779TIP3    H117343   0.143   1.747   2.550
 5779TIP3    H217344   0.239   1.862   2.571
 5780TIP3   OH217345   1.300   5.724   3.622
 5780TIP3    H117346   1.263   5.810   3.604
 5780TIP3    H217347   1.293   5.715   3.717
 5781TIP3   OH217348   4.700   3.121   3.663
 5781TIP3    H117349   4.770   3.134   3.599
 5781TIP3    H217350   4.620   3.145   3.616
 5782TIP3   OH217351   1.383   1.622   3.223
 5782TIP3    H117352   1.287   1.628   3.229
 5782TIP3    H217353   1.398   1.561   3.150
 5783TIP3   OH217354   1.228   5.096   2.649
 5783TIP3    H117355   1.138   5.122   2.671
 5783TIP3    H217356   1.233   5.004   2.672
 5784TIP3   OH217357   3.560   4.918   1.772
 5784TIP3    H117358   3.521   4.969   1.701
 5784TIP3    H217359   3.625   4.977   1.812
 5785TIP3   OH217360   1.477   0.024   2.043
 5785TIP3    H117361   1.438   0.041   2.128
 5785TIP3    H217362   1.489   0.110   2.004
 5786TIP3   OH217363   0.388   0.983   1.225
 5786TIP3    H117364   0.468   0.943   1.193
 5786TIP3    H217365   0.400   0.989   1.320
 5787TIP3   OH217366   1.559   2.508   3.416
 5787TIP3    H117367   1.561   2.523   3.322
 5787TIP3    H217368   1.551   2.413   3.425
 5788TIP3   OH217369   0.261   3.579   0.462
 5788TIP3    H117370   0.307   3.573   0.378
 5788TIP3    H217371   0.187   3.519   0.452
 5789TIP3   OH217372   2.657   4.917   2.484
 5789TIP3    H117373   2.716   4.915   2.409
 5789TIP3    H217374   2.705   4.873   2.554
 5790TIP3   OH217375   1.808   4.389   1.465
 5790TIP3    H117376   1.883   4.331   1.448
 5790TIP3    H217377   1.733   4.342   1.429
 5791TIP3   OH217378   2.687   4.094   3.899
 5791TIP3    H117379   2.689   4.189   3.907
 5791TIP3    H217380   2.634   4.077   3.820
 5792TIP3   OH217381   5.461   2.187   2.899
 5792TIP3    H117382   5.488   2.241   2.973
 5792TIP3    H217383   5.377   2.150   2.926
 5793TIP3   OH217384   4.250   4.697   1.496
 5793TIP3    H117385   4.231   4.779   1.450
 5793TIP3    H217386   4.295   4.643   1.431
 5794TIP3   OH217387   1.777   0.697   1.601
 5794TIP3    H117388   1.742   0.751   1.671
 5794TIP3    H217389   1.733   0.728   1.522
 5795TIP3   OH217390   3.405   2.049   0.996
 5795TIP3    H117391   3.311   2.055   1.011
 5795TIP3    H217392   3.445   2.094   1.071
 5796TIP3   OH217393   3.793   4.758   2.606
 5796TIP3    H117394   3.854   4.699   2.651
 5796TIP3    H217395   3.836   4.779   2.524
 5797TIP3   OH217396   3.242   0.877   3.492
 5797TIP3    H117397   3.332   0.845   3.501
 5797TIP3    H217398   3.230   0.938   3.564
 5798TIP3   OH217399   0.239   5.250   2.464
 5798TIP3    H117400   0.174   5.276   2.529
 5798TIP3    H217401   0.268   5.333   2.425
 5799TIP3   OH217402   5.087   4.102   4.678
 5799TIP3    H117403   5.167   4.128   4.634
 5799TIP3    H217404   5.061   4.179   4.729
 5800TIP3   OH217405   2.846   0.064   3.095
 5800TIP3    H117406   2.931   0.045   3.133
 5800TIP3    H217407   2.857   0.149   3.051
 5801TIP3   OH217408   3.997   3.298   2.890
 5801TIP3    H117409   4.069   3.340   2.843
 5801TIP3    H217410   4.011   3.320   2.982
 5802TIP3   OH217411   3.584   1.709   3.986
 5802TIP3    H117412   3.501   1.697   3.938
 5802TIP3    H217413   3.627   1.781   3.941
 5803TIP3   OH217414   3.610   3.206   4.433
 5803TIP3    H117415   3.632   3.192   4.341
 5803TIP3    H217416   3.588   3.119   4.466
 5804TIP3   OH217417   3.368   5.724   1.037
 5804TIP3    H117418   3.329   5.809   1.020
 5804TIP3    H217419   3.350   5.673   0.958
 5805TIP3   OH217420   5.330   5.316   2.727
 5805TIP3    H117421   5.325   5.371   2.649
 5805TIP3    H217422   5.298   5.231   2.698
 5806TIP3   OH217423   2.932   3.621   1.779
 5806TIP3    H117424   2.889   3.538   1.797
 5806TIP3    H217425   2.901   3.680   1.847
 5807TIP3   OH217426   3.370   1.926   0.012
 5807TIP3    H117427   3.350   1.946   0.104
 5807TIP3    H217428   3.364   2.010  -0.033
 5808TIP3   OH217429   4.212   1.054   3.082
 5808TIP3    H117430   4.242   1.134   3.040
 5808TIP3    H217431   4.231   0.985   3.020
 5809TIP3   OH217432   4.829   5.445   4.961
 5809TIP3    H117433   4.890   5.517   4.979
 5809TIP3    H217434   4.818   5.446   4.866
 5810TIP3   OH217435   4.815   4.599   0.481
 5810TIP3    H117436   4.768   4.515   0.478
 5810TIP3    H217437   4.838   4.616   0.389
 5811TIP3   OH217438   1.315   1.553   2.788
 5811TIP3    H117439   1.266   1.489   2.736
 5811TIP3    H217440   1.284   1.638   2.756
 5812TIP3   OH217441   4.186   2.397   0.956
 5812TIP3    H117442   4.214   2.402   1.047
 5812TIP3    H217443   4.220   2.477   0.916
 5813TIP3   OH217444   2.945   2.227   4.298
 5813TIP3    H117445   2.940   2.133   4.315
 5813TIP3    H217446   2.856   2.251   4.272
 5814TIP3   OH217447   0.738   1.228   3.125
 5814TIP3    H117448   0.757   1.163   3.057
 5814TIP3    H217449   0.655   1.268   3.097
 5815TIP3   OH217450   1.996   4.807   1.631
 5815TIP3    H117451   1.979   4.757   1.712
 5815TIP3    H217452   1.927   4.780   1.571
 5816TIP3   OH217453   6.275   0.669   0.322
 5816TIP3    H117454   6.366   0.699   0.314
 5816TIP3    H217455   6.255   0.680   0.415
 5817TIP3   OH217456   4.766   4.253   3.936
 5817TIP3    H117457   4.813   4.322   3.889
 5817TIP3    H217458   4.830   4.183   3.945
 5818TIP3   OH217459   2.418   3.595   4.961
 5818TIP3    H117460   2.453   3.592   5.050
 5818TIP3    H217461   2.414   3.688   4.939
 5819TIP3   OH217462   5.227   3.520   4.540
 5819TIP3    H117463   5.282   3.442   4.554
 5819TIP3    H217464   5.254   3.553   4.455
 5820TIP3   OH217465   4.510   1.673   3.439
 5820TIP3    H117466   4.470   1.748   3.395
 5820TIP3    H217467   4.438   1.611   3.451
 5821TIP3   OH217468   5.969   4.330   2.383
 5821TIP3    H117469   5.959   4.424   2.397
 5821TIP3    H217470   6.032   4.302   2.449
 5822TIP3   OH217471   6.141   2.850   5.048
 5822TIP3    H117472   6.146   2.872   5.141
 5822TIP3    H217473   6.155   2.934   5.003
 5823TIP3   OH217474   5.167   2.841   2.568
 5823TIP3    H117475   5.089   2.854   2.513
 5823TIP3    H217476   5.232   2.803   2.509
 5824TIP3   OH217477   6.109   2.476   0.341
 5824TIP3    H117478   6.124   2.382   0.349
 5824TIP3    H217479   6.125   2.495   0.249
 5825TIP3   OH217480   5.412   0.005   2.745
 5825TIP3    H117481   5.428  -0.015   2.838
 5825TIP3    H217482   5.336   0.064   2.746
 5826TIP3   OH217483   3.900   0.268   1.634
 5826TIP3    H117484   3.957   0.336   1.669
 5826TIP3    H217485   3.959   0.196   1.611
 5827TIP3   OH217486   4.798   2.003   0.646
 5827TIP3    H117487   4.813   1.952   0.725
 5827TIP3    H217488   4.886   2.021   0.612
 5828TIP3   OH217489   0.211   3.830   4.261
 5828TIP3    H117490   0.186   3.751   4.308
 5828TIP3    H217491   0.307   3.829   4.263
 5829TIP3   OH217492   1.799   3.737   1.027
 5829TIP3    H117493   1.879   3.724   1.078
 5829TIP3    H217494   1.795   3.661   0.969
 5830TIP3   OH217495   5.140   1.422   0.710
 5830TIP3    H117496   5.154   1.500   0.763
 5830TIP3    H217497   5.045   1.414   0.702
 5831TIP3   OH217498   4.117   1.270   3.304
 5831TIP3    H117499   4.027   1.299   3.318
 5831TIP3    H217500   4.156   1.337   3.249
 5832TIP3   OH217501   3.307   1.957   3.328
 5832TIP3    H117502   3.250   1.891   3.368
 5832TIP3    H217503   3.376   1.972   3.393
 5833TIP3   OH217504   6.209   1.178   4.582
 5833TIP3    H117505   6.226   1.192   4.675
 5833TIP3    H217506   6.115   1.160   4.577
 5834TIP3   OH217507   2.310   3.444   0.452
 5834TIP3    H117508   2.337   3.536   0.447
 5834TIP3    H217509   2.233   3.445   0.509
 5835TIP3   OH217510   2.090   4.815   3.532
 5835TIP3    H117511   2.034   4.745   3.497
 5835TIP3    H217512   2.134   4.851   3.455
 5836TIP3   OH217513   5.581   1.481   0.349
 5836TIP3    H117514   5.651   1.526   0.396
 5836TIP3    H217515   5.508   1.543   0.347
 5837TIP3   OH217516   2.148   1.313   2.104
 5837TIP3    H117517   2.213   1.243   2.103
 5837TIP3    H217518   2.193   1.386   2.147
 5838TIP3   OH217519   0.379   4.766   4.068
 5838TIP3    H117520   0.429   4.848   4.060
 5838TIP3    H217521   0.385   4.726   3.982
 5839TIP3   OH217522   1.811   3.064   0.475
 5839TIP3    H117523   1.762   3.136   0.436
 5839TIP3    H217524   1.837   3.010   0.401
 5840TIP3   OH217525   1.719   3.458   2.371
 5840TIP3    H117526   1.666   3.534   2.345
 5840TIP3    H217527   1.720   3.402   2.293
 5841TIP3   OH217528   0.050   3.196   1.445
 5841TIP3    H117529   0.032   3.194   1.351
 5841TIP3    H217530  -0.032   3.169   1.486
 5842TIP3   OH217531   4.821   5.320   2.873
 5842TIP3    H117532   4.878   5.396   2.860
 5842TIP3    H217533   4.860   5.274   2.948
 5843TIP3   OH217534   4.858   5.546   4.686
 5843TIP3    H117535   4.770   5.583   4.684
 5843TIP3    H217536   4.916   5.622   4.683
 5844TIP3   OH217537   0.388   1.982   5.199
 5844TIP3    H117538   0.319   2.039   5.232
 5844TIP3    H217539   0.342   1.906   5.164
 5845TIP3   OH217540   3.072   1.201   1.772
 5845TIP3    H117541   3.016   1.142   1.824
 5845TIP3    H217542   3.159   1.161   1.775
 5846TIP3   OH217543   3.575   2.064   1.699
 5846TIP3    H117544   3.539   1.999   1.638
 5846TIP3    H217545   3.498   2.105   1.738
 5847TIP3   OH217546   4.820   5.049   1.342
 5847TIP3    H117547   4.904   5.008   1.363
 5847TIP3    H217548   4.756   4.979   1.350
 5848TIP3   OH217549   4.652   4.849   3.666
 5848TIP3    H117550   4.728   4.894   3.703
 5848TIP3    H217551   4.640   4.888   3.579
 5849TIP3   OH217552   2.584   4.559   3.855
 5849TIP3    H117553   2.506   4.517   3.821
 5849TIP3    H217554   2.601   4.631   3.794
 5850TIP3   OH217555   3.058   3.914   0.577
 5850TIP3    H117556   3.119   3.981   0.547
 5850TIP3    H217557   2.984   3.963   0.614
 5851TIP3   OH217558   5.528   0.725   0.051
 5851TIP3    H117559   5.589   0.734  -0.023
 5851TIP3    H217560   5.452   0.682   0.013
 5852TIP3   OH217561   0.210   0.753   1.175
 5852TIP3    H117562   0.187   0.740   1.267
 5852TIP3    H217563   0.231   0.666   1.142
 5853TIP3   OH217564   2.369   0.906   2.062
 5853TIP3    H117565   2.379   0.853   1.983
 5853TIP3    H217566   2.458   0.917   2.095
 5854TIP3   OH217567   4.455   2.875   2.744
 5854TIP3    H117568   4.529   2.816   2.758
 5854TIP3    H217569   4.402   2.832   2.677
 5855TIP3   OH217570   3.894   3.061   2.847
 5855TIP3    H117571   3.949   3.139   2.847
 5855TIP3    H217572   3.874   3.045   2.939
 5856TIP3   OH217573   3.427   1.706   2.332
 5856TIP3    H117574   3.458   1.793   2.309
 5856TIP3    H217575   3.381   1.717   2.415
 5857TIP3   OH217576   5.166   3.745   0.900
 5857TIP3    H117577   5.121   3.761   0.983
 5857TIP3    H217578   5.225   3.819   0.890
 5858TIP3   OH217579   0.682   2.510   3.118
 5858TIP3    H117580   0.665   2.430   3.168
 5858TIP3    H217581   0.753   2.486   3.058
 5859TIP3   OH217582   4.791   3.327   5.172
 5859TIP3    H117583   4.708   3.320   5.125
 5859TIP3    H217584   4.857   3.339   5.104
 5860TIP3   OH217585   3.493   3.754   4.846
 5860TIP3    H117586   3.477   3.692   4.774
 5860TIP3    H217587   3.467   3.707   4.925
 5861TIP3   OH217588   2.775   5.025   3.871
 5861TIP3    H117589   2.868   5.002   3.877
 5861TIP3    H217590   2.731   4.961   3.926
 5862TIP3   OH217591   5.717   2.681   1.016
 5862TIP3    H117592   5.763   2.705   0.935
 5862TIP3    H217593   5.674   2.597   0.995
 5863TIP3   OH217594   0.596   3.299   0.625
 5863TIP3    H117595   0.624   3.384   0.592
 5863TIP3    H217596   0.503   3.310   0.643
 5864TIP3   OH217597   2.849   1.765   0.646
 5864TIP3    H117598   2.789   1.839   0.653
 5864TIP3    H217599   2.917   1.794   0.585
 5865TIP3   OH217600   3.233   3.626   0.864
 5865TIP3    H117601   3.249   3.615   0.770
 5865TIP3    H217602   3.164   3.692   0.870
 5866TIP3   OH217603   4.726   3.041   5.068
 5866TIP3    H117604   4.755   2.974   5.130
 5866TIP3    H217605   4.796   3.044   5.003
 5867TIP3   OH217606   1.144   0.495   1.179
 5867TIP3    H117607   1.207   0.533   1.117
 5867TIP3    H217608   1.139   0.403   1.155
 5868TIP3   OH217609   0.022   0.384   0.616
 5868TIP3    H117610   0.059   0.296   0.624
 5868TIP3    H217611   0.020   0.416   0.706
 5869TIP3   OH217612   4.691   1.919   1.998
 5869TIP3    H117613   4.607   1.955   2.028
 5869TIP3    H217614   4.669   1.832   1.964
 5870TIP3   OH217615   1.811   1.725   2.596
 5870TIP3    H117616   1.761   1.718   2.677
 5870TIP3    H217617   1.873   1.652   2.600
 5871TIP3   OH217618   1.517   2.096   4.312
 5871TIP3    H117619   1.508   2.046   4.231
 5871TIP3    H217620   1.453   2.057   4.372
 5872TIP3   OH217621   5.666   4.463   0.078
 5872TIP3    H117622   5.669   4.455   0.174
 5872TIP3    H217623   5.656   4.373   0.048
 5873TIP3   OH217624   1.748   2.931   0.111
 5873TIP3    H117625   1.742   2.850   0.060
 5873TIP3    H217626   1.815   2.982   0.066
 5874TIP3   OH217627   3.560   2.345   2.128
 5874TIP3    H117628   3.599   2.367   2.043
 5874TIP3    H217629   3.488   2.407   2.138
 5875TIP3   OH217630   2.785   5.241   1.234
 5875TIP3    H117631   2.761   5.247   1.326
 5875TIP3    H217632   2.705   5.213   1.189
 5876TIP3   OH217633   5.444   0.579   0.471
 5876TIP3    H117634   5.415   0.509   0.531
 5876TIP3    H217635   5.373   0.585   0.407
 5877TIP3   OH217636   4.301   4.684   2.838
 5877TIP3    H117637   4.349   4.750   2.887
 5877TIP3    H217638   4.230   4.657   2.897
 5878TIP3   OH217639   3.453   4.530   4.319
 5878TIP3    H117640   3.428   4.549   4.228
 5878TIP3    H217641   3.398   4.457   4.345
 5879TIP3   OH217642   0.558   4.986   2.131
 5879TIP3    H117643   0.510   4.905   2.115
 5879TIP3    H217644   0.638   4.959   2.175
 5880TIP3   OH217645   4.121   5.403   4.054
 5880TIP3    H117646   4.067   5.455   3.995
 5880TIP3    H217647   4.167   5.467   4.108
 5881TIP3   OH217648   4.612   4.689   2.458
 5881TIP3    H117649   4.669   4.636   2.402
 5881TIP3    H217650   4.588   4.630   2.530
 5882TIP3   OH217651   4.832   4.206   4.381
 5882TIP3    H117652   4.761   4.163   4.333
 5882TIP3    H217653   4.814   4.187   4.473
 5883TIP3   OH217654   0.948   1.070   4.398
 5883TIP3    H117655   0.951   1.037   4.308
 5883TIP3    H217656   0.861   1.045   4.430
 5884TIP3   OH217657   0.052   3.666   0.708
 5884TIP3    H117658   0.103   3.747   0.700
 5884TIP3    H217659  -0.010   3.684   0.779
 5885TIP3   OH217660   1.323   0.223   0.899
 5885TIP3    H117661   1.344   0.267   0.816
 5885TIP3    H217662   1.408   0.212   0.942
 5886TIP3   OH217663   5.797   3.786   1.429
 5886TIP3    H117664   5.784   3.860   1.370
 5886TIP3    H217665   5.865   3.815   1.489
 5887TIP3   OH217666   6.329   3.216   4.053
 5887TIP3    H117667   6.319   3.192   4.145
 5887TIP3    H217668   6.314   3.311   4.052
 5888TIP3   OH217669   2.252   5.757   3.720
 5888TIP3    H117670   2.275   5.836   3.769
 5888TIP3    H217671   2.334   5.708   3.712
 5889TIP3   OH217672   3.002   3.860   2.182
 5889TIP3    H117673   3.060   3.904   2.120
 5889TIP3    H217674   3.022   3.902   2.266
 5890TIP3   OH217675   1.377   1.174   3.493
 5890TIP3    H117676   1.469   1.180   3.469
 5890TIP3    H217677   1.334   1.241   3.439
 5891TIP3   OH217678   0.160   0.731   3.352
 5891TIP3    H117679   0.238   0.731   3.297
 5891TIP3    H217680   0.195   0.732   3.441
 5892TIP3   OH217681   5.980   2.553   1.843
 5892TIP3    H117682   6.044   2.495   1.801
 5892TIP3    H217683   5.965   2.515   1.929
 5893TIP3   OH217684   1.890   3.092   0.974
 5893TIP3    H117685   1.889   3.103   0.879
 5893TIP3    H217686   1.933   3.171   1.007
 5894TIP3   OH217687   5.054   2.385   1.432
 5894TIP3    H117688   5.129   2.355   1.483
 5894TIP3    H217689   5.049   2.479   1.450
 5895TIP3   OH217690   4.876   1.564   1.876
 5895TIP3    H117691   4.909   1.584   1.788
 5895TIP3    H217692   4.873   1.469   1.879
 5896TIP3   OH217693   1.828   5.480   4.300
 5896TIP3    H117694   1.911   5.516   4.332
 5896TIP3    H217695   1.854   5.401   4.252
 5897TIP3   OH217696   3.926   2.787   3.757
 5897TIP3    H117697   3.949   2.694   3.767
 5897TIP3    H217698   3.987   2.820   3.691
 5898TIP3   OH217699   6.191   5.075   4.204
 5898TIP3    H117700   6.160   4.991   4.240
 5898TIP3    H217701   6.139   5.088   4.125
 5899TIP3   OH217702   5.600   3.304   2.000
 5899TIP3    H117703   5.561   3.219   1.983
 5899TIP3    H217704   5.596   3.350   1.916
 5900TIP3   OH217705   5.145   4.356   1.233
 5900TIP3    H117706   5.104   4.270   1.238
 5900TIP3    H217707   5.233   4.338   1.199
 5901TIP3   OH217708   0.301   0.469   0.802
 5901TIP3    H117709   0.299   0.384   0.845
 5901TIP3    H217710   0.315   0.449   0.709
 5902TIP3   OH217711   0.696   5.103   0.194
 5902TIP3    H117712   0.771   5.137   0.243
 5902TIP3    H217713   0.732   5.031   0.143
 5903TIP3   OH217714   0.517   1.468   3.296
 5903TIP3    H117715   0.529   1.561   3.279
 5903TIP3    H217716   0.545   1.456   3.387
 5904TIP3   OH217717   0.962   0.862   1.101
 5904TIP3    H117718   1.045   0.866   1.055
 5904TIP3    H217719   0.985   0.865   1.194
 5905TIP3   OH217720   5.726   1.963   3.722
 5905TIP3    H117721   5.739   1.984   3.815
 5905TIP3    H217722   5.631   1.956   3.713
 5906TIP3   OH217723   5.977   1.034   4.908
 5906TIP3    H117724   6.040   1.080   4.964
 5906TIP3    H217725   5.898   1.027   4.961
 5907TIP3   OH217726   2.757   4.072   2.952
 5907TIP3    H117727   2.706   4.024   3.017
 5907TIP3    H217728   2.694   4.130   2.909
 5908TIP3   OH217729   6.024   3.962   0.120
 5908TIP3    H117730   6.110   3.999   0.141
 5908TIP3    H217731   6.025   3.875   0.160
 5909TIP3   OH217732   1.192   2.463   4.688
 5909TIP3    H117733   1.233   2.474   4.602
 5909TIP3    H217734   1.202   2.370   4.708
 5910TIP3   OH217735   1.010   2.727   0.331
 5910TIP3    H117736   1.105   2.716   0.331
 5910TIP3    H217737   0.986   2.734   0.239
 5911TIP3   OH217738   2.368   4.699   0.079
 5911TIP3    H117739   2.442   4.676   0.022
 5911TIP3    H217740   2.395   4.668   0.166
 5912TIP3   OH217741   1.578   2.228   1.170
 5912TIP3    H117742   1.524   2.162   1.127
 5912TIP3    H217743   1.623   2.180   1.239
 5913TIP3   OH217744   6.341   1.104   3.527
 5913TIP3    H117745   6.357   1.078   3.436
 5913TIP3    H217746   6.246   1.121   3.530
 5914TIP3   OH217747   2.559   2.673   0.344
 5914TIP3    H117748   2.473   2.698   0.377
 5914TIP3    H217749   2.619   2.736   0.382
 5915TIP3   OH217750   1.649   1.792   4.981
 5915TIP3    H117751   1.605   1.708   4.965
 5915TIP3    H217752   1.737   1.781   4.945
 5916TIP3   OH217753   5.874   4.223   4.785
 5916TIP3    H117754   5.903   4.312   4.807
 5916TIP3    H217755   5.789   4.235   4.743
 5917TIP3   OH217756   1.686   3.618   4.187
 5917TIP3    H117757   1.723   3.702   4.162
 5917TIP3    H217758   1.747   3.583   4.252
 5918TIP3   OH217759   2.604   1.126   4.829
 5918TIP3    H117760   2.595   1.165   4.742
 5918TIP3    H217761   2.516   1.129   4.866
 5919TIP3   OH217762   6.022   2.221   0.682
 5919TIP3    H117763   6.048   2.129   0.680
 5919TIP3    H217764   6.001   2.242   0.591
 5920TIP3   OH217765   4.082   1.493   1.955
 5920TIP3    H117766   4.019   1.555   1.918
 5920TIP3    H217767   4.044   1.467   2.038
 5921TIP3   OH217768   2.200   3.052   0.854
 5921TIP3    H117769   2.278   3.108   0.852
 5921TIP3    H217770   2.177   3.047   0.947
 5922TIP3   OH217771   0.839   5.142   4.946
 5922TIP3    H117772   0.877   5.055   4.950
 5922TIP3    H217773   0.752   5.129   4.909
 5923TIP3   OH217774   1.337   4.576   0.266
 5923TIP3    H117775   1.360   4.495   0.220
 5923TIP3    H217776   1.296   4.631   0.199
 5924TIP3   OH217777   1.951   2.436   0.228
 5924TIP3    H117778   1.888   2.443   0.157
 5924TIP3    H217779   2.001   2.518   0.224
 5925TIP3   OH217780   0.973   4.380   2.772
 5925TIP3    H117781   0.994   4.298   2.727
 5925TIP3    H217782   1.031   4.445   2.731
 5926TIP3   OH217783   0.465   3.543   4.524
 5926TIP3    H117784   0.548   3.529   4.570
 5926TIP3    H217785   0.418   3.607   4.577
 5927TIP3   OH217786   6.046   2.773   1.009
 5927TIP3    H117787   5.950   2.780   1.007
 5927TIP3    H217788   6.067   2.714   0.937
 5928TIP3   OH217789   4.777   0.929   5.231
 5928TIP3    H117790   4.683   0.939   5.219
 5928TIP3    H217791   4.815   0.963   5.151
 5929TIP3   OH217792   0.231   3.916   1.778
 5929TIP3    H117793   0.325   3.923   1.788
 5929TIP3    H217794   0.208   3.833   1.821
 5930TIP3   OH217795   0.304   3.202   1.525
 5930TIP3    H117796   0.215   3.172   1.505
 5930TIP3    H217797   0.316   3.280   1.470
 5931TIP3   OH217798   2.975   3.530   1.163
 5931TIP3    H117799   2.884   3.516   1.188
 5931TIP3    H217800   2.997   3.455   1.108
 5932TIP3   OH217801   4.949   3.839   4.780
 5932TIP3    H117802   5.009   3.902   4.739
 5932TIP3    H217803   4.986   3.753   4.759
 5933TIP3   OH217804   4.907   0.320   1.003
 5933TIP3    H117805   4.811   0.324   1.003
 5933TIP3    H217806   4.928   0.249   0.942
 5934TIP3   OH217807   0.568   5.423   4.742
 5934TIP3    H117808   0.655   5.448   4.773
 5934TIP3    H217809   0.553   5.480   4.667
 5935TIP3   OH217810   1.348   1.182   4.377
 5935TIP3    H117811   1.439   1.209   4.368
 5935TIP3    H217812   1.299   1.240   4.319
 5936TIP3   OH217813   1.275   1.582   4.460
 5936TIP3    H117814   1.346   1.621   4.510
 5936TIP3    H217815   1.236   1.518   4.520
 5937TIP3   OH217816   4.422   0.431   0.814
 5937TIP3    H117817   4.355   0.455   0.878
 5937TIP3    H217818   4.374   0.427   0.731
 5938TIP3   OH217819   0.765   1.881   5.111
 5938TIP3    H117820   0.820   1.805   5.126
 5938TIP3    H217821   0.779   1.937   5.188
 5939TIP3   OH217822   6.287   2.836   1.920
 5939TIP3    H117823   6.323   2.921   1.893
 5939TIP3    H217824   6.265   2.792   1.838
 5940TIP3   OH217825   0.218   5.574   3.905
 5940TIP3    H117826   0.218   5.493   3.957
 5940TIP3    H217827   0.165   5.554   3.828
 5941TIP3   OH217828   4.853   4.193   1.435
 5941TIP3    H117829   4.908   4.270   1.452
 5941TIP3    H217830   4.890   4.156   1.355
 5942TIP3   OH217831   4.635   2.354   2.557
 5942TIP3    H117832   4.542   2.377   2.557
 5942TIP3    H217833   4.640   2.271   2.604
 5943TIP3   OH217834   0.253   4.059   3.452
 5943TIP3    H117835   0.232   4.004   3.376
 5943TIP3    H217836   0.251   4.149   3.417
 5944TIP3   OH217837   0.606   5.307   2.410
 5944TIP3    H117838   0.626   5.253   2.486
 5944TIP3    H217839   0.524   5.350   2.433
 5945TIP3   OH217840   1.564   2.244   2.117
 5945TIP3    H117841   1.539   2.314   2.057
 5945TIP3    H217842   1.593   2.172   2.060
 5946TIP3   OH217843   2.366   3.484   2.072
 5946TIP3    H117844   2.447   3.436   2.055
 5946TIP3    H217845   2.362   3.492   2.167
 5947TIP3   OH217846   4.024   5.003   1.899
 5947TIP3    H117847   4.011   4.913   1.871
 5947TIP3    H217848   4.043   4.997   1.992
 5948TIP3   OH217849   4.130   1.084   2.070
 5948TIP3    H117850   4.182   1.107   2.146
 5948TIP3    H217851   4.171   1.004   2.036
 5949TIP3   OH217852   5.914   3.218   5.023
 5949TIP3    H117853   5.890   3.233   4.932
 5949TIP3    H217854   5.989   3.275   5.038
 5950TIP3   OH217855   4.350   3.246   0.583
 5950TIP3    H117856   4.328   3.334   0.612
 5950TIP3    H217857   4.309   3.238   0.497
 5951TIP3   OH217858   0.052   4.271   3.630
 5951TIP3    H117859   0.018   4.238   3.713
 5951TIP3    H217860   0.120   4.334   3.655
 5952TIP3   OH217861   1.507   5.471   2.185
 5952TIP3    H117862   1.475   5.388   2.148
 5952TIP3    H217863   1.571   5.502   2.121
 5953TIP3   OH217864   0.378   3.135   3.134
 5953TIP3    H117865   0.375   3.176   3.048
 5953TIP3    H217866   0.313   3.183   3.186
 5954TIP3   OH217867   1.896   1.517   0.023
 5954TIP3    H117868   1.855   1.465   0.092
 5954TIP3    H217869   1.980   1.545   0.059
 5955TIP3   OH217870   1.983   1.875   4.435
 5955TIP3    H117871   2.038   1.796   4.435
 5955TIP3    H217872   2.028   1.935   4.376
 5956TIP3   OH217873   4.891   2.982   0.476
 5956TIP3    H117874   4.876   3.045   0.405
 5956TIP3    H217875   4.893   3.036   0.555
 5957TIP3   OH217876   0.782   0.404   0.259
 5957TIP3    H117877   0.871   0.377   0.279
 5957TIP3    H217878   0.777   0.495   0.288
 5958TIP3   OH217879   1.467   0.147   5.007
 5958TIP3    H117880   1.390   0.177   4.959
 5958TIP3    H217881   1.537   0.207   4.981
 5959TIP3   OH217882   2.847   5.767   0.789
 5959TIP3    H117883   2.783   5.703   0.819
 5959TIP3    H217884   2.813   5.799   0.705
 5960TIP3   OH217885   4.753   1.814   4.455
 5960TIP3    H117886   4.841   1.835   4.424
 5960TIP3    H217887   4.729   1.889   4.511
 5961TIP3   OH217888   1.610   2.733   2.814
 5961TIP3    H117889   1.606   2.802   2.748
 5961TIP3    H217890   1.535   2.677   2.795
 5962TIP3   OH217891   5.534   3.851   2.831
 5962TIP3    H117892   5.550   3.853   2.925
 5962TIP3    H217893   5.580   3.772   2.800
 5963TIP3   OH217894   0.229   3.616   1.798
 5963TIP3    H117895   0.284   3.590   1.872
 5963TIP3    H217896   0.191   3.534   1.767
 5964TIP3   OH217897   4.909   2.902   2.461
 5964TIP3    H117898   4.908   2.992   2.428
 5964TIP3    H217899   4.857   2.852   2.398
 5965TIP3   OH217900   4.978   2.586   1.189
 5965TIP3    H117901   4.943   2.651   1.128
 5965TIP3    H217902   4.967   2.502   1.144
 5966TIP3   OH217903   3.595   1.894   0.877
 5966TIP3    H117904   3.614   1.943   0.797
 5966TIP3    H217905   3.530   1.947   0.922
 5967TIP3   OH217906   0.863   4.000   4.085
 5967TIP3    H117907   0.771   4.006   4.058
 5967TIP3    H217908   0.912   3.991   4.003
 5968TIP3   OH217909   1.022   5.022   3.555
 5968TIP3    H117910   1.027   5.061   3.467
 5968TIP3    H217911   1.099   4.966   3.560
 5969TIP3   OH217912   4.581   3.030   4.709
 5969TIP3    H117913   4.488   3.009   4.713
 5969TIP3    H217914   4.624   2.948   4.686
 5970TIP3   OH217915   4.820   5.781   1.008
 5970TIP3    H117916   4.908   5.745   1.013
 5970TIP3    H217917   4.823   5.843   0.936
 5971TIP3   OH217918   1.434   4.230   4.400
 5971TIP3    H117919   1.470   4.319   4.405
 5971TIP3    H217920   1.472   4.184   4.474
 5972TIP3   OH217921   5.532   4.898   2.664
 5972TIP3    H117922   5.443   4.933   2.668
 5972TIP3    H217923   5.528   4.816   2.714
 5973TIP3   OH217924   0.493   4.188   3.513
 5973TIP3    H117925   0.416   4.133   3.501
 5973TIP3    H217926   0.516   4.218   3.425
 5974TIP3   OH217927   1.661   0.841   0.733
 5974TIP3    H117928   1.603   0.780   0.688
 5974TIP3    H217929   1.679   0.910   0.669
 5975TIP3   OH217930   2.283   0.949   4.509
 5975TIP3    H117931   2.366   0.917   4.472
 5975TIP3    H217932   2.292   0.936   4.603
 5976TIP3   OH217933   3.899   0.312   1.977
 5976TIP3    H117934   3.854   0.299   2.061
 5976TIP3    H217935   3.830   0.344   1.918
 5977TIP3   OH217936   6.292   3.052   4.309
 5977TIP3    H117937   6.383   3.054   4.338
 5977TIP3    H217938   6.241   3.050   4.389
 5978TIP3   OH217939   3.304   5.567   0.826
 5978TIP3    H117940   3.252   5.634   0.781
 5978TIP3    H217941   3.269   5.484   0.793
 5979TIP3   OH217942   3.512   5.283   4.269
 5979TIP3    H117943   3.523   5.214   4.203
 5979TIP3    H217944   3.594   5.331   4.268
 5980TIP3   OH217945   0.715   3.643   1.481
 5980TIP3    H117946   0.660   3.625   1.557
 5980TIP3    H217947   0.686   3.729   1.450
 5981TIP3   OH217948   0.817   4.145   3.436
 5981TIP3    H117949   0.895   4.126   3.383
 5981TIP3    H217950   0.783   4.059   3.461
 5982TIP3   OH217951   4.364   5.198   2.686
 5982TIP3    H117952   4.306   5.212   2.611
 5982TIP3    H217953   4.376   5.104   2.691
 5983TIP3   OH217954   4.287   1.651   0.394
 5983TIP3    H117955   4.282   1.746   0.404
 5983TIP3    H217956   4.342   1.622   0.466
 5984TIP3   OH217957   4.983   2.038   3.943
 5984TIP3    H117958   4.931   1.958   3.953
 5984TIP3    H217959   5.018   2.055   4.031
 5985TIP3   OH217960   0.430   2.676   3.578
 5985TIP3    H117961   0.370   2.750   3.564
 5985TIP3    H217962   0.384   2.619   3.639
 5986TIP3   OH217963   4.544   3.897   4.285
 5986TIP3    H117964   4.628   3.866   4.319
 5986TIP3    H217965   4.499   3.933   4.362
 5987TIP3   OH217966   1.775   4.825   3.182
 5987TIP3    H117967   1.748   4.891   3.246
 5987TIP3    H217968   1.827   4.874   3.117
 5988TIP3   OH217969   0.320   5.308   4.807
 5988TIP3    H117970   0.405   5.347   4.786
 5988TIP3    H217971   0.305   5.244   4.737
 5989TIP3   OH217972   5.385   4.152   2.220
 5989TIP3    H117973   5.421   4.239   2.203
 5989TIP3    H217974   5.292   4.168   2.239
 5990TIP3   OH217975   2.127   3.901   4.604
 5990TIP3    H117976   2.101   3.825   4.656
 5990TIP3    H217977   2.219   3.884   4.581
 5991TIP3   OH217978   2.517   1.331   0.409
 5991TIP3    H117979   2.587   1.318   0.345
 5991TIP3    H217980   2.555   1.388   0.475
 5992TIP3   OH217981   2.508   5.466   4.167
 5992TIP3    H117982   2.552   5.488   4.085
 5992TIP3    H217983   2.472   5.379   4.153
 5993TIP3   OH217984   0.799   6.001   1.987
 5993TIP3    H117985   0.781   5.907   1.985
 5993TIP3    H217986   0.880   6.009   2.037
 5994TIP3   OH217987   2.311   4.675   2.525
 5994TIP3    H117988   2.217   4.657   2.518
 5994TIP3    H217989   2.321   4.712   2.613
 5995TIP3   OH217990   5.332   5.518   0.916
 5995TIP3    H117991   5.373   5.449   0.968
 5995TIP3    H217992   5.388   5.528   0.840
 5996TIP3   OH217993   5.552   5.500   1.241
 5996TIP3    H117994   5.506   5.429   1.195
 5996TIP3    H217995   5.487   5.536   1.301
 5997TIP3   OH217996   3.296   0.111   3.485
 5997TIP3    H117997   3.282   0.098   3.579
 5997TIP3    H217998   3.223   0.164   3.457
 5998TIP3   OH217999   2.918   5.676   1.152
 5998TIP3    H118000   2.844   5.639   1.103
 5998TIP3    H218001   2.880   5.705   1.235
 5999TIP3   OH218002   3.069   4.267   5.067
 5999TIP3    H118003   3.035   4.180   5.047
 5999TIP3    H218004   3.157   4.267   5.030
 6000TIP3   OH218005   6.220   4.312   0.862
 6000TIP3    H118006   6.231   4.370   0.938
 6000TIP3    H218007   6.135   4.336   0.826
 6001TIP3   OH218008   2.165   1.995   2.298
 6001TIP3    H118009   2.193   1.958   2.214
 6001TIP3    H218010   2.090   1.942   2.324
 6002TIP3   OH218011   5.196   0.309   1.886
 6002TIP3    H118012   5.117   0.335   1.839
 6002TIP3    H218013   5.163   0.267   1.966
 6003TIP3   OH218014   1.078   3.142   2.950
 6003TIP3    H118015   1.092   3.057   2.909
 6003TIP3    H218016   0.987   3.164   2.928
 6004TIP3   OH218017   0.216   0.352   3.918
 6004TIP3    H118018   0.154   0.290   3.957
 6004TIP3    H218019   0.291   0.350   3.977
 6005TIP3   OH218020   6.102   1.108   5.138
 6005TIP3    H118021   6.143   1.193   5.155
 6005TIP3    H218022   6.106   1.062   5.221
 6006TIP3   OH218023   1.500   4.790   0.663
 6006TIP3    H118024   1.484   4.696   0.676
 6006TIP3    H218025   1.508   4.826   0.751
 6007TIP3   OH218026   5.216   2.146   3.017
 6007TIP3    H118027   5.229   2.241   3.025
 6007TIP3    H218028   5.170   2.121   3.097
 6008TIP3   OH218029   4.892   2.772   2.208
 6008TIP3    H118030   4.936   2.725   2.279
 6008TIP3    H218031   4.933   2.739   2.128
 6009TIP3   OH218032   0.551   4.577   2.840
 6009TIP3    H118033   0.591   4.593   2.925
 6009TIP3    H218034   0.599   4.502   2.805
 6010TIP3   OH218035   3.518   2.983   1.541
 6010TIP3    H118036   3.498   2.890   1.543
 6010TIP3    H218037   3.613   2.987   1.550
 6011TIP3   OH218038   5.206   0.039   4.710
 6011TIP3    H118039   5.131  -0.017   4.693
 6011TIP3    H218040   5.199   0.062   4.803
 6012TIP3   OH218041   3.974   4.523   4.896
 6012TIP3    H118042   4.048   4.480   4.939
 6012TIP3    H218043   3.941   4.457   4.834
 6013TIP3   OH218044   4.002   1.934   1.861
 6013TIP3    H118045   4.091   1.958   1.833
 6013TIP3    H218046   3.962   2.016   1.887
 6014TIP3   OH218047   1.637   4.868   2.384
 6014TIP3    H118048   1.544   4.870   2.407
 6014TIP3    H218049   1.638   4.839   2.293
 6015TIP3   OH218050   4.591   5.183   2.912
 6015TIP3    H118051   4.539   5.139   2.845
 6015TIP3    H218052   4.659   5.229   2.863
 6016TIP3   OH218053   5.078   2.199   2.060
 6016TIP3    H118054   5.019   2.153   2.120
 6016TIP3    H218055   5.020   2.243   1.998
 6017TIP3   OH218056   0.903   2.177   2.945
 6017TIP3    H118057   0.904   2.252   3.005
 6017TIP3    H218058   0.816   2.181   2.905
 6018TIP3   OH218059   5.029   4.659   4.988
 6018TIP3    H118060   4.990   4.605   4.920
 6018TIP3    H218061   4.956   4.709   5.024
 6019TIP3   OH218062   1.683   5.641   2.993
 6019TIP3    H118063   1.684   5.565   3.051
 6019TIP3    H218064   1.670   5.603   2.905
 6020TIP3   OH218065   3.057   2.466   4.786
 6020TIP3    H118066   3.101   2.408   4.723
 6020TIP3    H218067   3.018   2.535   4.732
 6021TIP3   OH218068   2.802   4.480   1.093
 6021TIP3    H118069   2.804   4.571   1.063
 6021TIP3    H218070   2.836   4.430   1.019
 6022TIP3   OH218071   5.004   3.739   3.594
 6022TIP3    H118072   5.036   3.652   3.569
 6022TIP3    H218073   4.959   3.725   3.678
 6023TIP3   OH218074   4.453   1.791   4.635
 6023TIP3    H118075   4.545   1.786   4.661
 6023TIP3    H218076   4.405   1.791   4.717
 6024TIP3   OH218077   1.274   0.300   3.874
 6024TIP3    H118078   1.356   0.327   3.834
 6024TIP3    H218079   1.264   0.355   3.951
 6025TIP3   OH218080   4.117   5.566   3.120
 6025TIP3    H118081   4.144   5.654   3.093
 6025TIP3    H218082   4.026   5.560   3.090
 6026TIP3   OH218083   0.872   1.610   0.780
 6026TIP3    H118084   0.810   1.554   0.734
 6026TIP3    H218085   0.842   1.699   0.761
 6027TIP3   OH218086   2.178   5.210   5.036
 6027TIP3    H118087   2.204   5.134   4.984
 6027TIP3    H218088   2.259   5.257   5.053
 6028TIP3   OH218089   0.907   4.032   0.500
 6028TIP3    H118090   0.907   4.083   0.418
 6028TIP3    H218091   0.814   4.015   0.517
 6029TIP3   OH218092   1.082   0.453   2.681
 6029TIP3    H118093   1.176   0.454   2.667
 6029TIP3    H218094   1.048   0.392   2.616
 6030TIP3   OH218095   0.078   1.239   0.026
 6030TIP3    H118096   0.140   1.197  -0.033
 6030TIP3    H218097   0.084   1.189   0.107
 6031TIP3   OH218098   5.368   2.949   0.032
 6031TIP3    H118099   5.452   2.993   0.025
 6031TIP3    H218100   5.305   3.020   0.043
 6032TIP3   OH218101   3.855   2.786   3.303
 6032TIP3    H118102   3.827   2.723   3.369
 6032TIP3    H218103   3.855   2.870   3.349
 6033TIP3   OH218104   6.037   1.640   0.820
 6033TIP3    H118105   6.008   1.549   0.818
 6033TIP3    H218106   6.132   1.634   0.815
 6034TIP3   OH218107   0.058   0.343   5.023
 6034TIP3    H118108   0.083   0.287   5.097
 6034TIP3    H218109   0.071   0.288   4.946
 6035TIP3   OH218110   1.009   2.531   4.200
 6035TIP3    H118111   0.990   2.440   4.177
 6035TIP3    H218112   0.949   2.583   4.146
 6036TIP3   OH218113   3.912   1.592   1.235
 6036TIP3    H118114   4.004   1.576   1.211
 6036TIP3    H218115   3.862   1.544   1.170
 6037TIP3   OH218116   3.896   1.376   3.938
 6037TIP3    H118117   3.805   1.388   3.964
 6037TIP3    H218118   3.940   1.455   3.969
 6038TIP3   OH218119   0.839   3.064   3.100
 6038TIP3    H118120   0.840   2.996   3.167
 6038TIP3    H218121   0.753   3.058   3.060
 6039TIP3   OH218122   2.104   4.919   1.168
 6039TIP3    H118123   2.038   4.855   1.194
 6039TIP3    H218124   2.119   4.902   1.075
 6040TIP3   OH218125   2.183   0.326   4.850
 6040TIP3    H118126   2.098   0.332   4.807
 6040TIP3    H218127   2.163   0.292   4.937
 6041TIP3   OH218128   1.076   3.531   3.553
 6041TIP3    H118129   1.071   3.558   3.461
 6041TIP3    H218130   0.998   3.477   3.566
 6042TIP3   OH218131   4.059   0.199   5.036
 6042TIP3    H118132   4.011   0.281   5.023
 6042TIP3    H218133   4.010   0.134   4.986
 6043TIP3   OH218134   0.657   3.556   0.597
 6043TIP3    H118135   0.701   3.575   0.514
 6043TIP3    H218136   0.683   3.627   0.655
 6044TIP3   OH218137   1.529   5.065   1.626
 6044TIP3    H118138   1.609   5.116   1.616
 6044TIP3    H218139   1.496   5.089   1.713
 6045TIP3   OH218140   1.743   5.472   0.564
 6045TIP3    H118141   1.812   5.409   0.583
 6045TIP3    H218142   1.702   5.438   0.484
 6046TIP3   OH218143   6.249   2.484   0.092
 6046TIP3    H118144   6.227   2.446   0.007
 6046TIP3    H218145   6.303   2.560   0.071
 6047TIP3   OH218146   2.554   2.328   2.723
 6047TIP3    H118147   2.630   2.272   2.741
 6047TIP3    H218148   2.540   2.320   2.629
 6048TIP3   OH218149   2.947   2.925   2.890
 6048TIP3    H118150   2.866   2.879   2.867
 6048TIP3    H218151   3.008   2.904   2.820
 6049TIP3   OH218152   5.756   2.043   3.990
 6049TIP3    H118153   5.823   2.063   4.057
 6049TIP3    H218154   5.726   2.129   3.961
 6050TIP3   OH218155   1.907   3.554   4.357
 6050TIP3    H118156   1.922   3.549   4.452
 6050TIP3    H218157   1.961   3.628   4.329
 6051TIP3   OH218158   3.012   1.921   1.734
 6051TIP3    H118159   2.952   1.868   1.785
 6051TIP3    H218160   3.071   1.959   1.799
 6052TIP3   OH218161   3.245   4.426   0.828
 6052TIP3    H118162   3.184   4.353   0.821
 6052TIP3    H218163   3.196   4.495   0.873
 6053TIP3   OH218164   5.371   3.574   5.022
 6053TIP3    H118165   5.344   3.486   4.996
 6053TIP3    H218166   5.349   3.579   5.115
 6054TIP3   OH218167   1.819   4.075   2.477
 6054TIP3    H118168   1.808   4.059   2.570
 6054TIP3    H218169   1.910   4.104   2.468
 6055TIP3   OH218170   2.254   0.957   4.235
 6055TIP3    H118171   2.182   0.896   4.222
 6055TIP3    H218172   2.256   0.973   4.329
 6056TIP3   OH218173   2.703   3.729   4.503
 6056TIP3    H118174   2.665   3.807   4.543
 6056TIP3    H218175   2.627   3.680   4.471
 6057TIP3   OH218176   6.114   2.095   3.343
 6057TIP3    H118177   6.033   2.106   3.392
 6057TIP3    H218178   6.176   2.155   3.385
 6058TIP3   OH218179   4.037   1.515   3.492
 6058TIP3    H118180   4.024   1.607   3.470
 6058TIP3    H218181   3.970   1.469   3.443
 6059TIP3   OH218182   4.342   3.757   1.939
 6059TIP3    H118183   4.280   3.763   2.012
 6059TIP3    H218184   4.291   3.779   1.861
 6060TIP3   OH218185   0.525   5.466   3.264
 6060TIP3    H118186   0.597   5.407   3.287
 6060TIP3    H218187   0.538   5.542   3.321
 6061TIP3   OH218188   1.842   4.809   1.234
 6061TIP3    H118189   1.791   4.730   1.218
 6061TIP3    H218190   1.777   4.877   1.248
 6062TIP3   OH218191   0.489   0.761   2.178
 6062TIP3    H118192   0.481   0.690   2.242
 6062TIP3    H218193   0.469   0.841   2.227
 6063TIP3   OH218194   5.265   2.325   0.833
 6063TIP3    H118195   5.297   2.349   0.920
 6063TIP3    H218196   5.288   2.232   0.823
 6064TIP3   OH218197   2.592   3.001   0.066
 6064TIP3    H118198   2.525   2.934   0.073
 6064TIP3    H218199   2.572   3.048  -0.015
 6065TIP3   OH218200   2.123   3.364   2.031
 6065TIP3    H118201   2.204   3.404   2.000
 6065TIP3    H218202   2.114   3.397   2.121
 6066TIP3   OH218203   4.227   2.146   3.450
 6066TIP3    H118204   4.308   2.195   3.465
 6066TIP3    H218205   4.249   2.084   3.381
 6067TIP3   OH218206   4.674   1.946   4.980
 6067TIP3    H118207   4.691   1.923   5.071
 6067TIP3    H218208   4.738   2.015   4.960
 6068TIP3   OH218209   0.262   3.184   4.076
 6068TIP3    H118210   0.268   3.150   4.165
 6068TIP3    H218211   0.171   3.212   4.067
 6069TIP3   OH218212   5.579   3.802   3.093
 6069TIP3    H118213   5.526   3.723   3.108
 6069TIP3    H218214   5.645   3.801   3.163
 6070TIP3   OH218215   3.711   4.251   4.959
 6070TIP3    H118216   3.789   4.254   5.015
 6070TIP3    H218217   3.712   4.163   4.921
 6071TIP3   OH218218   3.866   3.893   4.462
 6071TIP3    H118219   3.785   3.893   4.411
 6071TIP3    H218220   3.932   3.928   4.402
 6072TIP3   OH218221   2.694   1.606   3.977
 6072TIP3    H118222   2.644   1.652   4.045
 6072TIP3    H218223   2.781   1.644   3.981
 6073TIP3   OH218224   4.521   3.209   1.095
 6073TIP3    H118225   4.566   3.134   1.133
 6073TIP3    H218226   4.432   3.206   1.131
 6074TIP3   OH218227   2.646   3.567   1.081
 6074TIP3    H118228   2.690   3.642   1.041
 6074TIP3    H218229   2.685   3.491   1.039
 6075TIP3   OH218230   3.471   3.580   2.778
 6075TIP3    H118231   3.393   3.583   2.834
 6075TIP3    H218232   3.543   3.605   2.835
 6076TIP3   OH218233   5.931   0.897   3.580
 6076TIP3    H118234   5.911   0.873   3.490
 6076TIP3    H218235   6.003   0.960   3.572
 6077TIP3   OH218236   3.522   4.948   0.835
 6077TIP3    H118237   3.516   5.032   0.879
 6077TIP3    H218238   3.591   4.901   0.882
 6078TIP3   OH218239   4.013   3.255   1.927
 6078TIP3    H118240   4.030   3.235   2.019
 6078TIP3    H218241   4.054   3.183   1.879
 6079TIP3   OH218242   4.013   1.890   1.141
 6079TIP3    H118243   3.933   1.838   1.145
 6079TIP3    H218244   4.008   1.947   1.218
 6080TIP3   OH218245   5.426   2.481   0.174
 6080TIP3    H118246   5.473   2.437   0.103
 6080TIP3    H218247   5.494   2.497   0.240
 6081TIP3   OH218248   1.206   4.979   3.047
 6081TIP3    H118249   1.170   4.893   3.026
 6081TIP3    H218250   1.153   5.041   2.997
 6082TIP3   OH218251   3.661   1.831   0.186
 6082TIP3    H118252   3.714   1.798   0.259
 6082TIP3    H218253   3.684   1.924   0.181
 6083TIP3   OH218254   5.080   0.805   5.154
 6083TIP3    H118255   5.036   0.733   5.109
 6083TIP3    H218256   5.013   0.872   5.165
 6084TIP3   OH218257   1.336   0.373   0.273
 6084TIP3    H118258   1.300   0.408   0.191
 6084TIP3    H218259   1.403   0.436   0.298
 6085TIP3   OH218260   1.672   0.229   4.173
 6085TIP3    H118261   1.654   0.142   4.139
 6085TIP3    H218262   1.683   0.284   4.095
 6086TIP3   OH218263   4.126   5.345   3.305
 6086TIP3    H118264   4.102   5.280   3.238
 6086TIP3    H218265   4.140   5.426   3.256
 6087TIP3   OH218266   1.159   2.902   2.839
 6087TIP3    H118267   1.090   2.839   2.820
 6087TIP3    H218268   1.240   2.850   2.837
 6088TIP3   OH218269   2.547   2.966   1.391
 6088TIP3    H118270   2.605   2.890   1.378
 6088TIP3    H218271   2.493   2.969   1.312
 6089TIP3   OH218272   4.666   5.768   5.012
 6089TIP3    H118273   4.756   5.735   5.013
 6089TIP3    H218274   4.642   5.771   4.919
 6090TIP3   OH218275   2.813   5.272   3.512
 6090TIP3    H118276   2.880   5.255   3.446
 6090TIP3    H218277   2.846   5.348   3.561
 6091TIP3   OH218278   2.304   4.962   4.642
 6091TIP3    H118279   2.295   4.867   4.655
 6091TIP3    H218280   2.240   4.984   4.574
 6092TIP3   OH218281   2.408   1.174   1.901
 6092TIP3    H118282   2.491   1.219   1.912
 6092TIP3    H218283   2.422   1.087   1.938
 6093TIP3   OH218284   4.662   1.999   2.948
 6093TIP3    H118285   4.698   1.911   2.936
 6093TIP3    H218286   4.738   2.055   2.963
 6094TIP3   OH218287   0.021   3.884   4.578
 6094TIP3    H118288   0.008   3.872   4.484
 6094TIP3    H218289  -0.019   3.969   4.597
 6095TIP3   OH218290   2.539   5.920   3.566
 6095TIP3    H118291   2.465   5.964   3.607
 6095TIP3    H218292   2.552   5.965   3.483
 6096TIP3   OH218293   6.018   1.356   2.050
 6096TIP3    H118294   6.022   1.450   2.035
 6096TIP3    H218295   6.102   1.333   2.089
 6097TIP3   OH218296   1.344   3.002   5.011
 6097TIP3    H118297   1.375   3.001   5.101
 6097TIP3    H218298   1.401   2.939   4.965
 6098TIP3   OH218299   1.206   0.867   1.263
 6098TIP3    H118300   1.131   0.887   1.319
 6098TIP3    H218301   1.234   0.953   1.230
 6099TIP3   OH218302   5.589   4.297   3.168
 6099TIP3    H118303   5.558   4.311   3.257
 6099TIP3    H218304   5.583   4.383   3.127
 6100TIP3   OH218305   1.914   0.673   1.099
 6100TIP3    H118306   2.001   0.631   1.100
 6100TIP3    H218307   1.931   0.762   1.069
 6101TIP3   OH218308   3.176   5.633   2.712
 6101TIP3    H118309   3.227   5.594   2.783
 6101TIP3    H218310   3.117   5.563   2.684
 6102TIP3   OH218311   2.136   1.124   1.816
 6102TIP3    H118312   2.082   1.053   1.850
 6102TIP3    H218313   2.216   1.120   1.867
 6103TIP3   OH218314   4.053   0.653   4.492
 6103TIP3    H118315   4.082   0.726   4.438
 6103TIP3    H218316   4.097   0.576   4.454
 6104TIP3   OH218317   1.156   3.929   1.769
 6104TIP3    H118318   1.200   3.885   1.697
 6104TIP3    H218319   1.220   3.929   1.840
 6105TIP3   OH218320   3.574   1.144   2.437
 6105TIP3    H118321   3.564   1.152   2.343
 6105TIP3    H218322   3.598   1.052   2.451
 6106TIP3   OH218323   0.824   2.933   2.011
 6106TIP3    H118324   0.824   3.025   1.984
 6106TIP3    H218325   0.737   2.920   2.048
 6107TIP3   OH218326   5.311   2.904   4.768
 6107TIP3    H118327   5.387   2.947   4.729
 6107TIP3    H218328   5.347   2.831   4.818
 6108TIP3   OH218329   0.069   1.041   3.260
 6108TIP3    H118330   0.087   0.954   3.223
 6108TIP3    H218331   0.042   1.094   3.185
 6109TIP3   OH218332   6.342   5.433   2.424
 6109TIP3    H118333   6.384   5.517   2.404
 6109TIP3    H218334   6.302   5.446   2.510
 6110TIP3   OH218335   3.327   2.741   4.379
 6110TIP3    H118336   3.411   2.737   4.332
 6110TIP3    H218337   3.337   2.814   4.440
 6111TIP3   OH218338   4.454   5.539   4.401
 6111TIP3    H118339   4.509   5.465   4.377
 6111TIP3    H218340   4.384   5.539   4.335
 6112TIP3   OH218341   0.760   4.695   4.987
 6112TIP3    H118342   0.733   4.678   5.077
 6112TIP3    H218343   0.765   4.608   4.947
 6113TIP3   OH218344   1.641   1.711   0.304
 6113TIP3    H118345   1.703   1.771   0.263
 6113TIP3    H218346   1.638   1.738   0.396
 6114TIP3   OH218347   0.864   2.463   2.915
 6114TIP3    H118348   0.904   2.545   2.887
 6114TIP3    H218349   0.837   2.421   2.834
 6115TIP3   OH218350   0.731   2.462   3.915
 6115TIP3    H118351   0.822   2.490   3.916
 6115TIP3    H218352   0.735   2.366   3.917
 6116TIP3   OH218353   0.574   0.731   3.634
 6116TIP3    H118354   0.592   0.812   3.585
 6116TIP3    H218355   0.656   0.682   3.632
 6117TIP3   OH218356   2.512   5.454   0.096
 6117TIP3    H118357   2.592   5.504   0.081
 6117TIP3    H218358   2.460   5.466   0.016
 6118TIP3   OH218359   5.784   0.213   0.352
 6118TIP3    H118360   5.865   0.244   0.394
 6118TIP3    H218361   5.809   0.202   0.260
 6119TIP3   OH218362   1.846   3.965   4.509
 6119TIP3    H118363   1.797   3.899   4.556
 6119TIP3    H218364   1.936   3.931   4.506
 6120TIP3   OH218365   4.705   4.560   3.679
 6120TIP3    H118366   4.697   4.653   3.658
 6120TIP3    H218367   4.676   4.553   3.770
 6121TIP3   OH218368   2.718   3.265   3.962
 6121TIP3    H118369   2.729   3.225   4.049
 6121TIP3    H218370   2.751   3.354   3.972
 6122TIP3   OH218371   2.648   5.698   4.263
 6122TIP3    H118372   2.622   5.749   4.187
 6122TIP3    H218373   2.606   5.613   4.251
 6123TIP3   OH218374   3.043   3.244   2.870
 6123TIP3    H118375   2.996   3.327   2.880
 6123TIP3    H218376   2.979   3.177   2.895
 6124TIP3   OH218377   5.745   5.644   5.152
 6124TIP3    H118378   5.678   5.703   5.118
 6124TIP3    H218379   5.827   5.677   5.116
 6125TIP3   OH218380   1.153   1.821   2.737
 6125TIP3    H118381   1.107   1.781   2.811
 6125TIP3    H218382   1.106   1.903   2.721
 6126TIP3   OH218383   5.947   2.721   3.984
 6126TIP3    H118384   5.933   2.711   3.890
 6126TIP3    H218385   5.971   2.634   4.014
 6127TIP3   OH218386   5.111   0.828   0.492
 6127TIP3    H118387   5.150   0.790   0.570
 6127TIP3    H218388   5.177   0.890   0.460
 6128TIP3   OH218389   2.667   0.280   5.092
 6128TIP3    H118390   2.762   0.268   5.087
 6128TIP3    H218391   2.634   0.242   5.011
 6129TIP3   OH218392   3.555   0.017   3.540
 6129TIP3    H118393   3.558   0.039   3.633
 6129TIP3    H218394   3.467   0.043   3.512
 6130TIP3   OH218395   1.999   3.346   1.076
 6130TIP3    H118396   1.979   3.335   1.169
 6130TIP3    H218397   2.084   3.391   1.075
 6131TIP3   OH218398   0.963   3.759   2.818
 6131TIP3    H118399   0.901   3.823   2.784
 6131TIP3    H218400   1.048   3.790   2.786
 6132TIP3   OH218401   4.587   1.625   1.880
 6132TIP3    H118402   4.547   1.645   1.796
 6132TIP3    H218403   4.653   1.559   1.861
 6133TIP3   OH218404   6.220   4.719   1.768
 6133TIP3    H118405   6.306   4.685   1.743
 6133TIP3    H218406   6.237   4.771   1.846
 6134TIP3   OH218407   2.111   2.346   2.485
 6134TIP3    H118408   2.056   2.294   2.544
 6134TIP3    H218409   2.191   2.294   2.476
 6135TIP3   OH218410   0.639   2.744   1.020
 6135TIP3    H118411   0.551   2.709   1.004
 6135TIP3    H218412   0.642   2.824   0.968
 6136TIP3   OH218413   5.072   0.730   4.428
 6136TIP3    H118414   5.147   0.703   4.481
 6136TIP3    H218415   5.042   0.649   4.387
 6137TIP3   OH218416   3.135   0.195   1.580
 6137TIP3    H118417   3.061   0.150   1.621
 6137TIP3    H218418   3.204   0.128   1.575
 6138TIP3   OH218419   1.813   4.932   0.923
 6138TIP3    H118420   1.898   4.911   0.884
 6138TIP3    H218421   1.828   5.012   0.973
 6139TIP3   OH218422   0.136   5.612   1.123
 6139TIP3    H118423   0.120   5.656   1.206
 6139TIP3    H218424   0.182   5.531   1.148
 6140TIP3   OH218425   5.011   4.011   2.926
 6140TIP3    H118426   4.947   4.046   2.864
 6140TIP3    H218427   5.083   3.979   2.871
 6141TIP3   OH218428   3.304   2.949   3.665
 6141TIP3    H118429   3.255   2.941   3.747
 6141TIP3    H218430   3.396   2.955   3.692
 6142TIP3   OH218431   5.557   0.487   1.421
 6142TIP3    H118432   5.638   0.466   1.467
 6142TIP3    H218433   5.513   0.403   1.409
 6143TIP3   OH218434   3.269   4.375   3.696
 6143TIP3    H118435   3.293   4.289   3.729
 6143TIP3    H218436   3.352   4.417   3.674
 6144TIP3   OH218437   0.248   1.620   0.352
 6144TIP3    H118438   0.156   1.642   0.334
 6144TIP3    H218439   0.297   1.695   0.317
 6145TIP3   OH218440   5.187   0.700   3.517
 6145TIP3    H118441   5.198   0.727   3.608
 6145TIP3    H218442   5.206   0.779   3.466
 6146TIP3   OH218443   4.660   3.305   0.588
 6146TIP3    H118444   4.655   3.317   0.683
 6146TIP3    H218445   4.573   3.274   0.564
 6147TIP3   OH218446   2.849   4.358   4.089
 6147TIP3    H118447   2.888   4.445   4.079
 6147TIP3    H218448   2.835   4.327   4.000
 6148TIP3   OH218449   5.960   4.502   4.869
 6148TIP3    H118450   5.929   4.591   4.882
 6148TIP3    H218451   6.019   4.486   4.942
 6149TIP3   OH218452   3.640   4.494   1.239
 6149TIP3    H118453   3.597   4.563   1.189
 6149TIP3    H218454   3.681   4.439   1.172
 6150TIP3   OH218455   0.397   2.465   4.537
 6150TIP3    H118456   0.461   2.408   4.581
 6150TIP3    H218457   0.384   2.538   4.598
 6151TIP3   OH218458   3.667   5.924   3.081
 6151TIP3    H118459   3.711   5.842   3.101
 6151TIP3    H218460   3.671   5.974   3.163
 6152TIP3   OH218461   2.321   2.204   2.362
 6152TIP3    H118462   2.404   2.190   2.317
 6152TIP3    H218463   2.275   2.121   2.354
 6153TIP3   OH218464   2.093   1.264   3.645
 6153TIP3    H118465   2.089   1.235   3.554
 6153TIP3    H218466   2.010   1.234   3.683
 6154TIP3   OH218467   3.821   3.696   0.146
 6154TIP3    H118468   3.807   3.726   0.056
 6154TIP3    H218469   3.734   3.673   0.177
 6155TIP3   OH218470   2.266   3.058   0.365
 6155TIP3    H118471   2.205   3.072   0.438
 6155TIP3    H218472   2.212   3.067   0.287
 6156TIP3   OH218473   3.458   2.673   1.568
 6156TIP3    H118474   3.548   2.647   1.586
 6156TIP3    H218475   3.410   2.648   1.647
 6157TIP3   OH218476   4.447   2.282   2.022
 6157TIP3    H118477   4.485   2.196   2.006
 6157TIP3    H218478   4.444   2.323   1.936
 6158TIP3   OH218479   4.864   2.922   3.734
 6158TIP3    H118480   4.814   3.004   3.743
 6158TIP3    H218481   4.956   2.951   3.731
 6159TIP3   OH218482   5.381   3.357   0.623
 6159TIP3    H118483   5.404   3.390   0.536
 6159TIP3    H218484   5.304   3.407   0.648
 6160TIP3   OH218485   1.710   3.254   0.299
 6160TIP3    H118486   1.616   3.263   0.285
 6160TIP3    H218487   1.744   3.343   0.289
 6161TIP3   OH218488   5.825   0.898   3.839
 6161TIP3    H118489   5.865   0.887   3.753
 6161TIP3    H218490   5.843   0.990   3.862
 6162TIP3   OH218491   4.387   5.597   2.581
 6162TIP3    H118492   4.400   5.548   2.662
 6162TIP3    H218493   4.369   5.530   2.515
 6163TIP3   OH218494   4.115   1.518   4.271
 6163TIP3    H118495   4.152   1.602   4.246
 6163TIP3    H218496   4.168   1.453   4.225
 6164TIP3   OH218497   0.810   5.704   2.804
 6164TIP3    H118498   0.767   5.653   2.736
 6164TIP3    H218499   0.888   5.653   2.827
 6165TIP3   OH218500   0.897   3.292   4.450
 6165TIP3    H118501   0.933   3.340   4.524
 6165TIP3    H218502   0.885   3.203   4.483
 6166TIP3   OH218503   5.514   0.165   1.909
 6166TIP3    H118504   5.436   0.203   1.868
 6166TIP3    H218505   5.577   0.159   1.838
 6167TIP3   OH218506   4.741   4.002   2.692
 6167TIP3    H118507   4.678   3.965   2.630
 6167TIP3    H218508   4.827   3.979   2.656
 6168TIP3   OH218509   4.272   3.171   1.205
 6168TIP3    H118510   4.257   3.076   1.212
 6168TIP3    H218511   4.190   3.210   1.233
 6169TIP3   OH218512   6.083   5.562   4.437
 6169TIP3    H118513   6.051   5.553   4.347
 6169TIP3    H218514   6.165   5.513   4.438
 6170TIP3   OH218515   4.443   0.017   1.546
 6170TIP3    H118516   4.352   0.008   1.572
 6170TIP3    H218517   4.446  -0.020   1.457
 6171TIP3   OH218518   3.825   5.708   3.245
 6171TIP3    H118519   3.816   5.672   3.157
 6171TIP3    H218520   3.919   5.706   3.262
 6172TIP3   OH218521   4.069   5.549   2.422
 6172TIP3    H118522   4.047   5.489   2.493
 6172TIP3    H218523   3.998   5.614   2.424
 6173TIP3   OH218524   6.047   1.610   1.982
 6173TIP3    H118525   6.126   1.656   2.011
 6173TIP3    H218526   6.031   1.643   1.894
 6174TIP3   OH218527   4.740   0.497   3.229
 6174TIP3    H118528   4.827   0.469   3.198
 6174TIP3    H218529   4.737   0.590   3.209
 6175TIP3   OH218530   2.678   1.880   2.779
 6175TIP3    H118531   2.747   1.942   2.754
 6175TIP3    H218532   2.598   1.933   2.783
 6176TIP3   OH218533   0.136   5.688   4.751
 6176TIP3    H118534   0.064   5.737   4.711
 6176TIP3    H218535   0.118   5.597   4.729
 6177TIP3   OH218536   3.528   1.629   4.924
 6177TIP3    H118537   3.441   1.613   4.960
 6177TIP3    H218538   3.538   1.724   4.928
 6178TIP3   OH218539   5.239   1.607   4.520
 6178TIP3    H118540   5.234   1.545   4.592
 6178TIP3    H218541   5.332   1.621   4.505
 6179TIP3   OH218542   4.817   2.423   4.315
 6179TIP3    H118543   4.777   2.345   4.276
 6179TIP3    H218544   4.886   2.388   4.371
 6180TIP3   OH218545   4.288   2.587   4.436
 6180TIP3    H118546   4.252   2.621   4.355
 6180TIP3    H218547   4.383   2.590   4.424
 6181TIP3   OH218548   2.706   1.769   4.898
 6181TIP3    H118549   2.716   1.736   4.809
 6181TIP3    H218550   2.685   1.691   4.950
 6182TIP3   OH218551   1.350   3.687   2.310
 6182TIP3    H118552   1.340   3.592   2.320
 6182TIP3    H218553   1.438   3.698   2.274
 6183TIP3   OH218554   2.169   4.440   4.691
 6183TIP3    H118555   2.150   4.421   4.782
 6183TIP3    H218556   2.169   4.354   4.648
 6184TIP3   OH218557   3.312   3.776   3.399
 6184TIP3    H118558   3.284   3.696   3.443
 6184TIP3    H218559   3.294   3.761   3.306
 6185TIP3   OH218560   4.324   1.414   1.872
 6185TIP3    H118561   4.369   1.494   1.899
 6185TIP3    H218562   4.232   1.429   1.894
 6186TIP3   OH218563   5.999   5.394   1.050
 6186TIP3    H118564   6.066   5.449   1.089
 6186TIP3    H218565   5.928   5.454   1.027
 6187TIP3   OH218566   1.574   2.205   0.560
 6187TIP3    H118567   1.627   2.271   0.516
 6187TIP3    H218568   1.520   2.254   0.621
 6188TIP3   OH218569   0.460   5.691   2.749
 6188TIP3    H118570   0.546   5.732   2.756
 6188TIP3    H218571   0.443   5.655   2.836
 6189TIP3   OH218572   3.268   0.713   0.982
 6189TIP3    H118573   3.186   0.743   1.022
 6189TIP3    H218574   3.332   0.717   1.053
 6190TIP3   OH218575   4.267   0.397   3.466
 6190TIP3    H118576   4.343   0.423   3.414
 6190TIP3    H218577   4.249   0.472   3.522
 6191TIP3   OH218578   1.473   1.524   3.509
 6191TIP3    H118579   1.448   1.589   3.444
 6191TIP3    H218580   1.520   1.457   3.458
 6192TIP3   OH218581   4.590   0.118   4.044
 6192TIP3    H118582   4.601   0.149   3.954
 6192TIP3    H218583   4.574   0.197   4.096
 6193TIP3   OH218584   1.159   4.731   0.109
 6193TIP3    H118585   1.158   4.827   0.108
 6193TIP3    H218586   1.237   4.707   0.058
 6194TIP3   OH218587   1.513   1.602   0.044
 6194TIP3    H118588   1.591   1.606  -0.012
 6194TIP3    H218589   1.537   1.653   0.121
 6195TIP3   OH218590   2.035   4.481   0.820
 6195TIP3    H118591   2.053   4.410   0.757
 6195TIP3    H218592   2.118   4.529   0.825
 6196TIP3   OH218593   1.489   0.520   1.001
 6196TIP3    H118594   1.552   0.488   0.937
 6196TIP3    H218595   1.536   0.519   1.084
 6197TIP3   OH218596   6.318   5.226   3.879
 6197TIP3    H118597   6.364   5.219   3.962
 6197TIP3    H218598   6.387   5.251   3.816
 6198TIP3   OH218599   4.545   0.576   1.820
 6198TIP3    H118600   4.541   0.493   1.773
 6198TIP3    H218601   4.639   0.590   1.835
 6199TIP3   OH218602   4.451   4.399   3.663
 6199TIP3    H118603   4.463   4.357   3.748
 6199TIP3    H218604   4.464   4.492   3.679
 6200TIP3   OH218605   0.567   0.032   4.313
 6200TIP3    H118606   0.497   0.021   4.377
 6200TIP3    H218607   0.631   0.088   4.357
 6201TIP3   OH218608   0.988   4.519   3.306
 6201TIP3    H118609   0.903   4.478   3.320
 6201TIP3    H218610   1.022   4.477   3.228
 6202TIP3   OH218611   3.520   0.296   3.690
 6202TIP3    H118612   3.465   0.248   3.752
 6202TIP3    H218613   3.597   0.321   3.741
 6203TIP3   OH218614   5.308   2.061   0.900
 6203TIP3    H118615   5.317   2.019   0.986
 6203TIP3    H218616   5.253   2.002   0.849
 6204TIP3   OH218617   4.599   4.900   1.254
 6204TIP3    H118618   4.678   4.854   1.226
 6204TIP3    H218619   4.549   4.912   1.174
 6205TIP3   OH218620   2.452   5.021   3.676
 6205TIP3    H118621   2.486   5.063   3.755
 6205TIP3    H218622   2.442   5.092   3.613
 6206TIP3   OH218623   1.980   2.457   2.276
 6206TIP3    H118624   2.001   2.422   2.363
 6206TIP3    H218625   2.061   2.446   2.226
 6207TIP3   OH218626   4.206   4.025   1.948
 6207TIP3    H118627   4.251   4.070   1.876
 6207TIP3    H218628   4.147   3.963   1.904
 6208TIP3   OH218629   5.759   1.431   0.019
 6208TIP3    H118630   5.700   1.388   0.081
 6208TIP3    H218631   5.704   1.496  -0.024
 6209TIP3   OH218632   3.608   2.083   0.643
 6209TIP3    H118633   3.568   2.150   0.699
 6209TIP3    H218634   3.604   2.119   0.555
 6210TIP3   OH218635   5.705  -0.003   0.065
 6210TIP3    H118636   5.765  -0.070   0.095
 6210TIP3    H218637   5.755   0.079   0.069
 6211TIP3   OH218638   2.491   3.560   4.406
 6211TIP3    H118639   2.519   3.559   4.315
 6211TIP3    H218640   2.508   3.471   4.437
 6212TIP3   OH218641   2.961   2.554   0.182
 6212TIP3    H118642   2.986   2.582   0.270
 6212TIP3    H218643   2.899   2.620   0.153
 6213TIP3   OH218644   2.247   3.443   1.121
 6213TIP3    H118645   2.318   3.408   1.067
 6213TIP3    H218646   2.249   3.538   1.106
 6214TIP3   OH218647   1.678   1.178   0.196
 6214TIP3    H118648   1.662   1.206   0.106
 6214TIP3    H218649   1.674   1.259   0.248
 6215TIP3   OH218650   4.039   1.843   2.420
 6215TIP3    H118651   3.961   1.896   2.407
 6215TIP3    H218652   4.050   1.794   2.338
 6216TIP3   OH218653   1.320   4.633   3.181
 6216TIP3    H118654   1.292   4.542   3.188
 6216TIP3    H218655   1.238   4.683   3.181
 6217TIP3   OH218656   1.333   4.152   2.079
 6217TIP3    H118657   1.266   4.213   2.047
 6217TIP3    H218658   1.347   4.179   2.170
 6218TIP3   OH218659   4.115   1.033   0.817
 6218TIP3    H118660   4.076   0.963   0.868
 6218TIP3    H218661   4.045   1.098   0.808
 6219TIP3   OH218662   4.383   3.215   1.763
 6219TIP3    H118663   4.369   3.297   1.810
 6219TIP3    H218664   4.465   3.181   1.799
 6220TIP3   OH218665   0.220   3.973   1.207
 6220TIP3    H118666   0.164   3.970   1.285
 6220TIP3    H218667   0.215   4.064   1.178
 6221TIP3   OH218668   5.272   3.006   4.096
 6221TIP3    H118669   5.324   2.926   4.104
 6221TIP3    H218670   5.336   3.077   4.099
 6222TIP3   OH218671   2.706   4.163   3.419
 6222TIP3    H118672   2.652   4.105   3.473
 6222TIP3    H218673   2.764   4.207   3.482
 6223TIP3   OH218674   5.041   4.445   0.858
 6223TIP3    H118675   5.130   4.455   0.823
 6223TIP3    H218676   4.986   4.433   0.780
 6224TIP3   OH218677   0.748   1.544   0.140
 6224TIP3    H118678   0.802   1.568   0.215
 6224TIP3    H218679   0.792   1.584   0.065
 6225TIP3   OH218680   3.171   4.096   4.781
 6225TIP3    H118681   3.150   4.143   4.700
 6225TIP3    H218682   3.256   4.131   4.807
 6226TIP3   OH218683   4.195   5.552   4.304
 6226TIP3    H118684   4.180   5.647   4.308
 6226TIP3    H218685   4.153   5.518   4.382
 6227TIP3   OH218686   5.409   0.547   2.920
 6227TIP3    H118687   5.442   0.636   2.906
 6227TIP3    H218688   5.448   0.521   3.003
 6228TIP3   OH218689   5.368   4.894   2.181
 6228TIP3    H118690   5.298   4.948   2.144
 6228TIP3    H218691   5.349   4.805   2.151
 6229TIP3   OH218692   5.812   2.144   1.427
 6229TIP3    H118693   5.760   2.211   1.472
 6229TIP3    H218694   5.756   2.115   1.355
 6230TIP3   OH218695   5.278   2.852   3.365
 6230TIP3    H118696   5.196   2.820   3.326
 6230TIP3    H218697   5.250   2.899   3.444
 6231TIP3   OH218698   6.063   3.828   1.004
 6231TIP3    H118699   5.978   3.789   1.021
 6231TIP3    H218700   6.125   3.775   1.054
 6232TIP3   OH218701   2.226   5.138   0.699
 6232TIP3    H118702   2.298   5.183   0.653
 6232TIP3    H218703   2.147   5.166   0.653
 6233TIP3   OH218704   0.633   1.535   2.436
 6233TIP3    H118705   0.724   1.551   2.461
 6233TIP3    H218706   0.581   1.569   2.509
 6234TIP3   OH218707   0.657   2.629   3.420
 6234TIP3    H118708   0.574   2.652   3.462
 6234TIP3    H218709   0.663   2.689   3.345
 6235TIP3   OH218710   0.348   3.280   2.896
 6235TIP3    H118711   0.365   3.367   2.861
 6235TIP3    H218712   0.308   3.232   2.823
 6236TIP3   OH218713   1.602   2.868   0.323
 6236TIP3    H118714   1.514   2.837   0.303
 6236TIP3    H218715   1.632   2.907   0.241
 6237TIP3   OH218716   2.830   1.794   1.061
 6237TIP3    H118717   2.787   1.777   1.145
 6237TIP3    H218718   2.801   1.723   1.004
 6238TIP3   OH218719   0.408   2.249   4.967
 6238TIP3    H118720   0.385   2.157   4.984
 6238TIP3    H218721   0.347   2.278   4.900
 6239TIP3   OH218722   2.514   4.173   2.450
 6239TIP3    H118723   2.465   4.091   2.436
 6239TIP3    H218724   2.597   4.144   2.487
 6240TIP3   OH218725   4.493   2.194   0.838
 6240TIP3    H118726   4.472   2.191   0.931
 6240TIP3    H218727   4.442   2.124   0.798
 6241TIP3   OH218728   5.254   0.926   3.692
 6241TIP3    H118729   5.235   0.997   3.753
 6241TIP3    H218730   5.350   0.920   3.692
 6242TIP3   OH218731   1.574   3.205   1.582
 6242TIP3    H118732   1.630   3.188   1.507
 6242TIP3    H218733   1.529   3.122   1.598
 6243TIP3   OH218734   1.176   5.649   2.458
 6243TIP3    H118735   1.148   5.626   2.546
 6243TIP3    H218736   1.268   5.675   2.468
 6244TIP3   OH218737   2.609   5.712   1.032
 6244TIP3    H118738   2.656   5.787   1.067
 6244TIP3    H218739   2.652   5.635   1.069
 6245TIP3   OH218740   0.073   2.831   4.956
 6245TIP3    H118741   0.032   2.916   4.973
 6245TIP3    H218742   0.157   2.835   5.003
 6246TIP3   OH218743   4.124   3.565   0.349
 6246TIP3    H118744   4.040   3.605   0.371
 6246TIP3    H218745   4.103   3.499   0.284
 6247TIP3   OH218746   0.765   1.205   4.118
 6247TIP3    H118747   0.841   1.239   4.071
 6247TIP3    H218748   0.772   1.110   4.109
 6248TIP3   OH218749   1.921   2.105   2.880
 6248TIP3    H118750   1.832   2.126   2.851
 6248TIP3    H218751   1.909   2.032   2.941
 6249TIP3   OH218752   1.906   1.806   3.404
 6249TIP3    H118753   1.962   1.877   3.374
 6249TIP3    H218754   1.891   1.824   3.497
 6250TIP3   OH218755   5.264   0.234   0.005
 6250TIP3    H118756   5.268   0.306  -0.058
 6250TIP3    H218757   5.354   0.225   0.037
 6251TIP3   OH218758   0.204   0.859   3.917
 6251TIP3    H118759   0.136   0.904   3.866
 6251TIP3    H218760   0.188   0.766   3.902
 6252TIP3   OH218761   0.012   0.400   0.896
 6252TIP3    H118762   0.095   0.365   0.930
 6252TIP3    H218763  -0.026   0.448   0.970
 6253TIP3   OH218764   5.440   0.731   0.949
 6253TIP3    H118765   5.484   0.663   1.000
 6253TIP3    H218766   5.468   0.716   0.859
 6254TIP3   OH218767   0.273   0.728   3.599
 6254TIP3    H118768   0.256   0.687   3.684
 6254TIP3    H218769   0.365   0.707   3.581
 6255TIP3   OH218770   2.269   0.922   5.201
 6255TIP3    H118771   2.191   0.919   5.257
 6255TIP3    H218772   2.243   0.876   5.121
 6256TIP3   OH218773   5.030   0.441   3.204
 6256TIP3    H118774   5.098   0.432   3.271
 6256TIP3    H218775   5.068   0.500   3.140
 6257TIP3   OH218776   2.768   5.377   2.103
 6257TIP3    H118777   2.771   5.323   2.182
 6257TIP3    H218778   2.675   5.395   2.090
 6258TIP3   OH218779   1.143   0.669   3.938
 6258TIP3    H118780   1.233   0.685   3.966
 6258TIP3    H218781   1.121   0.743   3.882
 6259TIP3   OH218782   2.108   3.147   4.327
 6259TIP3    H118783   2.037   3.203   4.295
 6259TIP3    H218784   2.126   3.180   4.415
 6260TIP3   OH218785   1.104   0.225   1.120
 6260TIP3    H118786   1.121   0.143   1.167
 6260TIP3    H218787   1.146   0.213   1.035
 6261TIP3   OH218788   4.196   4.518   3.867
 6261TIP3    H118789   4.140   4.466   3.809
 6261TIP3    H218790   4.135   4.566   3.923
 6262TIP3   OH218791   1.589   2.858   1.906
 6262TIP3    H118792   1.570   2.801   1.980
 6262TIP3    H218793   1.551   2.813   1.831
 6263TIP3   OH218794   1.598   1.242   4.308
 6263TIP3    H118795   1.648   1.318   4.279
 6263TIP3    H218796   1.645   1.167   4.273
 6264TIP3   OH218797   4.777   4.913   4.947
 6264TIP3    H118798   4.713   4.981   4.973
 6264TIP3    H218799   4.860   4.946   4.981
 6265TIP3   OH218800   2.994   1.603   3.282
 6265TIP3    H118801   2.908   1.578   3.250
 6265TIP3    H218802   3.044   1.522   3.284
 6266TIP3   OH218803   3.177   2.365   0.930
 6266TIP3    H118804   3.082   2.357   0.937
 6266TIP3    H218805   3.202   2.420   1.004
 6267TIP3   OH218806   3.882   1.195   4.759
 6267TIP3    H118807   3.799   1.189   4.806
 6267TIP3    H218808   3.880   1.123   4.696
 6268TIP3   OH218809   6.087   1.112   3.292
 6268TIP3    H118810   6.112   1.166   3.218
 6268TIP3    H218811   6.051   1.174   3.356
 6269TIP3   OH218812   6.301   0.981   5.001
 6269TIP3    H118813   6.276   0.897   5.040
 6269TIP3    H218814   6.268   1.047   5.063
 6270TIP3   OH218815   6.073   5.938   0.741
 6270TIP3    H118816   6.075   5.858   0.793
 6270TIP3    H218817   5.984   5.972   0.752
 6271TIP3   OH218818   3.384   5.970   4.006
 6271TIP3    H118819   3.310   5.946   3.950
 6271TIP3    H218820   3.428   5.887   4.024
 6272TIP3   OH218821   5.063   2.678   1.953
 6272TIP3    H118822   5.114   2.661   1.874
 6272TIP3    H218823   5.117   2.642   2.024
 6273TIP3   OH218824   1.046   3.081   0.169
 6273TIP3    H118825   1.101   3.109   0.242
 6273TIP3    H218826   0.962   3.057   0.209
 6274TIP3   OH218827   0.928   3.416   2.632
 6274TIP3    H118828   1.001   3.470   2.664
 6274TIP3    H218829   0.969   3.353   2.574
 6275TIP3   OH218830   0.190   1.198   1.176
 6275TIP3    H118831   0.113   1.221   1.228
 6275TIP3    H218832   0.257   1.260   1.204
 6276TIP3   OH218833   5.164   4.206   5.098
 6276TIP3    H118834   5.103   4.132   5.085
 6276TIP3    H218835   5.248   4.173   5.067
 6277TIP3   OH218836   0.460   5.801   3.235
 6277TIP3    H118837   0.492   5.814   3.146
 6277TIP3    H218838   0.531   5.753   3.279
 6278TIP3   OH218839   5.134   4.962   2.356
 6278TIP3    H118840   5.066   4.930   2.296
 6278TIP3    H218841   5.209   4.981   2.300
 6279TIP3   OH218842   5.052   5.207   0.018
 6279TIP3    H118843   5.001   5.147  -0.036
 6279TIP3    H218844   4.987   5.255   0.069
 6280TIP3   OH218845   3.722   5.066   3.447
 6280TIP3    H118846   3.790   5.126   3.416
 6280TIP3    H218847   3.769   4.989   3.479
 6281TIP3   OH218848   5.970   5.690   0.475
 6281TIP3    H118849   5.901   5.701   0.539
 6281TIP3    H218850   5.925   5.689   0.390
 6282TIP3   OH218851   0.206   4.239   0.578
 6282TIP3    H118852   0.149   4.306   0.614
 6282TIP3    H218853   0.210   4.171   0.645
 6283TIP3   OH218854   4.830   1.802   0.862
 6283TIP3    H118855   4.828   1.787   0.956
 6283TIP3    H218856   4.752   1.758   0.828
 6284TIP3   OH218857   2.838   3.700   4.266
 6284TIP3    H118858   2.783   3.724   4.341
 6284TIP3    H218859   2.855   3.607   4.279
 6285TIP3   OH218860   2.749   2.104   0.981
 6285TIP3    H118861   2.715   2.068   1.063
 6285TIP3    H218862   2.740   2.033   0.918
 6286TIP3   OH218863   5.652   3.338   1.290
 6286TIP3    H118864   5.701   3.383   1.359
 6286TIP3    H218865   5.715   3.277   1.252
 6287TIP3   OH218866   0.002   5.604   0.862
 6287TIP3    H118867   0.070   5.641   0.805
 6287TIP3    H218868   0.038   5.612   0.950
 6288TIP3   OH218869   6.106   2.908   2.469
 6288TIP3    H118870   6.136   2.854   2.543
 6288TIP3    H218871   6.122   2.854   2.392
 6289TIP3   OH218872   4.311   2.212   2.600
 6289TIP3    H118873   4.349   2.257   2.525
 6289TIP3    H218874   4.385   2.193   2.658
 6290TIP3   OH218875   1.434   3.528   0.354
 6290TIP3    H118876   1.391   3.509   0.437
 6290TIP3    H218877   1.441   3.442   0.311
 6291TIP3   OH218878   5.395   1.918   0.581
 6291TIP3    H118879   5.396   1.991   0.519
 6291TIP3    H218880   5.464   1.938   0.644
 6292TIP3   OH218881   6.163   5.747   0.222
 6292TIP3    H118882   6.191   5.655   0.227
 6292TIP3    H218883   6.107   5.750   0.144
 6293TIP3   OH218884   3.888   4.464   3.247
 6293TIP3    H118885   3.915   4.384   3.292
 6293TIP3    H218886   3.843   4.433   3.169
 6294TIP3   OH218887   2.545   5.192   3.871
 6294TIP3    H118888   2.561   5.252   3.797
 6294TIP3    H218889   2.632   5.160   3.896
 6295TIP3   OH218890   6.273   1.689   1.041
 6295TIP3    H118891   6.331   1.634   1.094
 6295TIP3    H218892   6.330   1.728   0.974
 6296TIP3   OH218893   4.190   2.486   3.057
 6296TIP3    H118894   4.270   2.508   3.105
 6296TIP3    H218895   4.220   2.438   2.980
 6297TIP3   OH218896   4.511   3.261   1.438
 6297TIP3    H118897   4.502   3.342   1.387
 6297TIP3    H218898   4.462   3.278   1.518
 6298TIP3   OH218899   2.533   1.644   2.355
 6298TIP3    H118900   2.567   1.556   2.341
 6298TIP3    H218901   2.515   1.648   2.449
 6299TIP3   OH218902   3.521   1.470   1.138
 6299TIP3    H118903   3.461   1.492   1.210
 6299TIP3    H218904   3.552   1.554   1.105
 6300TIP3   OH218905   5.090   4.190   3.719
 6300TIP3    H118906   5.042   4.145   3.788
 6300TIP3    H218907   5.061   4.281   3.724
 6301TIP3   OH218908   4.859   5.886   1.624
 6301TIP3    H118909   4.863   5.867   1.530
 6301TIP3    H218910   4.770   5.918   1.639
 6302TIP3   OH218911   0.890   1.034   5.092
 6302TIP3    H118912   0.949   1.095   5.138
 6302TIP3    H218913   0.813   1.087   5.071
 6303TIP3   OH218914   1.565   0.811   3.864
 6303TIP3    H118915   1.510   0.889   3.876
 6303TIP3    H218916   1.514   0.753   3.808
 6304TIP3   OH218917   5.914   5.224   4.551
 6304TIP3    H118918   5.950   5.312   4.561
 6304TIP3    H218919   5.850   5.216   4.621
 6305TIP3   OH218920   0.800   0.678   2.468
 6305TIP3    H118921   0.729   0.663   2.405
 6305TIP3    H218922   0.784   0.613   2.537
 6306TIP3   OH218923   5.404   4.428   1.106
 6306TIP3    H118924   5.468   4.430   1.035
 6306TIP3    H218925   5.353   4.508   1.094
 6307TIP3   OH218926   1.079   4.747   3.088
 6307TIP3    H118927   1.019   4.754   3.162
 6307TIP3    H218928   1.024   4.723   3.014
 6308TIP3   OH218929   3.501   4.653   0.345
 6308TIP3    H118930   3.522   4.717   0.276
 6308TIP3    H218931   3.565   4.583   0.332
 6309TIP3   OH218932   6.207   0.664   1.384
 6309TIP3    H118933   6.148   0.610   1.438
 6309TIP3    H218934   6.236   0.733   1.443
 6310TIP3   OH218935   2.786   2.494   1.164
 6310TIP3    H118936   2.720   2.527   1.226
 6310TIP3    H218937   2.870   2.513   1.205
 6311TIP3   OH218938   0.997   5.579   0.100
 6311TIP3    H118939   1.063   5.643   0.075
 6311TIP3    H218940   1.026   5.497   0.060
 6312TIP3   OH218941   3.585   4.549   2.456
 6312TIP3    H118942   3.553   4.636   2.432
 6312TIP3    H218943   3.677   4.562   2.477
 6313TIP3   OH218944   3.929   0.038   4.159
 6313TIP3    H118945   3.962   0.109   4.104
 6313TIP3    H218946   3.835   0.051   4.163
 6314TIP3   OH218947   0.500   5.822   4.361
 6314TIP3    H118948   0.453   5.770   4.426
 6314TIP3    H218949   0.592   5.799   4.374
 6315TIP3   OH218950   4.039   3.438   3.649
 6315TIP3    H118951   4.094   3.476   3.718
 6315TIP3    H218952   4.057   3.344   3.654
 6316TIP3   OH218953   3.090   0.543   4.677
 6316TIP3    H118954   3.119   0.462   4.634
 6316TIP3    H218955   2.996   0.546   4.660
 6317TIP3   OH218956   5.994   0.672   3.845
 6317TIP3    H118957   5.962   0.761   3.830
 6317TIP3    H218958   6.074   0.666   3.793
 6318TIP3   OH218959   5.966   5.639   2.520
 6318TIP3    H118960   5.942   5.667   2.609
 6318TIP3    H218961   6.016   5.712   2.484
 6319TIP3   OH218962   5.796   0.180   2.933
 6319TIP3    H118963   5.765   0.258   2.979
 6319TIP3    H218964   5.802   0.113   3.001
 6320TIP3   OH218965   4.779   3.489   2.379
 6320TIP3    H118966   4.863   3.467   2.340
 6320TIP3    H218967   4.796   3.493   2.473
 6321TIP3   OH218968   0.216   1.138   3.700
 6321TIP3    H118969   0.222   1.150   3.605
 6321TIP3    H218970   0.207   1.043   3.711
 6322TIP3   OH218971   3.093   4.514   2.418
 6322TIP3    H118972   3.146   4.573   2.364
 6322TIP3    H218973   3.006   4.516   2.378
 6323TIP3   OH218974   3.665   0.039   1.973
 6323TIP3    H118975   3.675   0.056   1.880
 6323TIP3    H218976   3.623  -0.047   1.978
 6324TIP3   OH218977   2.080   4.601   1.134
 6324TIP3    H118978   2.154   4.628   1.079
 6324TIP3    H218979   2.047   4.522   1.093
 6325TIP3   OH218980   5.483   0.315   5.173
 6325TIP3    H118981   5.553   0.379   5.162
 6325TIP3    H218982   5.469   0.280   5.085
 6326TIP3   OH218983   0.704   0.680   3.118
 6326TIP3    H118984   0.796   0.692   3.095
 6326TIP3    H218985   0.657   0.688   3.035
 6327TIP3   OH218986   1.854   0.468   2.866
 6327TIP3    H118987   1.855   0.543   2.806
 6327TIP3    H218988   1.878   0.393   2.812
 6328TIP3   OH218989   6.299   2.970   2.704
 6328TIP3    H118990   6.223   2.950   2.758
 6328TIP3    H218991   6.338   2.885   2.684
 6329TIP3   OH218992   4.888   1.941   1.783
 6329TIP3    H118993   4.826   1.933   1.710
 6329TIP3    H218994   4.834   1.926   1.861
 6330TIP3   OH218995   0.618   0.692   0.596
 6330TIP3    H118996   0.555   0.633   0.638
 6330TIP3    H218997   0.699   0.641   0.593
 6331TIP3   OH218998   1.646   3.693   0.426
 6331TIP3    H118999   1.560   3.672   0.388
 6331TIP3    H219000   1.626   3.751   0.500
 6332TIP3   OH219001   3.342   3.149   5.067
 6332TIP3    H119002   3.300   3.224   5.109
 6332TIP3    H219003   3.400   3.113   5.133
 6333TIP3   OH219004   2.276   2.488   0.428
 6333TIP3    H119005   2.233   2.570   0.451
 6333TIP3    H219006   2.222   2.420   0.467
 6334TIP3   OH219007   0.337   2.112   2.854
 6334TIP3    H119008   0.392   2.076   2.923
 6334TIP3    H219009   0.324   2.203   2.879
 6335TIP3   OH219010   6.320   2.454   1.069
 6335TIP3    H119011   6.382   2.382   1.078
 6335TIP3    H219012   6.291   2.450   0.978
 6336TIP3   OH219013   5.253   2.579   3.608
 6336TIP3    H119014   5.326   2.637   3.590
 6336TIP3    H219015   5.232   2.594   3.700
 6337TIP3   OH219016   0.272   3.101   2.691
 6337TIP3    H119017   0.209   3.159   2.649
 6337TIP3    H219018   0.219   3.029   2.727
 6338TIP3   OH219019   0.160   2.450   0.765
 6338TIP3    H119020   0.143   2.538   0.731
 6338TIP3    H219021   0.255   2.446   0.775
 6339TIP3   OH219022   6.136   4.068   4.719
 6339TIP3    H119023   6.201   4.121   4.673
 6339TIP3    H219024   6.057   4.121   4.719
 6340TIP3   OH219025   4.768   5.659   2.604
 6340TIP3    H119026   4.702   5.600   2.640
 6340TIP3    H219027   4.839   5.657   2.668
 6341TIP3   OH219028   4.422   3.397   0.024
 6341TIP3    H119029   4.481   3.439  -0.039
 6341TIP3    H219030   4.337   3.438   0.008
 6342TIP3   OH219031   3.747   2.887   4.506
 6342TIP3    H119032   3.764   2.952   4.573
 6342TIP3    H219033   3.729   2.938   4.427
 6343TIP3   OH219034   0.132   5.723   0.330
 6343TIP3    H119035   0.071   5.759   0.394
 6343TIP3    H219036   0.093   5.639   0.305
 6344TIP3   OH219037   3.233   5.486   4.571
 6344TIP3    H119038   3.226   5.431   4.492
 6344TIP3    H219039   3.327   5.486   4.591
 6345TIP3   OH219040   4.458   4.145   1.175
 6345TIP3    H119041   4.474   4.219   1.233
 6345TIP3    H219042   4.374   4.163   1.134
 6346TIP3   OH219043   4.756   3.972   1.195
 6346TIP3    H119044   4.702   4.002   1.268
 6346TIP3    H219045   4.709   4.001   1.117
 6347TIP3   OH219046   2.961   1.977   1.296
 6347TIP3    H119047   2.898   1.953   1.228
 6347TIP3    H219048   2.934   2.064   1.324
 6348TIP3   OH219049   0.308   5.608   0.882
 6348TIP3    H119050   0.263   5.642   0.959
 6348TIP3    H219051   0.401   5.619   0.901
 6349TIP3   OH219052   6.125   2.390   4.831
 6349TIP3    H119053   6.197   2.376   4.769
 6349TIP3    H219054   6.153   2.465   4.883
 6350TIP3   OH219055   1.029   0.582   2.302
 6350TIP3    H119056   0.944   0.625   2.312
 6350TIP3    H219057   1.085   0.649   2.263
 6351TIP3   OH219058   2.874   0.123   2.789
 6351TIP3    H119059   2.837   0.069   2.719
 6351TIP3    H219060   2.809   0.193   2.802
 6352TIP3   OH219061   1.103   2.251   0.095
 6352TIP3    H119062   1.129   2.343   0.086
 6352TIP3    H219063   1.012   2.255   0.122
 6353TIP3   OH219064   0.806   3.076   2.767
 6353TIP3    H119065   0.816   2.986   2.798
 6353TIP3    H219066   0.882   3.092   2.711
 6354TIP3   OH219067   3.696   0.208   3.044
 6354TIP3    H119068   3.672   0.135   2.987
 6354TIP3    H219069   3.737   0.272   2.986
 6355TIP3   OH219070   3.126   3.192   1.675
 6355TIP3    H119071   3.220   3.207   1.663
 6355TIP3    H219072   3.088   3.205   1.588
 6356TIP3   OH219073   4.348   5.544   0.365
 6356TIP3    H119074   4.311   5.606   0.428
 6356TIP3    H219075   4.442   5.544   0.383
 6357TIP3   OH219076   5.274   5.708   4.454
 6357TIP3    H119077   5.239   5.619   4.447
 6357TIP3    H219078   5.261   5.746   4.367
 6358TIP3   OH219079   0.996   2.662   4.455
 6358TIP3    H119080   1.046   2.744   4.456
 6358TIP3    H219081   1.020   2.621   4.372
 6359TIP3   OH219082   3.387   5.781   0.019
 6359TIP3    H119083   3.429   5.866   0.032
 6359TIP3    H219084   3.456   5.723  -0.012
 6360TIP3   OH219085   5.700   4.792   1.701
 6360TIP3    H119086   5.712   4.761   1.611
 6360TIP3    H219087   5.610   4.824   1.703
 6361TIP3   OH219088   6.041   0.060   1.209
 6361TIP3    H119089   6.028  -0.033   1.225
 6361TIP3    H219090   6.072   0.095   1.293
 6362TIP3   OH219091   2.524   4.899   5.053
 6362TIP3    H119092   2.494   4.914   5.142
 6362TIP3    H219093   2.529   4.803   5.046
 6363TIP3   OH219094   4.482   4.939   2.698
 6363TIP3    H119095   4.478   4.938   2.603
 6363TIP3    H219096   4.541   4.867   2.721
 6364TIP3   OH219097   3.581   5.129   1.599
 6364TIP3    H119098   3.551   5.214   1.631
 6364TIP3    H219099   3.677   5.134   1.604
 6365TIP3   OH219100   3.634   4.240   2.873
 6365TIP3    H119101   3.586   4.241   2.790
 6365TIP3    H219102   3.690   4.163   2.867
 6366TIP3   OH219103   0.888   3.702   0.224
 6366TIP3    H119104   0.920   3.752   0.149
 6366TIP3    H219105   0.793   3.702   0.215
 6367TIP3   OH219106   4.714   0.110   1.463
 6367TIP3    H119107   4.692   0.200   1.437
 6367TIP3    H219108   4.650   0.087   1.529
 6368TIP3   OH219109   0.793   5.511   0.619
 6368TIP3    H119110   0.880   5.549   0.617
 6368TIP3    H219111   0.758   5.526   0.531
 6369TIP3   OH219112   2.241   5.882   4.634
 6369TIP3    H119113   2.200   5.811   4.585
 6369TIP3    H219114   2.225   5.960   4.580
 6370TIP3   OH219115   3.533   5.897   1.528
 6370TIP3    H119116   3.588   5.822   1.552
 6370TIP3    H219117   3.519   5.888   1.434
 6371TIP3   OH219118   3.606   3.630   0.345
 6371TIP3    H119119   3.526   3.621   0.395
 6371TIP3    H219120   3.644   3.542   0.343
 6372TIP3   OH219121   0.277   1.628   3.512
 6372TIP3    H119122   0.348   1.564   3.508
 6372TIP3    H219123   0.235   1.612   3.596
 6373TIP3   OH219124   0.306   5.115   3.919
 6373TIP3    H119125   0.387   5.066   3.939
 6373TIP3    H219126   0.283   5.086   3.831
 6374TIP3   OH219127   3.799   4.725   0.480
 6374TIP3    H119128   3.757   4.780   0.546
 6374TIP3    H219129   3.747   4.645   0.479
 6375TIP3   OH219130   5.026   0.132   0.096
 6375TIP3    H119131   4.991   0.206   0.048
 6375TIP3    H219132   5.118   0.154   0.111
 6376TIP3   OH219133   0.060   3.663   2.147
 6376TIP3    H119134   0.085   3.595   2.210
 6376TIP3    H219135   0.142   3.685   2.103
 6377TIP3   OH219136   0.131   2.189   2.030
 6377TIP3    H119137   0.125   2.165   2.123
 6377TIP3    H219138   0.059   2.251   2.017
 6378TIP3   OH219139   1.124   3.538   4.462
 6378TIP3    H119140   1.103   3.511   4.552
 6378TIP3    H219141   1.177   3.617   4.473
 6379TIP3   OH219142   5.982   0.768   0.595
 6379TIP3    H119143   6.071   0.751   0.566
 6379TIP3    H219144   5.946   0.682   0.617
 6380TIP3   OH219145   2.639   1.163   4.329
 6380TIP3    H119146   2.723   1.175   4.286
 6380TIP3    H219147   2.637   1.071   4.355
 6381TIP3   OH219148   0.729   5.085   3.291
 6381TIP3    H119149   0.641   5.070   3.257
 6381TIP3    H219150   0.724   5.171   3.333
 6382TIP3   OH219151   1.901   2.806   0.352
 6382TIP3    H119152   1.838   2.847   0.293
 6382TIP3    H219153   1.847   2.754   0.412
 6383TIP3   OH219154   3.268   0.236   5.093
 6383TIP3    H119155   3.223   0.274   5.168
 6383TIP3    H219156   3.287   0.311   5.036
 6384TIP3   OH219157   0.153   0.741   2.054
 6384TIP3    H119158   0.227   0.802   2.058
 6384TIP3    H219159   0.077   0.794   2.079
 6385TIP3   OH219160   5.039   2.104   3.285
 6385TIP3    H119161   5.076   2.155   3.357
 6385TIP3    H219162   4.981   2.041   3.327
 6386TIP3   OH219163   5.935   4.286   3.683
 6386TIP3    H119164   5.994   4.280   3.608
 6386TIP3    H219165   5.852   4.314   3.645
 6387TIP3   OH219166   3.335   2.203   1.475
 6387TIP3    H119167   3.327   2.173   1.565
 6387TIP3    H219168   3.302   2.130   1.422
 6388TIP3   OH219169   3.623   3.508   3.459
 6388TIP3    H119170   3.596   3.600   3.458
 6388TIP3    H219171   3.661   3.495   3.546
 6389TIP3   OH219172   5.263   5.430   1.433
 6389TIP3    H119173   5.333   5.495   1.433
 6389TIP3    H219174   5.190   5.474   1.478
 6390TIP3   OH219175   2.162   3.533   2.916
 6390TIP3    H119176   2.207   3.451   2.897
 6390TIP3    H219177   2.138   3.568   2.830
 6391TIP3   OH219178   2.791   1.394   0.126
 6391TIP3    H119179   2.781   1.487   0.148
 6391TIP3    H219180   2.855   1.393   0.055
 6392TIP3   OH219181   2.005   2.018   1.128
 6392TIP3    H119182   2.036   2.041   1.040
 6392TIP3    H219183   1.916   1.987   1.114
 6393TIP3   OH219184   5.018   0.494   0.494
 6393TIP3    H119185   4.944   0.481   0.553
 6393TIP3    H219186   5.067   0.567   0.534
 6394TIP3   OH219187   3.910   2.292   2.464
 6394TIP3    H119188   3.984   2.246   2.425
 6394TIP3    H219189   3.940   2.315   2.552
 6395TIP3   OH219190   1.590   5.830   3.179
 6395TIP3    H119191   1.508   5.876   3.161
 6395TIP3    H219192   1.610   5.785   3.097
 6396TIP3   OH219193   5.178   0.619   2.782
 6396TIP3    H119194   5.230   0.623   2.702
 6396TIP3    H219195   5.240   0.590   2.849
 6397TIP3   OH219196   4.340   2.235   4.681
 6397TIP3    H119197   4.247   2.213   4.679
 6397TIP3    H219198   4.342   2.327   4.708
 6398TIP3   OH219199   0.803   0.124   3.996
 6398TIP3    H119200   0.769   0.103   3.909
 6398TIP3    H219201   0.791   0.044   4.047
 6399TIP3   OH219202   1.346   1.160   0.760
 6399TIP3    H119203   1.442   1.165   0.761
 6399TIP3    H219204   1.317   1.250   0.746
 6400TIP3   OH219205   0.688   4.812   1.489
 6400TIP3    H119206   0.636   4.784   1.565
 6400TIP3    H219207   0.720   4.730   1.451
 6401TIP3   OH219208   0.519   0.686   4.670
 6401TIP3    H119209   0.487   0.745   4.738
 6401TIP3    H219210   0.602   0.724   4.643
 6402TIP3   OH219211   4.408   5.713   4.637
 6402TIP3    H119212   4.399   5.656   4.560
 6402TIP3    H219213   4.390   5.656   4.711
 6403TIP3   OH219214   1.145   4.101   2.997
 6403TIP3    H119215   1.193   4.174   2.958
 6403TIP3    H219216   1.059   4.103   2.954
 6404TIP3   OH219217   3.170   4.751   0.664
 6404TIP3    H119218   3.080   4.722   0.646
 6404TIP3    H219219   3.160   4.823   0.726
 6405TIP3   OH219220   3.934   3.098   3.243
 6405TIP3    H119221   3.894   3.130   3.323
 6405TIP3    H219222   3.862   3.058   3.194
 6406TIP3   OH219223   1.643   2.901   3.511
 6406TIP3    H119224   1.561   2.887   3.464
 6406TIP3    H219225   1.672   2.988   3.484
 6407TIP3   OH219226   4.273   3.555   4.643
 6407TIP3    H119227   4.329   3.517   4.576
 6407TIP3    H219228   4.185   3.552   4.605
 6408TIP3   OH219229   3.856   2.816   0.735
 6408TIP3    H119230   3.795   2.752   0.773
 6408TIP3    H219231   3.872   2.879   0.805
 6409TIP3   OH219232   2.476   0.050   3.853
 6409TIP3    H119233   2.381   0.064   3.856
 6409TIP3    H219234   2.513   0.136   3.834
 6410TIP3   OH219235   5.084   5.747   3.310
 6410TIP3    H119236   5.001   5.736   3.355
 6410TIP3    H219237   5.150   5.737   3.378
 6411TIP3   OH219238   3.352   0.445   3.904
 6411TIP3    H119239   3.393   0.521   3.945
 6411TIP3    H219240   3.341   0.471   3.812
 6412TIP3   OH219241   4.112   2.536   4.637
 6412TIP3    H119242   4.149   2.554   4.551
 6412TIP3    H219243   4.187   2.528   4.695
 6413TIP3   OH219244   5.355   1.931   1.131
 6413TIP3    H119245   5.369   1.920   1.225
 6413TIP3    H219246   5.420   1.874   1.090
 6414TIP3   OH219247   1.091   1.899   0.556
 6414TIP3    H119248   1.151   1.846   0.608
 6414TIP3    H219249   1.132   1.904   0.470
 6415TIP3   OH219250   2.162   2.375   4.186
 6415TIP3    H119251   2.232   2.372   4.251
 6415TIP3    H219252   2.106   2.447   4.214
 6416TIP3   OH219253   0.433   2.558   2.192
 6416TIP3    H119254   0.396   2.553   2.280
 6416TIP3    H219255   0.528   2.560   2.207
 6417TIP3   OH219256   1.027   0.724   2.697
 6417TIP3    H119257   0.965   0.744   2.627
 6417TIP3    H219258   1.038   0.629   2.694
 6418TIP3   OH219259   4.546   4.002   1.487
 6418TIP3    H119260   4.570   4.093   1.503
 6418TIP3    H219261   4.533   3.965   1.574
 6419TIP3   OH219262   1.905   5.293   0.882
 6419TIP3    H119263   1.817   5.328   0.891
 6419TIP3    H219264   1.913   5.229   0.953
 6420TIP3   OH219265   4.046   0.064   1.955
 6420TIP3    H119266   4.066   0.035   1.866
 6420TIP3    H219267   3.992   0.142   1.944
 6421TIP3   OH219268   0.923   3.037   3.726
 6421TIP3    H119269   0.935   3.076   3.639
 6421TIP3    H219270   0.830   3.051   3.745
 6422TIP3   OH219271   4.536   2.789   3.179
 6422TIP3    H119272   4.445   2.790   3.206
 6422TIP3    H219273   4.573   2.711   3.220
 6423TIP3   OH219274   4.149   2.732   2.137
 6423TIP3    H119275   4.058   2.702   2.133
 6423TIP3    H219276   4.157   2.794   2.064
 6424TIP3   OH219277   0.347   2.517   2.441
 6424TIP3    H119278   0.287   2.461   2.491
 6424TIP3    H219279   0.343   2.602   2.485
 6425TIP3   OH219280   5.253   2.325   4.840
 6425TIP3    H119281   5.200   2.404   4.849
 6425TIP3    H219282   5.291   2.312   4.927
 6426TIP3   OH219283   0.635   4.141   2.576
 6426TIP3    H119284   0.639   4.214   2.637
 6426TIP3    H219285   0.695   4.166   2.505
 6427TIP3   OH219286   2.376   2.191   0.388
 6427TIP3    H119287   2.303   2.206   0.327
 6427TIP3    H219288   2.438   2.262   0.370
 6428TIP3   OH219289   1.275   4.311   3.923
 6428TIP3    H119290   1.317   4.374   3.865
 6428TIP3    H219291   1.235   4.365   3.991
 6429TIP3   OH219292   1.710   2.428   2.248
 6429TIP3    H119293   1.680   2.353   2.196
 6429TIP3    H219294   1.806   2.423   2.245
 6430TIP3   OH219295   0.215   3.767   0.097
 6430TIP3    H119296   0.242   3.852   0.065
 6430TIP3    H219297   0.119   3.772   0.104
 6431TIP3   OH219298   3.059   0.192   0.275
 6431TIP3    H119299   3.042   0.107   0.316
 6431TIP3    H219300   3.015   0.187   0.190
 6432TIP3   OH219301   2.423   4.583   1.411
 6432TIP3    H119302   2.387   4.525   1.344
 6432TIP3    H219303   2.375   4.560   1.491
 6433TIP3   OH219304   5.508   1.058   3.945
 6433TIP3    H119305   5.521   1.141   3.990
 6433TIP3    H219306   5.537   0.992   4.008
 6434TIP3   OH219307   5.414   3.300   1.433
 6434TIP3    H119308   5.399   3.210   1.406
 6434TIP3    H219309   5.499   3.323   1.395
 6435TIP3   OH219310   4.859   1.114   1.211
 6435TIP3    H119311   4.896   1.051   1.148
 6435TIP3    H219312   4.814   1.059   1.275
 6436TIP3   OH219313   2.203   0.248   2.323
 6436TIP3    H119314   2.297   0.259   2.311
 6436TIP3    H219315   2.169   0.337   2.334
 6437TIP3   OH219316   5.974   4.740   2.631
 6437TIP3    H119317   6.038   4.670   2.617
 6437TIP3    H219318   5.992   4.803   2.562
 6438TIP3   OH219319   1.170   0.841   0.930
 6438TIP3    H119320   1.193   0.749   0.936
 6438TIP3    H219321   1.245   0.881   0.885
 6439TIP3   OH219322   5.315   4.740   3.318
 6439TIP3    H119323   5.403   4.701   3.317
 6439TIP3    H219324   5.328   4.830   3.288
 6440TIP3   OH219325   4.297   1.861   2.255
 6440TIP3    H119326   4.295   1.869   2.350
 6440TIP3    H219327   4.303   1.767   2.238
 6441TIP3   OH219328   4.094   4.759   4.888
 6441TIP3    H119329   4.039   4.691   4.925
 6441TIP3    H219330   4.127   4.722   4.806
 6442TIP3   OH219331   1.782   5.934   1.011
 6442TIP3    H119332   1.842   5.995   1.053
 6442TIP3    H219333   1.805   5.937   0.918
 6443TIP3   OH219334   2.846   3.116   1.283
 6443TIP3    H119335   2.769   3.144   1.234
 6443TIP3    H219336   2.882   3.197   1.319
 6444TIP3   OH219337   3.649   5.096   2.989
 6444TIP3    H119338   3.726   5.094   3.047
 6444TIP3    H219339   3.679   5.055   2.908
 6445TIP3   OH219340   3.343   5.217   5.002
 6445TIP3    H119341   3.308   5.133   5.031
 6445TIP3    H219342   3.345   5.271   5.082
 6446TIP3   OH219343   2.308   3.855   2.083
 6446TIP3    H119344   2.381   3.917   2.080
 6446TIP3    H219345   2.240   3.902   2.130
 6447TIP3   OH219346   1.713   0.922   1.778
 6447TIP3    H119347   1.787   0.921   1.839
 6447TIP3    H219348   1.709   1.013   1.747
 6448TIP3   OH219349   4.788   1.242   2.577
 6448TIP3    H119350   4.776   1.239   2.672
 6448TIP3    H219351   4.798   1.335   2.557
 6449TIP3   OH219352   6.226   4.240   2.842
 6449TIP3    H119353   6.296   4.266   2.782
 6449TIP3    H219354   6.238   4.297   2.919
 6450TIP3   OH219355   3.853   1.009   1.287
 6450TIP3    H119356   3.759   1.007   1.269
 6450TIP3    H219357   3.869   0.928   1.335
 6451TIP3   OH219358   3.260   4.363   3.290
 6451TIP3    H119359   3.315   4.356   3.213
 6451TIP3    H219360   3.250   4.457   3.306
 6452TIP3   OH219361   2.531   3.077   4.468
 6452TIP3    H119362   2.461   3.078   4.403
 6452TIP3    H219363   2.487   3.094   4.551
 6453TIP3   OH219364   5.087   1.120   1.436
 6453TIP3    H119365   5.144   1.085   1.503
 6453TIP3    H219366   5.014   1.159   1.484
 6454TIP3   OH219367   0.275   1.488   3.985
 6454TIP3    H119368   0.306   1.531   4.064
 6454TIP3    H219369   0.184   1.464   4.005
 6455TIP3   OH219370   6.244   3.662   1.461
 6455TIP3    H119371   6.155   3.697   1.449
 6455TIP3    H219372   6.260   3.671   1.554
 6456TIP3   OH219373   4.795   2.451   5.063
 6456TIP3    H119374   4.735   2.494   5.002
 6456TIP3    H219375   4.747   2.376   5.097
 6457TIP3   OH219376   5.947   1.746   3.436
 6457TIP3    H119377   6.039   1.771   3.448
 6457TIP3    H219378   5.935   1.670   3.493
 6458TIP3   OH219379   3.017   0.282   0.532
 6458TIP3    H119380   2.947   0.346   0.528
 6458TIP3    H219381   3.036   0.261   0.440
 6459TIP3   OH219382   1.526   0.633   4.856
 6459TIP3    H119383   1.472   0.639   4.777
 6459TIP3    H219384   1.560   0.543   4.854
 6460TIP3   OH219385   3.929   0.588   2.460
 6460TIP3    H119386   3.859   0.597   2.395
 6460TIP3    H219387   3.930   0.495   2.481
 6461TIP3   OH219388   1.494   3.350   3.486
 6461TIP3    H119389   1.460   3.403   3.558
 6461TIP3    H219390   1.421   3.343   3.425
 6462TIP3   OH219391   0.746   0.849   2.667
 6462TIP3    H119392   0.777   0.797   2.592
 6462TIP3    H219393   0.726   0.934   2.629
 6463TIP3   OH219394   6.074   4.529   3.530
 6463TIP3    H119395   6.022   4.560   3.604
 6463TIP3    H219396   6.165   4.534   3.560
 6464TIP3   OH219397   2.983   0.775   3.739
 6464TIP3    H119398   3.004   0.760   3.647
 6464TIP3    H219399   2.925   0.851   3.739
 6465TIP3   OH219400   1.645   1.378   2.790
 6465TIP3    H119401   1.629   1.467   2.761
 6465TIP3    H219402   1.595   1.323   2.729
 6466TIP3   OH219403   0.512   4.068   3.233
 6466TIP3    H119404   0.438   4.008   3.221
 6466TIP3    H219405   0.586   4.011   3.254
 6467TIP3   OH219406   0.741   4.431   0.872
 6467TIP3    H119407   0.694   4.488   0.811
 6467TIP3    H219408   0.754   4.350   0.824
 6468TIP3   OH219409   4.250   1.301   0.177
 6468TIP3    H119410   4.301   1.369   0.133
 6468TIP3    H219411   4.183   1.277   0.113
 6469TIP3   OH219412   2.321   2.759   2.822
 6469TIP3    H119413   2.406   2.714   2.823
 6469TIP3    H219414   2.309   2.785   2.731
 6470TIP3   OH219415   1.942   4.545   3.499
 6470TIP3    H119416   1.894   4.550   3.417
 6470TIP3    H219417   2.008   4.477   3.485
 6471TIP3   OH219418   3.777   4.521   1.490
 6471TIP3    H119419   3.763   4.549   1.581
 6471TIP3    H219420   3.713   4.570   1.439
 6472TIP3   OH219421   5.059   3.564   4.776
 6472TIP3    H119422   5.106   3.530   4.700
 6472TIP3    H219423   4.983   3.507   4.785
 6473TIP3   OH219424   5.385   1.709   0.404
 6473TIP3    H119425   5.378   1.759   0.323
 6473TIP3    H219426   5.403   1.775   0.472
 6474TIP3   OH219427   4.409   5.898   2.574
 6474TIP3    H119428   4.430   5.809   2.544
 6474TIP3    H219429   4.452   5.906   2.659
 6475TIP3   OH219430   1.604   1.206   3.832
 6475TIP3    H119431   1.552   1.128   3.849
 6475TIP3    H219432   1.560   1.275   3.882
 6476TIP3   OH219433   5.372   2.002   2.696
 6476TIP3    H119434   5.385   2.082   2.746
 6476TIP3    H219435   5.403   1.932   2.753
 6477TIP3   OH219436   0.018   4.834   3.043
 6477TIP3    H119437  -0.058   4.890   3.029
 6477TIP3    H219438   0.016   4.772   2.970
 6478TIP3   OH219439   1.325   3.652   1.382
 6478TIP3    H119440   1.321   3.727   1.441
 6478TIP3    H219441   1.406   3.607   1.406
 6479TIP3   OH219442   1.044   3.897   1.358
 6479TIP3    H119443   1.007   3.891   1.269
 6479TIP3    H219444   0.977   3.855   1.413
 6480TIP3   OH219445   3.906   3.277   2.442
 6480TIP3    H119446   3.968   3.207   2.465
 6480TIP3    H219447   3.870   3.306   2.525
 6481TIP3   OH219448   2.298   4.779   3.730
 6481TIP3    H119449   2.350   4.849   3.690
 6481TIP3    H219450   2.225   4.766   3.670
 6482TIP3   OH219451   0.981   4.463   3.741
 6482TIP3    H119452   0.904   4.407   3.730
 6482TIP3    H219453   1.055   4.406   3.722
 6483TIP3   OH219454   4.476   1.312   3.257
 6483TIP3    H119455   4.540   1.382   3.266
 6483TIP3    H219456   4.411   1.330   3.326
 6484TIP3   OH219457   3.992   0.741   0.394
 6484TIP3    H119458   4.065   0.682   0.408
 6484TIP3    H219459   3.993   0.758   0.299
 6485TIP3   OH219460   2.811   0.942   4.728
 6485TIP3    H119461   2.756   0.974   4.799
 6485TIP3    H219462   2.749   0.918   4.659
 6486TIP3   OH219463   4.103   1.034   0.481
 6486TIP3    H119464   4.169   1.004   0.543
 6486TIP3    H219465   4.123   1.126   0.467
 6487TIP3   OH219466   4.588   1.871   3.188
 6487TIP3    H119467   4.492   1.863   3.184
 6487TIP3    H219468   4.611   1.919   3.109
 6488TIP3   OH219469   4.164   4.846   0.130
 6488TIP3    H119470   4.073   4.821   0.147
 6488TIP3    H219471   4.159   4.905   0.055
 6489TIP3   OH219472   5.084   1.964   2.783
 6489TIP3    H119473   5.060   2.054   2.758
 6489TIP3    H219474   5.176   1.956   2.758
 6490TIP3   OH219475   3.064   4.172   2.604
 6490TIP3    H119476   3.052   4.238   2.672
 6490TIP3    H219477   3.123   4.107   2.643
 6491TIP3   OH219478   5.052   0.973   4.536
 6491TIP3    H119479   5.009   1.019   4.464
 6491TIP3    H219480   5.041   0.880   4.514
 6492TIP3   OH219481   2.985   3.377   4.986
 6492TIP3    H119482   2.907   3.424   4.956
 6492TIP3    H219483   2.960   3.342   5.072
 6493TIP3   OH219484   2.330   5.743   0.928
 6493TIP3    H119485   2.305   5.656   0.897
 6493TIP3    H219486   2.422   5.734   0.951
 6494TIP3   OH219487   5.204   5.382   2.215
 6494TIP3    H119488   5.204   5.477   2.220
 6494TIP3    H219489   5.282   5.360   2.164
 6495TIP3   OH219490   5.811   1.806   0.306
 6495TIP3    H119491   5.815   1.779   0.398
 6495TIP3    H219492   5.737   1.866   0.303
 6496TIP3   OH219493   2.815   4.010   1.448
 6496TIP3    H119494   2.814   3.919   1.478
 6496TIP3    H219495   2.770   4.008   1.364
 6497TIP3   OH219496   0.615   2.227   3.173
 6497TIP3    H119497   0.707   2.228   3.149
 6497TIP3    H219498   0.615   2.206   3.267
 6498TIP3   OH219499   3.955   5.320   2.614
 6498TIP3    H119500   3.892   5.323   2.542
 6498TIP3    H219501   4.035   5.285   2.574
 6499TIP3   OH219502   1.499   1.757   1.022
 6499TIP3    H119503   1.566   1.700   0.982
 6499TIP3    H219504   1.469   1.708   1.098
 6500TIP3   OH219505   5.487   2.385   4.288
 6500TIP3    H119506   5.582   2.386   4.295
 6500TIP3    H219507   5.464   2.293   4.276
 6501TIP3   OH219508   3.733   5.122   3.737
 6501TIP3    H119509   3.768   5.116   3.649
 6501TIP3    H219510   3.646   5.161   3.726
 6502TIP3   OH219511   1.477   3.746   5.052
 6502TIP3    H119512   1.455   3.755   4.959
 6502TIP3    H219513   1.567   3.778   5.058
 6503TIP3   OH219514   1.244   2.103   2.503
 6503TIP3    H119515   1.315   2.098   2.566
 6503TIP3    H219516   1.281   2.068   2.421
 6504TIP3   OH219517   1.643   5.333   1.744
 6504TIP3    H119518   1.735   5.308   1.746
 6504TIP3    H219519   1.633   5.381   1.661
 6505TIP3   OH219520   6.243   2.077   1.860
 6505TIP3    H119521   6.324   2.113   1.824
 6505TIP3    H219522   6.213   2.144   1.922
 6506TIP3   OH219523   3.425   0.691   4.044
 6506TIP3    H119524   3.492   0.741   4.090
 6506TIP3    H219525   3.345   0.742   4.054
 6507TIP3   OH219526   1.039   0.000   3.606
 6507TIP3    H119527   0.996  -0.085   3.605
 6507TIP3    H219528   0.970   0.062   3.632
 6508TIP3   OH219529   2.948   2.910   3.994
 6508TIP3    H119530   2.870   2.940   4.041
 6508TIP3    H219531   3.001   2.867   4.061
 6509TIP3   OH219532   0.993   1.823   4.253
 6509TIP3    H119533   0.975   1.729   4.260
 6509TIP3    H219534   1.084   1.832   4.279
 6510TIP3   OH219535   6.084   3.788   5.027
 6510TIP3    H119536   6.132   3.750   4.953
 6510TIP3    H219537   6.146   3.850   5.066
 6511TIP3   OH219538   2.166   3.537   3.203
 6511TIP3    H119539   2.149   3.517   3.111
 6511TIP3    H219540   2.086   3.580   3.234
 6512TIP3   OH219541   1.022   3.318   0.528
 6512TIP3    H119542   0.958   3.373   0.483
 6512TIP3    H219543   1.007   3.230   0.492
 6513TIP3   OH219544   4.260   4.930   2.144
 6513TIP3    H119545   4.322   4.885   2.200
 6513TIP3    H219546   4.302   5.014   2.123
 6514TIP3   OH219547   0.464   2.465   3.939
 6514TIP3    H119548   0.558   2.456   3.924
 6514TIP3    H219549   0.455   2.549   3.985
 6515TIP3   OH219550   3.384   3.525   1.605
 6515TIP3    H119551   3.445   3.598   1.612
 6515TIP3    H219552   3.439   3.447   1.615
 6516TIP3   OH219553   3.474   4.307   3.123
 6516TIP3    H119554   3.471   4.262   3.039
 6516TIP3    H219555   3.511   4.243   3.184
 6517TIP3   OH219556   3.262   4.769   1.865
 6517TIP3    H119557   3.281   4.862   1.854
 6517TIP3    H219558   3.169   4.766   1.886
 6518TIP3   OH219559   5.612   0.462   0.824
 6518TIP3    H119560   5.667   0.452   0.901
 6518TIP3    H219561   5.667   0.506   0.760
 6519TIP3   OH219562   0.071   3.515   0.953
 6519TIP3    H119563   0.012   3.447   0.985
 6519TIP3    H219564   0.051   3.522   0.860
 6520TIP3   OH219565   4.207   2.816   4.241
 6520TIP3    H119566   4.122   2.835   4.280
 6520TIP3    H219567   4.266   2.882   4.276
 6521TIP3   OH219568   3.889   1.691   1.884
 6521TIP3    H119569   3.830   1.674   1.811
 6521TIP3    H219570   3.901   1.786   1.884
 6522TIP3   OH219571   5.421   5.028   4.718
 6522TIP3    H119572   5.411   5.121   4.739
 6522TIP3    H219573   5.349   4.985   4.765
 6523TIP3   OH219574   6.270   0.760   3.435
 6523TIP3    H119575   6.364   0.765   3.421
 6523TIP3    H219576   6.232   0.781   3.349
 6524TIP3   OH219577   2.903   1.114   2.215
 6524TIP3    H119578   2.935   1.194   2.257
 6524TIP3    H219579   2.975   1.052   2.225
 6525TIP3   OH219580   2.128   5.511   0.581
 6525TIP3    H119581   2.209   5.547   0.545
 6525TIP3    H219582   2.102   5.444   0.518
 6526TIP3   OH219583   4.823   0.193   2.836
 6526TIP3    H119584   4.799   0.228   2.921
 6526TIP3    H219585   4.904   0.238   2.813
 6527TIP3   OH219586   2.036   3.700   4.772
 6527TIP3    H119587   1.946   3.683   4.799
 6527TIP3    H219588   2.072   3.614   4.752
 6528TIP3   OH219589   5.835   0.405   4.729
 6528TIP3    H119590   5.840   0.496   4.758
 6528TIP3    H219591   5.824   0.354   4.809
 6529TIP3   OH219592   5.311   1.421   0.970
 6529TIP3    H119593   5.290   1.492   1.030
 6529TIP3    H219594   5.297   1.341   1.022
 6530TIP3   OH219595   1.269   2.868   4.373
 6530TIP3    H119596   1.270   2.817   4.292
 6530TIP3    H219597   1.212   2.942   4.354
 6531TIP3   OH219598   4.444   0.937   3.730
 6531TIP3    H119599   4.418   1.001   3.665
 6531TIP3    H219600   4.497   0.986   3.793
 6532TIP3   OH219601   5.191   0.324   4.612
 6532TIP3    H119602   5.191   0.243   4.661
 6532TIP3    H219603   5.099   0.339   4.588
 6533TIP3   OH219604   0.221   5.793   1.620
 6533TIP3    H119605   0.269   5.744   1.554
 6533TIP3    H219606   0.282   5.862   1.648
 6534TIP3   OH219607   0.433   2.084   1.221
 6534TIP3    H119608   0.517   2.089   1.267
 6534TIP3    H219609   0.392   2.169   1.239
 6535TIP3   OH219610   0.524   0.608   4.352
 6535TIP3    H119611   0.501   0.581   4.264
 6535TIP3    H219612   0.449   0.583   4.406
 6536TIP3   OH219613   0.476   4.936   4.555
 6536TIP3    H119614   0.419   5.013   4.548
 6536TIP3    H219615   0.451   4.896   4.639
 6537TIP3   OH219616   0.660   2.172   2.815
 6537TIP3    H119617   0.594   2.236   2.840
 6537TIP3    H219618   0.646   2.158   2.721
 6538TIP3   OH219619   0.802   3.029   0.254
 6538TIP3    H119620   0.709   3.049   0.267
 6538TIP3    H219621   0.802   2.953   0.196
 6539TIP3   OH219622   2.558   3.773   1.219
 6539TIP3    H119623   2.587   3.686   1.189
 6539TIP3    H219624   2.632   3.831   1.200
 6540TIP3   OH219625   5.697   1.518   0.654
 6540TIP3    H119626   5.626   1.467   0.691
 6540TIP3    H219627   5.774   1.493   0.705
 6541TIP3   OH219628   4.138   3.679   3.816
 6541TIP3    H119629   4.217   3.699   3.865
 6541TIP3    H219630   4.131   3.749   3.752
 6542TIP3   OH219631   0.956   5.441   3.539
 6542TIP3    H119632   0.990   5.468   3.624
 6542TIP3    H219633   0.937   5.523   3.493
 6543TIP3   OH219634   5.124   3.125   0.801
 6543TIP3    H119635   5.113   3.163   0.714
 6543TIP3    H219636   5.198   3.171   0.839
 6544TIP3   OH219637   0.946   1.659   2.076
 6544TIP3    H119638   0.954   1.567   2.053
 6544TIP3    H219639   0.885   1.695   2.012
 6545TIP3   OH219640   4.200   3.802   2.171
 6545TIP3    H119641   4.218   3.872   2.109
 6545TIP3    H219642   4.108   3.779   2.156
 6546TIP3   OH219643   5.200   3.778   3.304
 6546TIP3    H119644   5.180   3.825   3.385
 6546TIP3    H219645   5.130   3.713   3.297
 6547TIP3   OH219646   5.502   2.336   0.543
 6547TIP3    H119647   5.579   2.337   0.600
 6547TIP3    H219648   5.501   2.422   0.502
 6548TIP3   OH219649   2.188   1.485   0.067
 6548TIP3    H119650   2.191   1.492   0.163
 6548TIP3    H219651   2.166   1.393   0.051
 6549TIP3   OH219652   5.504   0.616   1.842
 6549TIP3    H119653   5.593   0.579   1.843
 6549TIP3    H219654   5.450   0.548   1.803
 6550TIP3   OH219655   1.871   3.024   1.678
 6550TIP3    H119656   1.811   2.961   1.639
 6550TIP3    H219657   1.956   2.980   1.678
 6551TIP3   OH219658   1.876   3.675   2.983
 6551TIP3    H119659   1.919   3.658   2.899
 6551TIP3    H219660   1.816   3.601   2.994
 6552TIP3   OH219661   4.499   5.584   1.143
 6552TIP3    H119662   4.456   5.528   1.208
 6552TIP3    H219663   4.432   5.649   1.120
 6553TIP3   OH219664   4.308   1.281   1.126
 6553TIP3    H119665   4.226   1.232   1.118
 6553TIP3    H219666   4.376   1.214   1.121
 6554TIP3   OH219667   5.700   5.318   0.721
 6554TIP3    H119668   5.722   5.354   0.635
 6554TIP3    H219669   5.730   5.228   0.719
 6555TIP3   OH219670   2.911   4.749   2.206
 6555TIP3    H119671   3.002   4.776   2.196
 6555TIP3    H219672   2.865   4.828   2.235
 6556TIP3   OH219673   3.437   2.266   2.739
 6556TIP3    H119674   3.449   2.250   2.833
 6556TIP3    H219675   3.348   2.236   2.721
 6557TIP3   OH219676   5.900   2.727   2.098
 6557TIP3    H119677   5.893   2.794   2.166
 6557TIP3    H219678   5.929   2.648   2.145
 6558TIP3   OH219679   4.654   5.733   4.111
 6558TIP3    H119680   4.717   5.729   4.039
 6558TIP3    H219681   4.657   5.645   4.150
 6559TIP3   OH219682   0.442   0.446   2.589
 6559TIP3    H119683   0.389   0.369   2.568
 6559TIP3    H219684   0.391   0.494   2.654
 6560TIP3   OH219685   6.072   1.111   2.984
 6560TIP3    H119686   6.028   1.027   2.978
 6560TIP3    H219687   6.091   1.136   2.894
 6561TIP3   OH219688   5.005   3.663   0.207
 6561TIP3    H119689   4.993   3.751   0.170
 6561TIP3    H219690   5.093   3.637   0.181
 6562TIP3   OH219691   6.255   5.482   0.237
 6562TIP3    H119692   6.336   5.433   0.222
 6562TIP3    H219693   6.185   5.420   0.220
 6563TIP3   OH219694   0.118   4.323   4.326
 6563TIP3    H119695   0.124   4.404   4.376
 6563TIP3    H219696   0.199   4.277   4.346
 6564TIP3   OH219697   0.884   5.606   4.289
 6564TIP3    H119698   0.820   5.539   4.313
 6564TIP3    H219699   0.843   5.655   4.218
 6565TIP3   OH219700   5.202   2.304   2.729
 6565TIP3    H119701   5.253   2.317   2.808
 6565TIP3    H219702   5.258   2.337   2.658
 6566TIP3   OH219703   5.617   4.913   4.293
 6566TIP3    H119704   5.654   4.957   4.216
 6566TIP3    H219705   5.541   4.965   4.318
 6567TIP3   OH219706   3.692   0.364   3.892
 6567TIP3    H119707   3.627   0.375   3.961
 6567TIP3    H219708   3.746   0.443   3.896
 6568TIP3   OH219709   0.296   0.498   2.269
 6568TIP3    H119710   0.242   0.572   2.242
 6568TIP3    H219711   0.240   0.447   2.327
 6569TIP3   OH219712   3.332   4.315   4.974
 6569TIP3    H119713   3.369   4.395   5.010
 6569TIP3    H219714   3.364   4.313   4.883
 6570TIP3   OH219715   3.011   0.355   2.323
 6570TIP3    H119716   3.022   0.341   2.417
 6570TIP3    H219717   3.098   0.339   2.286
 6571TIP3   OH219718   2.692   3.902   0.506
 6571TIP3    H119719   2.695   3.819   0.459
 6571TIP3    H219720   2.736   3.964   0.449
 6572TIP3   OH219721   0.458   2.408   2.915
 6572TIP3    H119722   0.366   2.430   2.927
 6572TIP3    H219723   0.501   2.442   2.994
 6573TIP3   OH219724   5.192   1.150   3.818
 6573TIP3    H119725   5.225   1.119   3.902
 6573TIP3    H219726   5.113   1.199   3.839
 6574TIP3   OH219727   2.223   2.977   2.951
 6574TIP3    H119728   2.269   2.898   2.922
 6574TIP3    H219729   2.211   3.028   2.871
 6575TIP3   OH219730   2.552   2.530   4.024
 6575TIP3    H119731   2.533   2.619   4.055
 6575TIP3    H219732   2.466   2.488   4.018
 6576TIP3   OH219733   3.793   1.026   0.886
 6576TIP3    H119734   3.728   1.053   0.821
 6576TIP3    H219735   3.781   1.087   0.958
 6577TIP3   OH219736   0.206   4.539   0.984
 6577TIP3    H119737   0.234   4.631   0.982
 6577TIP3    H219738   0.112   4.542   0.968
 6578TIP3   OH219739   0.766   4.409   0.399
 6578TIP3    H119740   0.759   4.368   0.313
 6578TIP3    H219741   0.713   4.354   0.457
 6579TIP3   OH219742   5.971   2.617   5.081
 6579TIP3    H119743   6.046   2.671   5.056
 6579TIP3    H219744   5.949   2.646   5.170
 6580TIP3   OH219745   2.730   0.695   0.760
 6580TIP3    H119746   2.665   0.717   0.694
 6580TIP3    H219747   2.812   0.688   0.712
 6581TIP3   OH219748   6.013   4.547   1.134
 6581TIP3    H119749   5.991   4.603   1.208
 6581TIP3    H219750   5.936   4.548   1.078
 6582TIP3   OH219751   0.759   3.320   4.874
 6582TIP3    H119752   0.745   3.240   4.822
 6582TIP3    H219753   0.701   3.311   4.949
 6583TIP3   OH219754   0.837   0.892   3.577
 6583TIP3    H119755   0.905   0.952   3.546
 6583TIP3    H219756   0.755   0.938   3.560
 6584TIP3   OH219757   6.157   2.477   3.582
 6584TIP3    H119758   6.171   2.527   3.501
 6584TIP3    H219759   6.161   2.385   3.554
 6585TIP3   OH219760   4.305   5.068   3.649
 6585TIP3    H119761   4.267   4.992   3.605
 6585TIP3    H219762   4.262   5.071   3.734
 6586TIP3   OH219763   4.551   4.970   4.046
 6586TIP3    H119764   4.506   5.037   3.993
 6586TIP3    H219765   4.483   4.906   4.066
 6587TIP3   OH219766   0.679   2.262   4.617
 6587TIP3    H119767   0.618   2.198   4.653
 6587TIP3    H219768   0.753   2.261   4.677
 6588TIP3   OH219769   1.902   5.846   5.090
 6588TIP3    H119770   1.986   5.888   5.070
 6588TIP3    H219771   1.894   5.776   5.025
 6589TIP3   OH219772   3.229   5.959   1.004
 6589TIP3    H119773   3.180   5.905   0.943
 6589TIP3    H219774   3.259   6.034   0.952
 6590TIP3   OH219775   5.957   2.869   2.948
 6590TIP3    H119776   5.887   2.827   2.898
 6590TIP3    H219777   6.003   2.797   2.990
 6591TIP3   OH219778   1.810   3.032   4.620
 6591TIP3    H119779   1.779   3.100   4.560
 6591TIP3    H219780   1.740   3.023   4.684
 6592TIP3   OH219781   4.158   0.209   4.057
 6592TIP3    H119782   4.174   0.172   3.970
 6592TIP3    H219783   4.095   0.279   4.042
 6593TIP3   OH219784   0.077   0.472   2.032
 6593TIP3    H119785   0.092   0.437   1.944
 6593TIP3    H219786   0.118   0.558   2.031
 6594TIP3   OH219787   4.167   0.739   2.442
 6594TIP3    H119788   4.146   0.830   2.424
 6594TIP3    H219789   4.083   0.696   2.453
 6595TIP3   OH219790   2.856   1.533   3.669
 6595TIP3    H119791   2.889   1.465   3.610
 6595TIP3    H219792   2.896   1.513   3.754
 6596TIP3   OH219793   0.819   0.879   4.137
 6596TIP3    H119794   0.914   0.870   4.142
 6596TIP3    H219795   0.800   0.889   4.043
 6597TIP3   OH219796   4.924   1.381   1.237
 6597TIP3    H119797   4.907   1.291   1.208
 6597TIP3    H219798   5.018   1.393   1.223
 6598TIP3   OH219799   1.772   1.949   4.606
 6598TIP3    H119800   1.759   2.043   4.616
 6598TIP3    H219801   1.849   1.942   4.551
 6599TIP3   OH219802   2.766   3.520   3.925
 6599TIP3    H119803   2.861   3.505   3.925
 6599TIP3    H219804   2.748   3.563   3.842
 6600TIP3   OH219805   4.140   2.466   0.429
 6600TIP3    H119806   4.180   2.407   0.493
 6600TIP3    H219807   4.081   2.520   0.481
 6601TIP3   OH219808   3.614   3.507   4.130
 6601TIP3    H119809   3.689   3.566   4.133
 6601TIP3    H219810   3.543   3.557   4.170
 6602TIP3   OH219811   5.490   2.351   4.017
 6602TIP3    H119812   5.469   2.378   4.107
 6602TIP3    H219813   5.418   2.294   3.991
 6603TIP3   OH219814   4.525   1.003   5.141
 6603TIP3    H119815   4.521   1.032   5.050
 6603TIP3    H219816   4.473   1.067   5.189
 6604TIP3   OH219817   3.415   3.564   0.539
 6604TIP3    H119818   3.338   3.618   0.523
 6604TIP3    H219819   3.384   3.493   0.596
 6605TIP3   OH219820   3.443   0.885   2.760
 6605TIP3    H119821   3.494   0.896   2.840
 6605TIP3    H219822   3.500   0.833   2.703
 6606TIP3   OH219823   2.618   2.110   4.563
 6606TIP3    H119824   2.699   2.106   4.512
 6606TIP3    H219825   2.638   2.170   4.635
 6607TIP3   OH219826   0.953   1.559   1.033
 6607TIP3    H119827   0.904   1.479   1.053
 6607TIP3    H219828   0.960   1.558   0.937
 6608TIP3   OH219829   4.931   3.547   2.621
 6608TIP3    H119830   5.013   3.590   2.646
 6608TIP3    H219831   4.886   3.531   2.703
 6609TIP3   OH219832   1.237   0.385   4.143
 6609TIP3    H119833   1.179   0.452   4.178
 6609TIP3    H219834   1.325   0.412   4.171
 6610TIP3   OH219835   5.280   4.154   3.335
 6610TIP3    H119836   5.279   4.134   3.241
 6610TIP3    H219837   5.247   4.243   3.341
 6611TIP3   OH219838   1.609   1.081   3.558
 6611TIP3    H119839   1.566   1.112   3.638
 6611TIP3    H219840   1.671   1.015   3.589
 6612TIP3   OH219841   5.323   1.070   2.258
 6612TIP3    H119842   5.306   1.153   2.303
 6612TIP3    H219843   5.386   1.025   2.314
 6613TIP3   OH219844   1.310   5.689   5.163
 6613TIP3    H119845   1.379   5.699   5.228
 6613TIP3    H219846   1.324   5.601   5.126
 6614TIP3   OH219847   1.065   0.969   4.869
 6614TIP3    H119848   1.033   1.051   4.831
 6614TIP3    H219849   1.038   0.972   4.960
 6615TIP3   OH219850   5.599   5.485   2.093
 6615TIP3    H119851   5.694   5.477   2.087
 6615TIP3    H219852   5.584   5.522   2.180
 6616TIP3   OH219853   3.229   0.275   2.191
 6616TIP3    H119854   3.189   0.243   2.110
 6616TIP3    H219855   3.303   0.216   2.205
 6617TIP3   OH219856   4.490   4.145   4.543
 6617TIP3    H119857   4.499   4.233   4.579
 6617TIP3    H219858   4.467   4.090   4.618
 6618TIP3   OH219859   5.821   0.102   3.286
 6618TIP3    H119860   5.772   0.181   3.262
 6618TIP3    H219861   5.782   0.073   3.368
 6619TIP3   OH219862   1.673   4.024   3.818
 6619TIP3    H119863   1.587   3.985   3.831
 6619TIP3    H219864   1.732   3.949   3.810
 6620TIP3   OH219865   1.470   0.073   3.745
 6620TIP3    H119866   1.401   0.100   3.684
 6620TIP3    H219867   1.423   0.039   3.821
 6621TIP3   OH219868   0.322   0.099   3.652
 6621TIP3    H119869   0.281   0.077   3.735
 6621TIP3    H219870   0.399   0.151   3.675
 6622TIP3   OH219871   0.660   5.499   4.433
 6622TIP3    H119872   0.726   5.447   4.479
 6622TIP3    H219873   0.690   5.589   4.442
 6623TIP3   OH219874   0.614   5.211   0.517
 6623TIP3    H119875   0.585   5.245   0.601
 6623TIP3    H219876   0.545   5.235   0.456
 6624TIP3   OH219877   0.311   3.383   0.661
 6624TIP3    H119878   0.276   3.472   0.669
 6624TIP3    H219879   0.256   3.330   0.719
 6625TIP3   OH219880   0.318   3.412   1.356
 6625TIP3    H119881   0.343   3.487   1.409
 6625TIP3    H219882   0.249   3.445   1.299
 6626TIP3   OH219883   0.828   3.808   3.575
 6626TIP3    H119884   0.805   3.733   3.630
 6626TIP3    H219885   0.904   3.779   3.525
 6627TIP3   OH219886   3.510   0.466   2.745
 6627TIP3    H119887   3.547   0.524   2.811
 6627TIP3    H219888   3.583   0.410   2.719
 6628TIP3   OH219889   1.678   3.212   4.921
 6628TIP3    H119890   1.667   3.284   4.859
 6628TIP3    H219891   1.623   3.142   4.887
 6629TIP3   OH219892   2.887   5.719   4.390
 6629TIP3    H119893   2.799   5.714   4.353
 6629TIP3    H219894   2.901   5.634   4.431
 6630TIP3   OH219895   5.119   0.011   0.622
 6630TIP3    H119896   5.120  -0.012   0.529
 6630TIP3    H219897   5.192   0.072   0.632
 6631TIP3   OH219898   1.129   3.122   4.597
 6631TIP3    H119899   1.093   3.035   4.613
 6631TIP3    H219900   1.068   3.181   4.641
 6632TIP3   OH219901   5.237   2.758   0.597
 6632TIP3    H119902   5.317   2.778   0.548
 6632TIP3    H219903   5.232   2.663   0.597
 6633TIP3   OH219904   2.304   0.903   0.519
 6633TIP3    H119905   2.287   0.957   0.442
 6633TIP3    H219906   2.227   0.847   0.526
 6634TIP3   OH219907   6.298   4.819   3.503
 6634TIP3    H119908   6.365   4.771   3.454
 6634TIP3    H219909   6.279   4.764   3.579
 6635TIP3   OH219910   6.035   3.071   0.653
 6635TIP3    H119911   5.942   3.046   0.654
 6635TIP3    H219912   6.066   3.046   0.566
 6636TIP3   OH219913   1.443   4.878   4.330
 6636TIP3    H119914   1.454   4.953   4.272
 6636TIP3    H219915   1.532   4.849   4.348
 6637TIP3   OH219916   2.906   5.656   0.298
 6637TIP3    H119917   2.890   5.736   0.349
 6637TIP3    H219918   2.909   5.686   0.207
 6638TIP3   OH219919   6.009   1.222   0.076
 6638TIP3    H119920   5.987   1.224  -0.017
 6638TIP3    H219921   6.047   1.136   0.090
 6639TIP3   OH219922   6.171   0.853   1.197
 6639TIP3    H119923   6.216   0.926   1.239
 6639TIP3    H219924   6.182   0.780   1.258
 6640TIP3   OH219925   5.231   4.764   1.652
 6640TIP3    H119926   5.221   4.755   1.747
 6640TIP3    H219927   5.158   4.715   1.616
 6641TIP3   OH219928   5.814   5.749   3.877
 6641TIP3    H119929   5.747   5.807   3.914
 6641TIP3    H219930   5.858   5.802   3.811
 6642TIP3   OH219931   3.169   0.810   0.535
 6642TIP3    H119932   3.116   0.868   0.590
 6642TIP3    H219933   3.224   0.762   0.598
 6643TIP3   OH219934   3.204   2.023   3.911
 6643TIP3    H119935   3.267   1.995   3.844
 6643TIP3    H219936   3.238   1.986   3.992
 6644TIP3   OH219937   4.066   3.481   4.876
 6644TIP3    H119938   4.161   3.490   4.881
 6644TIP3    H219939   4.037   3.562   4.834
 6645TIP3   OH219940   3.277   1.315   1.071
 6645TIP3    H119941   3.355   1.360   1.101
 6645TIP3    H219942   3.292   1.223   1.094
   6.35381   5.99043   5.18787   0.00000   0.00000  -2.11794   0.00000  -2.11794  -2.99521
